Title
55513
    1DOPE     N    1   4.561   3.941  17.174  0.0430 -0.1523 -0.1475
    1DOPE   HN1    2   4.555   3.987  17.267 -0.3234 -0.4722 -0.0118
    1DOPE   HN2    3   4.466   3.930  17.133  0.4855 -1.8702 -0.8024
    1DOPE   HN3    4   4.610   3.850  17.182 -1.1775 -0.8759 -0.7163
    1DOPE   C12    5   4.656   4.016  17.085 -0.3886  0.1825  0.1690
    1DOPE  H12A    6   4.690   3.949  17.003  0.3759  1.3570 -0.5029
    1DOPE  H12B    7   4.746   4.045  17.142  0.0096 -0.8132  0.0678
    1DOPE   C11    8   4.587   4.147  17.030  0.0519  1.2543 -0.2795
    1DOPE  H11A    9   4.519   4.118  16.947 -0.5494  0.5663  0.4309
    1DOPE  H11B   10   4.660   4.216  16.982 -0.7161  1.9215 -0.4979
    1DOPE     P   11   4.593   4.317  17.228 -0.4157  0.0657 -0.1324
    1DOPE   O13   12   4.735   4.272  17.242  0.3542 -0.2911 -0.0741
    1DOPE   O14   13   4.521   4.340  17.354 -0.2693  0.6197 -0.2258
    1DOPE   O11   14   4.600   4.449  17.141  0.7349  0.0619  0.2554
    1DOPE   O12   15   4.515   4.216  17.139 -0.7328  0.5438 -0.1071
    1DOPE    C1   16   4.476   4.515  17.111  0.2247  0.6884  0.1562
    1DOPE    HA   17   4.482   4.626  17.104 -3.3505  0.8991 -3.0672
    1DOPE    HB   18   4.397   4.490  17.185 -1.1763 -1.1220 -1.8355
    1DOPE    C2   19   4.419   4.488  16.967  0.1522  0.1698  0.4198
    1DOPE    HS   20   4.393   4.380  16.971 -0.6671  0.3766  0.9336
    1DOPE   O21   21   4.525   4.520  16.875 -0.6783  0.5198 -0.2664
    1DOPE   C21   22   4.539   4.438  16.773 -0.0030  0.2496 -0.0012
    1DOPE   O22   23   4.483   4.336  16.748  0.1662  0.4482 -0.2002
    1DOPE   C22   24   4.633   4.500  16.657  0.1001  0.6196  0.2743
    1DOPE   H2R   25   4.733   4.506  16.706 -0.2582  0.2364  1.0759
    1DOPE   H2S   26   4.595   4.604  16.649 -1.6959  0.0323  0.6329
    1DOPE    C3   27   4.288   4.566  16.934  0.2142  0.0335  0.4967
    1DOPE    HX   28   4.308   4.674  16.954  0.3856  0.1866 -0.4870
    1DOPE    HY   29   4.206   4.525  16.997 -0.1871 -0.1833 -0.1579
    1DOPE   O31   30   4.256   4.553  16.794 -0.0335  0.2427 -0.4009
    1DOPE   C31   31   4.191   4.440  16.760  0.0537  0.2739  0.2473
    1DOPE   O32   32   4.157   4.351  16.839  0.3672  0.4237  0.5362
    1DOPE   C32   33   4.179   4.412  16.606 -0.3181  0.0778 -0.4771
    1DOPE   H2X   34   4.241   4.493  16.561 -1.0409  1.1678  0.4212
    1DOPE   H2Y   35   4.219   4.310  16.588 -2.3871 -0.4885 -2.2708
    1DOPE   C23   36   4.641   4.408  16.530  0.8960 -0.0571  0.1341
    1DOPE   H3R   37   4.663   4.306  16.569  1.5472  0.1124  0.2265
    1DOPE   H3S   38   4.734   4.432  16.473  0.0731  0.7097 -0.9365
    1DOPE   C24   39   4.518   4.407  16.434 -0.1449 -0.8584 -0.0584
    1DOPE   H4R   40   4.505   4.507  16.388  0.7386  0.0916  1.6558
    1DOPE   H4S   41   4.439   4.381  16.508 -0.9961 -0.1937 -0.7128
    1DOPE   C25   42   4.508   4.296  16.332 -0.0573  0.1828  0.4832
    1DOPE   H5R   43   4.398   4.286  16.317  0.2327 -1.8713 -0.6645
    1DOPE   H5S   44   4.544   4.200  16.376  1.3435  0.3840 -0.1898
    1DOPE   C26   45   4.570   4.329  16.198 -0.4454  0.4387  0.1055
    1DOPE   H6R   46   4.678   4.339  16.220 -0.4872 -0.5862  0.8548
    1DOPE   H6S   47   4.537   4.429  16.161 -0.5368  0.7884  1.0751
    1DOPE   C27   48   4.566   4.224  16.085 -0.2961  0.2090  0.6831
    1DOPE   H7R   49   4.570   4.124  16.132 -1.8682 -0.0745  0.2656
    1DOPE   H7S   50   4.666   4.220  16.038  0.5981 -0.3468  2.5250
    1DOPE   C28   51   4.455   4.250  15.978 -0.5203  0.4624 -0.1087
    1DOPE   H8R   52   4.444   4.162  15.911 -2.3113 -1.1893  2.1909
    1DOPE   H8S   53   4.478   4.332  15.907 -0.5270  1.3239  0.8520
    1DOPE   C29   54   4.327   4.275  16.043  0.2979 -0.0156  0.4676
    1DOPE   H9R   55   4.305   4.379  16.071 -2.7244 -0.2557 -0.6469
    1DOPE  C210   56   4.240   4.180  16.087 -0.0380  0.2615 -0.2417
    1DOPE  H10R   57   4.148   4.208  16.140  1.1681  2.4136  0.8624
    1DOPE  C211   58   4.270   4.033  16.085  0.2216  0.1352 -0.4055
    1DOPE  H11R   59   4.368   4.003  16.041 -0.7143 -2.1822 -1.0585
    1DOPE  H11S   60   4.189   3.973  16.039  2.4113 -2.6606 -0.8659
    1DOPE  C212   61   4.294   3.976  16.228 -0.1515 -0.6473 -0.6697
    1DOPE  H12R   62   4.375   4.045  16.262 -1.6266  1.4371 -1.1683
    1DOPE  H12S   63   4.340   3.876  16.223 -2.0139 -1.7351  1.9744
    1DOPE  C213   64   4.177   3.973  16.328  0.4028  0.5529  0.0357
    1DOPE  H13R   65   4.113   3.887  16.295  0.9939  1.2460 -3.3177
    1DOPE  H13S   66   4.120   4.068  16.321  0.2306  0.3657 -1.5191
    1DOPE  C214   67   4.223   3.967  16.479 -0.1703 -0.1460  0.1053
    1DOPE  H14R   68   4.276   4.061  16.505 -2.1146  0.7698  0.9980
    1DOPE  H14S   69   4.291   3.880  16.495 -1.9851 -1.7450 -0.5366
    1DOPE  C215   70   4.094   3.954  16.563 -0.6720 -0.1969  0.0508
    1DOPE  H15R   71   4.007   3.948  16.494 -0.2288 -0.8671 -0.4665
    1DOPE  H15S   72   4.085   4.044  16.627 -0.6530  0.7392 -1.2292
    1DOPE  C216   73   4.111   3.818  16.639 -0.3552 -0.0697  0.2642
    1DOPE  H16R   74   4.197   3.815  16.710  0.4077  1.2079 -0.5773
    1DOPE  H16S   75   4.126   3.732  16.570  0.9575  2.1333 -2.3633
    1DOPE  C217   76   3.985   3.787  16.719  0.2442  0.0787  0.9929
    1DOPE  H17R   77   3.894   3.790  16.655  1.2987 -3.4678 -0.9392
    1DOPE  H17S   78   3.983   3.867  16.797 -2.7008 -0.0922  1.2045
    1DOPE  C218   79   3.989   3.649  16.793  0.4397  0.9768  0.0755
    1DOPE  H18R   80   3.997   3.562  16.725  0.2612  1.1370 -0.1495
    1DOPE  H18S   81   3.898   3.637  16.855  0.3045  1.0390 -0.1126
    1DOPE  H18T   82   4.071   3.641  16.869  0.2655  1.2069  0.2893
    1DOPE   C33   83   4.040   4.430  16.547  0.2727  0.4183  0.2982
    1DOPE   H3X   84   4.004   4.535  16.549  0.0588  0.3499  2.9054
    1DOPE   H3Y   85   3.958   4.389  16.610 -1.4876  2.9331 -0.2232
    1DOPE   C34   86   4.038   4.373  16.404  0.3790  0.2463  0.1096
    1DOPE   H4X   87   4.116   4.434  16.353 -0.0864  0.5694 -0.2245
    1DOPE   H4Y   88   4.067   4.266  16.405 -1.2614 -0.2219 -0.1476
    1DOPE   C35   89   3.905   4.393  16.329  0.1598 -0.3573 -0.3463
    1DOPE   H5X   90   3.894   4.502  16.307  0.9976 -0.2239 -0.1734
    1DOPE   H5Y   91   3.821   4.353  16.388 -0.4816  1.3245 -0.0605
    1DOPE   C36   92   3.891   4.320  16.197  0.4770  0.5681 -0.1385
    1DOPE   H6X   93   3.890   4.211  16.218  0.5158  0.5305 -0.3282
    1DOPE   H6Y   94   3.987   4.337  16.143  1.4216 -0.0294  1.2985
    1DOPE   C37   95   3.760   4.360  16.132  0.0220 -0.2111  1.2915
    1DOPE   H7X   96   3.696   4.406  16.210 -0.1219  1.6139  0.1598
    1DOPE   H7Y   97   3.777   4.459  16.084 -2.9963  0.2083  0.8897
    1DOPE   C38   98   3.698   4.249  16.055  0.2263  0.0270 -0.8205
    1DOPE   H8X   99   3.590   4.269  16.041  0.1095  0.0225  0.0332
    1DOPE   H8Y  100   3.710   4.156  16.114  0.0004 -1.3613 -2.8380
    1DOPE   C39  101   3.780   4.224  15.929  0.4200 -0.1186 -0.0152
    1DOPE   H9X  102   3.884   4.202  15.955  0.0655 -1.3420  0.4461
    1DOPE  C310  103   3.732   4.211  15.803  0.3717  0.2374 -0.3772
    1DOPE  H10X  104   3.811   4.203  15.727  1.7538  0.5705  0.9792
    1DOPE  C311  105   3.593   4.232  15.745 -0.5366 -0.3958 -1.1467
    1DOPE  H11X  106   3.517   4.197  15.817 -1.3600  0.7098 -1.4567
    1DOPE  H11Y  107   3.561   4.336  15.723 -1.1064 -0.4384 -0.5303
    1DOPE  C312  108   3.568   4.159  15.609 -0.0471  0.8097  0.0660
    1DOPE  H12X  109   3.580   4.052  15.636  0.1079  1.2354  1.7916
    1DOPE  H12Y  110   3.649   4.185  15.537  1.5363 -0.2310  1.3986
    1DOPE  C313  111   3.427   4.180  15.544 -0.5776  0.0022 -0.1329
    1DOPE  H13X  112   3.399   4.094  15.480 -2.6354  0.2874  0.3261
    1DOPE  H13Y  113   3.358   4.175  15.631 -1.5415 -0.2695 -0.9008
    1DOPE  C314  114   3.401   4.308  15.458  0.1755 -0.3022  0.0175
    1DOPE  H14X  115   3.440   4.400  15.508 -2.5196  0.7520  0.3705
    1DOPE  H14Y  116   3.290   4.302  15.452  0.1281 -0.2643  0.7963
    1DOPE  C315  117   3.471   4.306  15.325 -0.0980  0.2889  0.3191
    1DOPE  H15X  118   3.475   4.199  15.294  0.1341 -0.0315  1.4323
    1DOPE  H15Y  119   3.573   4.348  15.333 -0.0665  0.2305  0.2292
    1DOPE  C316  120   3.398   4.377  15.213 -0.3092  0.2254  0.1837
    1DOPE  H16X  121   3.292   4.344  15.204  0.4648 -2.7578  0.8388
    1DOPE  H16Y  122   3.446   4.348  15.118  0.4813  0.4088  0.5193
    1DOPE  C317  123   3.391   4.530  15.219 -0.7453 -0.3786  0.5809
    1DOPE  H17X  124   3.378   4.567  15.323  1.8417 -2.9245  1.9618
    1DOPE  H17Y  125   3.493   4.568  15.198 -0.2398 -0.2234  3.0486
    1DOPE  C318  126   3.287   4.577  15.119  0.0063  0.6697 -0.1639
    1DOPE  H18X  127   3.188   4.572  15.168  0.0556 -2.1484 -0.1954
    1DOPE  H18Y  128   3.305   4.679  15.079  0.2174  0.6746 -0.0584
    1DOPE  H18Z  129   3.304   4.510  15.032  1.5619 -0.2877  0.8224
    2DOPE     N  130   4.896   3.867  16.707 -0.3618 -0.1331  0.5899
    2DOPE   HN1  131   4.822   3.825  16.767 -0.4720  1.8508  1.9333
    2DOPE   HN2  132   4.948   3.802  16.644 -2.1492  0.6881 -1.8865
    2DOPE   HN3  133   4.963   3.903  16.778  1.0249 -0.1285 -0.6791
    2DOPE   C12  134   4.835   3.988  16.648 -0.0603  0.2623  0.3469
    2DOPE  H12A  135   4.792   4.038  16.737  1.2587  0.3115  0.9789
    2DOPE  H12B  136   4.763   3.953  16.570  1.3887 -0.8577 -0.5488
    2DOPE   C11  137   4.947   4.064  16.576  0.4015  0.0872 -0.3039
    2DOPE  H11A  138   4.907   4.135  16.500  1.1044 -1.3552 -2.0810
    2DOPE  H11B  139   5.000   3.985  16.519  0.8053 -1.1705  1.7339
    2DOPE     P  140   4.973   4.278  16.740 -0.3352 -0.1973 -0.1808
    2DOPE   O13  141   5.095   4.332  16.809 -0.2478 -0.6103  0.6220
    2DOPE   O14  142   4.849   4.268  16.827  0.4845  0.1194  0.6529
    2DOPE   O11  143   4.948   4.354  16.605  0.2409  0.4630  0.4444
    2DOPE   O12  144   5.024   4.132  16.680  0.2861  0.0530  0.1466
    2DOPE    C1  145   4.993   4.482  16.571 -0.0055  0.3915 -0.2934
    2DOPE    HA  146   4.974   4.553  16.655 -0.7932  0.5200 -0.5664
    2DOPE    HB  147   4.942   4.534  16.486  1.4126  1.3520 -0.5940
    2DOPE    C2  148   5.149   4.488  16.539  0.5007 -0.1400 -0.1487
    2DOPE    HS  149   5.205   4.452  16.627 -1.5917  0.6373  1.5969
    2DOPE   O21  150   5.179   4.623  16.510  0.1375 -0.4052  0.2939
    2DOPE   C21  151   5.281   4.687  16.570  0.3487  0.1394  0.1748
    2DOPE   O22  152   5.345   4.633  16.659  0.2939 -0.5689 -0.5403
    2DOPE   C22  153   5.303   4.827  16.510  0.3459 -0.7973 -1.2847
    2DOPE   H2R  154   5.355   4.892  16.582 -0.6147  1.2828 -2.3749
    2DOPE   H2S  155   5.197   4.855  16.488  0.1950  1.4464  1.6649
    2DOPE    C3  156   5.184   4.398  16.416  0.3424 -0.4713 -0.6764
    2DOPE    HX  157   5.115   4.426  16.333 -0.4092  1.1884  0.4513
    2DOPE    HY  158   5.155   4.293  16.435  1.5938 -0.4888  1.4242
    2DOPE   O31  159   5.318   4.415  16.371  0.3201  0.3449 -0.3268
    2DOPE   C31  160   5.397   4.330  16.419 -0.0095  0.5543  0.7185
    2DOPE   O32  161   5.377   4.243  16.502 -0.0950 -0.2858  0.1372
    2DOPE   C32  162   5.527   4.342  16.342  0.4397  0.4280 -0.1121
    2DOPE   H2X  163   5.590   4.251  16.352  0.3648  0.4063  0.1728
    2DOPE   H2Y  164   5.487   4.346  16.239  0.5962 -1.7776 -0.3075
    2DOPE   C23  165   5.384   4.818  16.376  0.5411 -0.2202  0.0984
    2DOPE   H3R  166   5.320   4.763  16.303  0.6233  1.6365 -1.4536
    2DOPE   H3S  167   5.482   4.770  16.396  2.0632  3.2466  1.7208
    2DOPE   C24  168   5.400   4.953  16.308  0.2547  0.1207 -0.2841
    2DOPE   H4R  169   5.297   4.993  16.295  0.1367 -0.3912 -0.9797
    2DOPE   H4S  170   5.437   4.942  16.204  0.6870  0.9449 -0.2274
    2DOPE   C25  171   5.473   5.063  16.382  0.3202 -0.2580  0.3551
    2DOPE   H5R  172   5.578   5.034  16.401  2.0917  4.3271 -1.2171
    2DOPE   H5S  173   5.427   5.069  16.484  0.1652 -0.5544  0.3048
    2DOPE   C26  174   5.457   5.198  16.323 -0.9723  0.1356 -0.2977
    2DOPE   H6R  175   5.488   5.271  16.402 -0.4682 -0.9952  0.5850
    2DOPE   H6S  176   5.351   5.210  16.294 -0.4477  1.6505 -1.7293
    2DOPE   C27  177   5.539   5.223  16.195 -0.0462  0.2494 -0.5152
    2DOPE   H7R  178   5.559   5.126  16.145 -0.2681 -1.6237  2.7680
    2DOPE   H7S  179   5.636   5.264  16.229 -0.8614  0.8377  1.2073
    2DOPE   C28  180   5.472   5.326  16.111  0.3243  0.1348  0.2517
    2DOPE   H8R  181   5.447   5.417  16.170 -0.1558 -0.1035  0.4214
    2DOPE   H8S  182   5.369   5.287  16.093  0.5784 -1.4499  1.9539
    2DOPE   C29  183   5.552   5.359  15.990 -0.8384  0.0184 -0.3133
    2DOPE   H9R  184   5.624   5.441  16.002  0.1144 -1.1306  3.2766
    2DOPE  C210  185   5.539   5.294  15.876 -0.3569  0.3993  0.2445
    2DOPE  H10R  186   5.615   5.316  15.799  0.7556  0.7637  1.4026
    2DOPE  C211  187   5.440   5.178  15.845  0.3913 -0.5564 -0.0446
    2DOPE  H11R  188   5.344   5.213  15.802  0.0714 -0.6534  0.5825
    2DOPE  H11S  189   5.419   5.124  15.940 -0.4528 -0.1600 -0.0017
    2DOPE  C212  190   5.501   5.079  15.746 -0.5603  0.5760 -0.3312
    2DOPE  H12R  191   5.560   5.130  15.667 -2.0358  0.3328 -1.6403
    2DOPE  H12S  192   5.414   5.035  15.693 -1.2343 -1.2065  2.0391
    2DOPE  C213  193   5.576   4.957  15.805 -0.1152  0.4113 -0.5475
    2DOPE  H13R  194   5.507   4.903  15.872 -0.1380  0.9006 -0.1692
    2DOPE  H13S  195   5.651   4.998  15.876  1.6121  3.2825 -3.6893
    2DOPE  C214  196   5.650   4.864  15.701  0.3257 -0.5310 -0.6442
    2DOPE  H14R  197   5.671   4.927  15.612  2.3634 -2.1227 -1.3683
    2DOPE  H14S  198   5.581   4.783  15.669  0.2196 -1.5622  1.9533
    2DOPE  C215  199   5.774   4.811  15.764 -0.0147  0.3201  0.5717
    2DOPE  H15R  200   5.850   4.886  15.793  1.9187 -1.3348  0.0563
    2DOPE  H15S  201   5.828   4.748  15.690 -0.8067 -0.5439  0.7167
    2DOPE  C216  202   5.763   4.717  15.877 -0.1746  0.7098  0.3386
    2DOPE  H16R  203   5.695   4.630  15.868  2.6316 -1.9125  2.2532
    2DOPE  H16S  204   5.728   4.781  15.961  0.8263 -0.8733  2.0487
    2DOPE  C217  205   5.903   4.669  15.928 -0.1950 -0.3066 -0.4973
    2DOPE  H17R  206   5.972   4.754  15.909  1.2750 -1.0815  1.1377
    2DOPE  H17S  207   5.935   4.588  15.858  0.4949 -0.7141  0.2799
    2DOPE  C218  208   5.912   4.616  16.073 -0.6584 -0.4683 -0.1840
    2DOPE  H18R  209   5.828   4.546  16.092 -0.6597 -0.3849  0.1243
    2DOPE  H18S  210   5.894   4.705  16.138 -2.3101 -1.6382  1.0450
    2DOPE  H18T  211   6.011   4.567  16.081 -1.1201 -1.1759  1.9750
    2DOPE   C33  212   5.615   4.462  16.373 -0.3122 -0.1585  0.2361
    2DOPE   H3X  213   5.547   4.547  16.351  0.7267  0.3977 -0.9789
    2DOPE   H3Y  214   5.695   4.468  16.296 -0.1125 -1.1909  0.3423
    2DOPE   C34  215   5.682   4.481  16.512 -0.2451  0.2707 -0.1153
    2DOPE   H4X  216   5.611   4.436  16.585  0.9126  0.8539  1.4336
    2DOPE   H4Y  217   5.775   4.424  16.534 -1.3403 -1.5540  0.0296
    2DOPE   C35  218   5.697   4.630  16.549  0.4832  0.3578  0.2318
    2DOPE   H5X  219   5.718   4.640  16.658 -1.6151  1.8829  0.5638
    2DOPE   H5Y  220   5.600   4.678  16.524 -0.3675  0.1657  2.8730
    2DOPE   C36  221   5.814   4.696  16.469 -0.2726  0.2443 -0.2960
    2DOPE   H6X  222   5.805   4.806  16.481  0.0752  0.2033  0.3373
    2DOPE   H6Y  223   5.799   4.660  16.365  1.5090 -2.7589  0.3836
    2DOPE   C37  224   5.950   4.654  16.517  0.0483 -0.3507  0.4752
    2DOPE   H7X  225   5.973   4.697  16.617 -0.7442  0.3418  0.3708
    2DOPE   H7Y  226   5.950   4.543  16.523 -1.7241 -0.5243 -1.5964
    2DOPE   C38  227   6.068   4.693  16.419 -0.2981  0.2986 -0.2752
    2DOPE   H8X  228   6.080   4.804  16.425 -0.4831  0.3485 -0.7609
    2DOPE   H8Y  229   6.057   4.659  16.314 -0.2032  0.2148 -0.2573
    2DOPE   C39  230   6.200   4.637  16.468  0.0507  0.2307 -0.4324
    2DOPE   H9X  231   6.225   4.681  16.566 -1.0421  1.3840 -0.6301
    2DOPE  C310  232   6.290   4.561  16.405 -0.6122 -0.3324  0.5792
    2DOPE  H10X  233   6.386   4.547  16.456 -1.3911  1.2822  2.6806
    2DOPE  C311  234   6.270   4.494  16.276 -0.3480  0.3448  0.6159
    2DOPE  H11X  235   6.317   4.394  16.280  1.3527  1.1229  1.2077
    2DOPE  H11Y  236   6.163   4.476  16.253 -1.2804 -1.5055  5.2417
    2DOPE  C312  237   6.342   4.565  16.157 -1.0601 -0.0759 -0.8655
    2DOPE  H12X  238   6.315   4.673  16.157 -4.2995 -0.7646 -1.4372
    2DOPE  H12Y  239   6.302   4.518  16.065 -0.8103 -1.7143 -0.1606
    2DOPE  C313  240   6.490   4.553  16.158 -0.0234  0.3347 -0.6451
    2DOPE  H13X  241   6.542   4.587  16.249 -0.8941  2.5592 -0.9228
    2DOPE  H13Y  242   6.510   4.444  16.150 -0.3967  0.2164 -0.0099
    2DOPE  C314  243   6.558   4.629  16.046 -1.3324 -0.2511  0.8692
    2DOPE  H14X  244   6.667   4.618  16.064 -1.5074 -1.8829  1.0808
    2DOPE  H14Y  245   6.539   4.738  16.046 -0.7410 -0.1375  1.3918
    2DOPE  C315  246   6.536   4.596  15.900  0.9728  0.3910  0.3171
    2DOPE  H15X  247   6.437   4.631  15.864  0.2925 -1.0790  0.6760
    2DOPE  H15Y  248   6.544   4.486  15.885  0.9789  0.0162  2.7783
    2DOPE  C316  249   6.625   4.674  15.809 -0.0978 -0.3835  0.5775
    2DOPE  H16X  250   6.731   4.660  15.839  0.9754  1.0242 -2.2390
    2DOPE  H16Y  251   6.601   4.783  15.811 -0.1987 -0.1863 -3.5599
    2DOPE  C317  252   6.614   4.619  15.665 -0.3822 -0.2139 -0.6265
    2DOPE  H17X  253   6.638   4.510  15.664  0.1916 -0.0928 -0.5552
    2DOPE  H17Y  254   6.513   4.631  15.621 -1.1704  2.2321  1.5620
    2DOPE  C318  255   6.709   4.691  15.578  0.0038  0.1185  0.1633
    2DOPE  H18X  256   6.682   4.798  15.588  2.2781  0.6750  1.0972
    2DOPE  H18Y  257   6.813   4.669  15.610 -0.8765 -0.6991  2.7026
    2DOPE  H18Z  258   6.701   4.663  15.471  1.1371  1.3274 -0.2742
    3DOPE     N  259   2.895   5.984  16.974  0.0373 -0.9329  0.1561
    3DOPE   HN1  260   2.897   6.083  16.941  2.1947 -1.5677 -1.8798
    3DOPE   HN2  261   2.816   5.948  16.916 -0.5029 -1.3294  1.1137
    3DOPE   HN3  262   2.846   5.985  17.065 -1.1163  3.0623 -0.2931
    3DOPE   C12  263   3.019   5.912  16.956  0.2621  0.0838 -0.2938
    3DOPE  H12A  264   3.065   5.937  16.858  2.0501 -0.4404  0.3845
    3DOPE  H12B  265   2.984   5.807  16.954 -0.1311  0.2171 -0.5251
    3DOPE   C11  266   3.107   5.936  17.078 -0.3638 -0.2798 -0.9399
    3DOPE  H11A  267   3.109   6.044  17.103  0.9559 -0.8206  1.6699
    3DOPE  H11B  268   3.215   5.917  17.059 -0.1581 -0.2825  0.1572
    3DOPE     P  269   3.114   5.709  17.210  0.2878  0.7608  0.0567
    3DOPE   O13  270   2.991   5.640  17.248  0.0727  0.5348  0.1022
    3DOPE   O14  271   3.227   5.699  17.304  0.2489  0.1355 -0.5326
    3DOPE   O11  272   3.152   5.670  17.053  0.6922 -0.1726  0.0705
    3DOPE   O12  273   3.066   5.859  17.188  0.5759  0.0337  0.2253
    3DOPE    C1  274   3.270   5.594  17.043 -0.0240 -0.4528  0.3747
    3DOPE    HA  275   3.255   5.492  17.082 -0.8387 -1.0023 -1.2649
    3DOPE    HB  276   3.356   5.641  17.094  0.9020 -3.6156  1.9747
    3DOPE    C2  277   3.323   5.593  16.895 -0.4765 -0.1361 -0.0491
    3DOPE    HS  278   3.348   5.700  16.878  0.8899 -0.6053 -1.2157
    3DOPE   O21  279   3.233   5.532  16.803  0.3644  0.1950 -0.3411
    3DOPE   C21  280   3.143   5.606  16.734 -0.1632 -0.3628 -0.0632
    3DOPE   O22  281   3.148   5.731  16.724  0.1123  0.2389  0.0082
    3DOPE   C22  282   3.037   5.516  16.667  0.4102 -0.1750  0.3480
    3DOPE   H2R  283   2.978   5.469  16.749  2.1049 -0.8709  1.2292
    3DOPE   H2S  284   3.096   5.435  16.619  0.6868  2.2842 -3.9741
    3DOPE    C3  285   3.465   5.522  16.889 -0.0600  0.2526  0.5829
    3DOPE    HX  286   3.442   5.417  16.915 -0.7437 -0.1411 -1.4104
    3DOPE    HY  287   3.539   5.567  16.959 -1.8153  0.6803  2.2395
    3DOPE   O31  288   3.523   5.510  16.757  0.1331 -0.1944 -0.2157
    3DOPE   C31  289   3.579   5.626  16.719 -0.3063 -0.1328  0.7502
    3DOPE   O32  290   3.590   5.723  16.790 -0.3930 -0.0540 -1.0952
    3DOPE   C32  291   3.622   5.611  16.566 -0.2467  0.8271  0.2965
    3DOPE   H2X  292   3.723   5.567  16.550 -0.1205  0.8980  0.8836
    3DOPE   H2Y  293   3.540   5.566  16.507  0.6910 -0.4110 -0.0941
    3DOPE   C23  294   2.938   5.603  16.582 -0.3162  0.0308  0.8080
    3DOPE   H3R  295   2.886   5.532  16.514  1.0058  0.1621 -0.3953
    3DOPE   H3S  296   2.993   5.672  16.514 -1.3020 -0.7072 -0.7980
    3DOPE   C24  297   2.839   5.686  16.669 -0.2742 -1.1400 -0.5847
    3DOPE   H4R  298   2.891   5.742  16.750  0.2382 -0.3704 -1.4232
    3DOPE   H4S  299   2.770   5.614  16.719 -0.4344 -0.9889 -0.5880
    3DOPE   C25  300   2.755   5.784  16.571  0.6272  0.5223 -0.5571
    3DOPE   H5R  301   2.660   5.814  16.619 -0.1920 -0.7991 -1.2989
    3DOPE   H5S  302   2.725   5.723  16.483 -1.6398  0.5003  0.1727
    3DOPE   C26  303   2.834   5.914  16.538  0.0513 -0.3651  0.0706
    3DOPE   H6R  304   2.929   5.892  16.485 -0.6473 -0.6928 -1.0848
    3DOPE   H6S  305   2.863   5.967  16.631 -2.3519 -1.0788  1.3023
    3DOPE   C27  306   2.748   6.005  16.443 -0.4089  0.0078  0.3552
    3DOPE   H7R  307   2.661   6.054  16.493 -1.5900  0.8878 -2.3854
    3DOPE   H7S  308   2.708   5.960  16.350 -1.3883  2.3044 -0.4177
    3DOPE   C28  309   2.840   6.116  16.385  0.6118 -0.5753 -0.1424
    3DOPE   H8R  310   2.779   6.177  16.316 -0.2901 -1.7821 -0.4422
    3DOPE   H8S  311   2.928   6.077  16.328  1.2053 -0.8286  0.9111
    3DOPE   C29  312   2.898   6.212  16.482  0.6620 -0.7696  0.0667
    3DOPE   H9R  313   2.882   6.186  16.588  0.2872 -0.0792  0.1817
    3DOPE  C210  314   2.985   6.308  16.447  0.3362 -0.7606 -0.8224
    3DOPE  H10R  315   3.022   6.373  16.527  0.5420 -1.6363 -0.1793
    3DOPE  C211  316   3.004   6.358  16.306 -1.3126 -0.5221 -0.2751
    3DOPE  H11R  317   2.979   6.466  16.301 -0.7786 -0.2207  2.1415
    3DOPE  H11S  318   2.939   6.308  16.232  0.7215 -1.5525 -1.4473
    3DOPE  C212  319   3.150   6.328  16.263  0.2264  0.4363  0.3845
    3DOPE  H12R  320   3.180   6.222  16.277  2.2553  0.6180 -1.9231
    3DOPE  H12S  321   3.216   6.388  16.328  0.1280  1.0216 -0.0507
    3DOPE  C213  322   3.175   6.377  16.114  0.0580  0.5260  0.5072
    3DOPE  H13R  323   3.285   6.374  16.097  0.3645 -0.6397  2.4369
    3DOPE  H13S  324   3.137   6.479  16.091  0.0988  0.6082  0.8075
    3DOPE  C214  325   3.117   6.286  16.003 -0.2856  0.0758 -1.0798
    3DOPE  H14R  326   3.008   6.297  16.021 -0.1773 -2.3645  2.0866
    3DOPE  H14S  327   3.139   6.179  16.023 -1.1817  0.0865  0.0829
    3DOPE  C215  328   3.155   6.324  15.859 -0.1190 -0.1492 -0.3324
    3DOPE  H15R  329   3.258   6.299  15.828 -0.0790  0.6152 -0.8319
    3DOPE  H15S  330   3.151   6.434  15.843  0.9919 -0.1412 -0.6323
    3DOPE  C216  331   3.061   6.258  15.756 -0.2207  0.3224  0.2899
    3DOPE  H16R  332   2.966   6.308  15.785 -0.6549 -0.9711  1.2120
    3DOPE  H16S  333   3.044   6.149  15.769  2.4322 -0.1518  0.2455
    3DOPE  C217  334   3.103   6.293  15.612  1.2307 -0.2203 -0.2797
    3DOPE  H17R  335   3.203   6.247  15.605  0.9453 -0.8309 -0.3725
    3DOPE  H17S  336   3.114   6.403  15.599 -0.2356  0.3246  2.2745
    3DOPE  C218  337   3.011   6.236  15.508 -0.4986  0.1177 -0.0161
    3DOPE  H18R  338   3.062   6.231  15.410 -0.1748  0.4741  0.1302
    3DOPE  H18S  339   2.913   6.289  15.503  0.0078  1.2542  1.4362
    3DOPE  H18T  340   2.986   6.130  15.528 -0.2599 -0.5166 -2.7116
    3DOPE   C33  341   3.642   5.760  16.513  0.2449  0.9672 -0.0954
    3DOPE   H3X  342   3.727   5.801  16.572 -1.4457  1.1899  2.3308
    3DOPE   H3Y  343   3.547   5.815  16.532 -1.1077 -1.4017  0.4629
    3DOPE   C34  344   3.673   5.774  16.360  1.0713 -0.3763 -0.8615
    3DOPE   H4X  345   3.604   5.710  16.301  0.4169 -0.2257 -0.2758
    3DOPE   H4Y  346   3.658   5.879  16.330  1.6502 -0.3263 -0.9700
    3DOPE   C35  347   3.810   5.720  16.315 -0.1016  0.0686 -0.0214
    3DOPE   H5X  348   3.820   5.620  16.363  3.5802 -0.1567 -0.9958
    3DOPE   H5Y  349   3.886   5.782  16.366  0.8332 -1.2876  0.3069
    3DOPE   C36  350   3.811   5.710  16.165 -1.0640 -0.3531  0.1068
    3DOPE   H6X  351   3.798   5.809  16.117 -3.5642 -1.2008 -1.1297
    3DOPE   H6Y  352   3.731   5.645  16.125 -0.2418 -0.6474 -1.1075
    3DOPE   C37  353   3.940   5.645  16.110  0.0238 -0.3039  0.4266
    3DOPE   H7X  354   4.033   5.700  16.134  0.0561 -0.8032  1.5177
    3DOPE   H7Y  355   3.942   5.543  16.155 -0.2245 -1.7861 -2.6055
    3DOPE   C38  356   3.938   5.636  15.958 -0.5567  0.4933 -0.0350
    3DOPE   H8X  357   3.933   5.745  15.936  0.3144  0.3899 -0.8071
    3DOPE   H8Y  358   3.845   5.582  15.929  1.4158 -3.3999  0.2686
    3DOPE   C39  359   4.063   5.587  15.893 -0.0347  0.5565  0.4283
    3DOPE   H9X  360   4.153   5.649  15.896  1.5397 -1.5947  3.6219
    3DOPE  C310  361   4.067   5.487  15.803 -0.2964  0.5276 -0.6468
    3DOPE  H10X  362   4.161   5.445  15.766  1.0935  0.9294  2.1354
    3DOPE  C311  363   3.956   5.391  15.768 -0.0732  1.0638 -0.0424
    3DOPE  H11X  364   3.973   5.284  15.793 -2.4309  0.6944  0.2117
    3DOPE  H11Y  365   3.862   5.418  15.821  0.6432  0.9344  1.3202
    3DOPE  C312  366   3.939   5.394  15.613 -0.6208  0.9970 -0.7657
    3DOPE  H12X  367   4.036   5.359  15.572  1.0364  2.6539  1.4722
    3DOPE  H12Y  368   3.917   5.497  15.578 -0.9077  1.1270 -0.2224
    3DOPE  C313  369   3.823   5.307  15.566  0.3004 -0.0564 -0.7717
    3DOPE  H13X  370   3.855   5.200  15.559 -4.1004 -1.5944 -0.7161
    3DOPE  H13Y  371   3.745   5.306  15.645  1.4327  0.9469  0.3958
    3DOPE  C314  372   3.762   5.349  15.431 -0.2256 -0.2163  0.3866
    3DOPE  H14X  373   3.744   5.458  15.437  0.0397 -0.1144 -0.5684
    3DOPE  H14Y  374   3.669   5.293  15.410 -0.8090  0.1453  1.8541
    3DOPE  C315  375   3.862   5.331  15.316 -0.1278 -0.0109 -0.3390
    3DOPE  H15X  376   3.909   5.230  15.311 -0.0468 -0.0264  0.5531
    3DOPE  H15Y  377   3.946   5.400  15.340  0.1560 -0.0023 -1.3073
    3DOPE  C316  378   3.819   5.368  15.169 -0.2614 -0.6011 -0.3020
    3DOPE  H16X  379   3.720   5.418  15.164 -0.0816 -0.2281 -0.2050
    3DOPE  H16Y  380   3.810   5.267  15.124 -0.2508 -0.5874 -0.3339
    3DOPE  C317  381   3.917   5.461  15.089  0.6240  0.5991 -0.1351
    3DOPE  H17X  382   3.943   5.560  15.130 -1.0697  1.2125 -0.4667
    3DOPE  H17Y  383   4.007   5.397  15.074  0.7757  0.6138  0.7012
    3DOPE  C318  384   3.874   5.505  14.949 -0.2738  0.0160  0.6998
    3DOPE  H18X  385   3.941   5.587  14.916 -2.4905  1.0212 -1.5806
    3DOPE  H18Y  386   3.886   5.422  14.876  1.1699 -0.4888  1.4552
    3DOPE  H18Z  387   3.769   5.540  14.952  0.3419  1.9332  0.7918
    4DOPE     N  388   5.014   3.477  17.060 -0.0685 -0.3135  0.4948
    4DOPE   HN1  389   5.073   3.556  17.091  0.6118 -0.0698 -1.3173
    4DOPE   HN2  390   4.933   3.477  17.126 -0.1148 -2.3211  0.5171
    4DOPE   HN3  391   5.062   3.391  17.094  0.9413  0.0473 -0.0003
    4DOPE   C12  392   4.982   3.483  16.909 -0.5046  0.5716  0.5065
    4DOPE  H12A  393   4.935   3.578  16.876  1.9354  1.5425 -0.4290
    4DOPE  H12B  394   4.917   3.396  16.886 -0.8807  0.2748  2.4600
    4DOPE   C11  395   5.110   3.476  16.826 -0.2201  0.1304  0.6440
    4DOPE  H11A  396   5.089   3.500  16.720 -0.3294 -0.4455  0.5354
    4DOPE  H11B  397   5.151   3.373  16.824  2.6489  1.1775 -0.4717
    4DOPE     P  398   5.219   3.716  16.844 -0.1739 -0.1054 -0.1998
    4DOPE   O13  399   5.341   3.777  16.904 -1.0882 -0.0354  0.6209
    4DOPE   O14  400   5.090   3.791  16.871  0.1802  0.3974 -0.6505
    4DOPE   O11  401   5.242   3.700  16.686  0.3484 -0.0304  0.1993
    4DOPE   O12  402   5.208   3.564  16.889  0.8024 -0.1335 -0.0224
    4DOPE    C1  403   5.379   3.667  16.653  0.0344  0.4005 -0.4703
    4DOPE    HA  404   5.410   3.571  16.699 -0.6524 -1.3157 -3.3075
    4DOPE    HB  405   5.443   3.750  16.689 -0.4053  0.2063  0.8029
    4DOPE    C2  406   5.403   3.636  16.498 -0.4981  0.5694  0.4975
    4DOPE    HS  407   5.512   3.641  16.479 -0.5152 -0.4686  0.0268
    4DOPE   O21  408   5.328   3.727  16.418  0.0539  0.5359 -0.2231
    4DOPE   C21  409   5.371   3.852  16.423 -0.2863  0.0442  0.3147
    4DOPE   O22  410   5.476   3.887  16.474  0.4100  0.9250  0.0547
    4DOPE   C22  411   5.277   3.943  16.344 -0.3258 -0.4703  0.0879
    4DOPE   H2R  412   5.263   4.036  16.402 -0.3803 -0.9717  0.8957
    4DOPE   H2S  413   5.174   3.902  16.339  0.1549 -1.8127  0.6706
    4DOPE    C3  414   5.369   3.497  16.451 -0.9482  0.6240 -0.3685
    4DOPE    HX  415   5.285   3.452  16.507  1.0442 -2.8402  0.1063
    4DOPE    HY  416   5.454   3.433  16.483 -1.9742 -1.4935 -1.6592
    4DOPE   O31  417   5.354   3.478  16.306 -0.1931  0.0359  0.0229
    4DOPE   C31  418   5.229   3.505  16.261 -0.2724 -0.1699  0.1848
    4DOPE   O32  419   5.131   3.533  16.333  0.8636 -0.1715 -0.1704
    4DOPE   C32  420   5.224   3.500  16.101  0.8519 -0.1046 -0.1707
    4DOPE   H2X  421   5.159   3.584  16.067  0.6447  0.6063  1.8453
    4DOPE   H2Y  422   5.321   3.512  16.047  0.6549 -0.7007 -0.6617
    4DOPE   C23  423   5.321   3.975  16.203  0.2160 -0.3082  0.5612
    4DOPE   H3R  424   5.327   3.883  16.143 -1.0333 -0.7680  1.1173
    4DOPE   H3S  425   5.424   4.014  16.217  1.1603 -2.4146 -0.2256
    4DOPE   C24  426   5.236   4.088  16.132  0.3812  0.5231 -0.0318
    4DOPE   H4R  427   5.220   4.179  16.194 -0.1778  1.5247 -1.5839
    4DOPE   H4S  428   5.133   4.050  16.115  0.8599 -0.6253 -0.5144
    4DOPE   C25  429   5.300   4.135  15.998 -0.3602 -0.1978 -0.2059
    4DOPE   H5R  430   5.252   4.086  15.910  0.2934  0.0346 -0.7053
    4DOPE   H5S  431   5.408   4.109  16.004 -0.2373  0.3705  0.0745
    4DOPE   C26  432   5.289   4.282  15.979 -0.4012  1.0899  1.0090
    4DOPE   H6R  433   5.315   4.342  16.069  0.3763  0.2734  1.3400
    4DOPE   H6S  434   5.183   4.307  15.953  0.2659  1.9534 -1.1365
    4DOPE   C27  435   5.371   4.345  15.870 -0.2842  0.1734  0.2884
    4DOPE   H7R  436   5.464   4.284  15.866  0.1716  0.7573  1.4132
    4DOPE   H7S  437   5.397   4.450  15.895  1.6776 -0.0644 -0.5287
    4DOPE   C28  438   5.317   4.346  15.721 -0.6330  0.1977 -0.8854
    4DOPE   H8R  439   5.210   4.376  15.727 -0.2510  1.6103 -0.8662
    4DOPE   H8S  440   5.309   4.240  15.689 -1.9839 -0.6831  1.9878
    4DOPE   C29  441   5.400   4.430  15.627 -0.5514 -0.3797 -0.6335
    4DOPE   H9R  442   5.507   4.404  15.625 -0.9486 -2.1844 -3.1948
    4DOPE  C210  443   5.349   4.508  15.531 -0.3753 -0.2017 -0.0595
    4DOPE  H10R  444   5.413   4.571  15.467 -0.1357 -0.8118 -0.4313
    4DOPE  C211  445   5.213   4.563  15.504  0.2213 -0.0108 -0.5579
    4DOPE  H11R  446   5.131   4.504  15.551  2.5576 -1.6529  1.7331
    4DOPE  H11S  447   5.199   4.570  15.394 -1.7563  1.2863 -0.2913
    4DOPE  C212  448   5.211   4.703  15.568  0.1928  0.5342  0.4058
    4DOPE  H12R  449   5.121   4.763  15.540  0.7978  0.9421 -0.7227
    4DOPE  H12S  450   5.296   4.766  15.536  0.8107 -0.7615 -0.6166
    4DOPE  C213  451   5.202   4.698  15.723  0.8962  0.2073 -0.6001
    4DOPE  H13R  452   5.290   4.648  15.769  0.6567 -0.3764 -0.7732
    4DOPE  H13S  453   5.109   4.649  15.758  0.3190  2.0536  0.6021
    4DOPE  C214  454   5.211   4.829  15.792  0.1090  0.0454  0.3876
    4DOPE  H14R  455   5.138   4.905  15.758 -0.5543 -0.1936  1.2512
    4DOPE  H14S  456   5.312   4.876  15.785  0.5977 -0.8238  1.2206
    4DOPE  C215  457   5.198   4.820  15.952 -0.0743 -0.2203 -0.5266
    4DOPE  H15R  458   5.215   4.922  15.992 -1.4666 -0.2911  0.3038
    4DOPE  H15S  459   5.277   4.756  15.995  0.9291  1.6553  0.5212
    4DOPE  C216  460   5.065   4.763  16.005 -0.2448  0.3569 -0.6902
    4DOPE  H16R  461   4.988   4.757  15.924 -0.6986  1.3592 -0.3506
    4DOPE  H16S  462   5.028   4.828  16.087  1.4356  0.7200 -0.1966
    4DOPE  C217  463   5.088   4.616  16.055 -0.6024  0.6869 -0.1000
    4DOPE  H17R  464   5.159   4.617  16.140 -1.5291 -0.2806  0.7089
    4DOPE  H17S  465   5.140   4.563  15.972  0.6678  0.9144  0.5262
    4DOPE  C218  466   4.951   4.553  16.096 -0.0652 -0.7712  0.0751
    4DOPE  H18R  467   4.884   4.549  16.007 -2.6283  2.7792  1.6053
    4DOPE  H18S  468   4.889   4.620  16.159 -2.7482 -1.1062 -2.0361
    4DOPE  H18T  469   4.972   4.453  16.141 -0.1726 -1.0304 -0.4447
    4DOPE   C33  470   5.170   3.355  16.066 -0.5060  0.3453 -0.4631
    4DOPE   H3X  471   5.139   3.354  15.959 -0.3671 -1.2835 -0.5149
    4DOPE   H3Y  472   5.083   3.326  16.129 -0.0275 -0.3821 -0.1269
    4DOPE   C34  473   5.284   3.255  16.080 -0.2450 -0.5014 -0.7951
    4DOPE   H4X  474   5.371   3.277  16.016  0.4770  0.5344  0.4944
    4DOPE   H4Y  475   5.323   3.261  16.184 -2.1791  1.9131 -0.1028
    4DOPE   C35  476   5.233   3.118  16.031 -0.3263 -0.8324 -0.2143
    4DOPE   H5X  477   5.216   3.116  15.921  0.5906  0.2835 -0.4040
    4DOPE   H5Y  478   5.138   3.100  16.086 -1.1571  2.8787 -0.1552
    4DOPE   C36  479   5.325   3.010  16.071  0.8196  0.5811 -0.7396
    4DOPE   H6X  480   5.334   3.013  16.182 -0.0707 -1.8694 -0.5186
    4DOPE   H6Y  481   5.424   3.033  16.028  1.5946 -0.2601  0.5217
    4DOPE   C37  482   5.265   2.871  16.037  0.0546  0.4694  0.0352
    4DOPE   H7X  483   5.161   2.871  16.076 -0.4281  4.5146 -0.7863
    4DOPE   H7Y  484   5.250   2.857  15.928  1.7821 -3.3407  0.1127
    4DOPE   C38  485   5.347   2.754  16.100  0.6668  0.0949 -0.1796
    4DOPE   H8X  486   5.281   2.667  16.084  1.0106 -0.0115 -1.0859
    4DOPE   H8Y  487   5.365   2.745  16.209  0.9961 -2.4233 -0.3878
    4DOPE   C39  488   5.479   2.736  16.030  0.2504  0.1621  0.6505
    4DOPE   H9X  489   5.554   2.815  16.047 -0.7444  1.4096 -0.5016
    4DOPE  C310  490   5.511   2.638  15.947  0.6795 -0.5698 -0.0623
    4DOPE  H10X  491   5.612   2.632  15.904  1.4449 -1.6761  1.7319
    4DOPE  C311  492   5.414   2.525  15.906 -0.5567  0.6286  0.3191
    4DOPE  H11X  493   5.408   2.432  15.967 -1.3496  1.5142  1.6301
    4DOPE  H11Y  494   5.314   2.572  15.904 -1.2187 -0.6554  1.6001
    4DOPE  C312  495   5.440   2.465  15.762 -0.2045  0.1790 -0.7376
    4DOPE  H12X  496   5.436   2.546  15.686  2.0601 -0.1242 -1.2792
    4DOPE  H12Y  497   5.360   2.390  15.748 -0.0446 -0.1788  0.1771
    4DOPE  C313  498   5.574   2.386  15.756  0.2108  0.1166  0.5920
    4DOPE  H13X  499   5.659   2.454  15.776 -0.9016  2.2162 -1.2924
    4DOPE  H13Y  500   5.573   2.320  15.845 -0.7190  1.3606  1.5511
    4DOPE  C314  501   5.590   2.298  15.628 -0.9360  0.1014  0.7560
    4DOPE  H14X  502   5.611   2.355  15.535 -0.6771  1.6998  1.7611
    4DOPE  H14Y  503   5.491   2.248  15.621 -0.2721 -1.0261 -1.4240
    4DOPE  C315  504   5.704   2.196  15.636  0.0554 -0.1245  0.1075
    4DOPE  H15X  505   5.710   2.147  15.735 -0.9775  1.2102  0.8521
    4DOPE  H15Y  506   5.797   2.257  15.627 -0.3545  1.2392  3.5484
    4DOPE  C316  507   5.692   2.089  15.530 -0.3875  0.0784  0.4551
    4DOPE  H16X  508   5.702   2.137  15.431 -2.3394 -0.8443 -0.2358
    4DOPE  H16Y  509   5.587   2.055  15.517 -0.1234 -0.5738  0.0173
    4DOPE  C317  510   5.779   1.968  15.553  0.0492 -0.1715 -0.4424
    4DOPE  H17X  511   5.748   1.909  15.642  2.7544 -1.4102 -0.2117
    4DOPE  H17Y  512   5.772   1.903  15.463 -1.0907 -0.3877 -0.2152
    4DOPE  C318  513   5.927   2.004  15.579  0.6034 -0.0057  0.0506
    4DOPE  H18X  514   5.976   1.918  15.629  0.1951 -0.5569 -0.4798
    4DOPE  H18Y  515   5.980   2.036  15.486  1.4922  0.4074  0.6881
    4DOPE  H18Z  516   5.936   2.090  15.648 -0.6451  0.5210 -0.4091
    5DOPE     N  517   1.342   6.108  17.489 -0.2504 -0.4128 -0.4294
    5DOPE   HN1  518   1.260   6.061  17.533  0.4002  0.0369  1.3491
    5DOPE   HN2  519   1.303   6.177  17.422  1.4941 -1.1062 -2.2462
    5DOPE   HN3  520   1.397   6.037  17.436 -1.2882 -1.2583 -0.4094
    5DOPE   C12  521   1.424   6.163  17.604 -0.5782 -0.3172 -0.8447
    5DOPE  H12A  522   1.362   6.212  17.682  1.3351  0.0496  0.5178
    5DOPE  H12B  523   1.489   6.246  17.567 -0.7686  0.2750  0.1213
    5DOPE   C11  524   1.506   6.048  17.662  0.6446  0.3781  0.1316
    5DOPE  H11A  525   1.443   5.973  17.715 -0.4617 -0.9496 -2.8802
    5DOPE  H11B  526   1.570   6.090  17.743  1.5138 -1.7696  0.6343
    5DOPE     P  527   1.712   5.894  17.583  0.4021  0.3765 -0.0610
    5DOPE   O13  528   1.661   5.757  17.618 -0.1012 -0.1723  0.0780
    5DOPE   O14  529   1.795   5.964  17.680 -0.1133 -0.4357 -0.5746
    5DOPE   O11  530   1.787   5.898  17.442  1.1328  0.6827 -0.1819
    5DOPE   O12  531   1.580   5.979  17.555  0.0182 -0.1652 -0.4431
    5DOPE    C1  532   1.784   6.010  17.360  0.5200 -0.8373  0.5997
    5DOPE    HA  533   1.845   6.090  17.409 -1.6638  1.0041  0.4712
    5DOPE    HB  534   1.685   6.060  17.356  0.1039 -1.7189 -0.4968
    5DOPE    C2  535   1.832   5.979  17.213 -0.3714 -0.1347 -0.5424
    5DOPE    HS  536   1.847   6.079  17.168  1.2956  0.4828  1.2373
    5DOPE   O21  537   1.737   5.889  17.147  0.4288 -0.1616  0.0301
    5DOPE   C21  538   1.638   5.949  17.086  0.0714 -0.3106 -0.2894
    5DOPE   O22  539   1.612   6.068  17.108  0.4408 -0.3716  0.2238
    5DOPE   C22  540   1.564   5.848  16.996  0.1746  0.5730  0.1498
    5DOPE   H2R  541   1.460   5.882  17.015 -1.0205 -2.0927 -1.1968
    5DOPE   H2S  542   1.571   5.745  17.036  0.3209 -0.0520 -1.4118
    5DOPE    C3  543   1.969   5.911  17.212 -0.1447  0.3956 -0.1237
    5DOPE    HX  544   1.968   5.820  17.275  0.5837  0.3772 -0.1302
    5DOPE    HY  545   2.033   5.986  17.263 -0.6769  0.6088  0.2464
    5DOPE   O31  546   2.010   5.877  17.078  0.7269 -0.9168  0.3133
    5DOPE   C31  547   2.097   5.961  17.013  0.0140 -0.1892 -0.6963
    5DOPE   O32  548   2.130   6.066  17.062  0.6902 -0.3168  0.5115
    5DOPE   C32  549   2.133   5.914  16.876 -0.8627 -0.3222  0.5819
    5DOPE   H2X  550   2.220   5.844  16.880  1.2538  2.2026  1.4072
    5DOPE   H2Y  551   2.055   5.863  16.816  1.6930 -2.0334 -1.5322
    5DOPE   C23  552   1.603   5.869  16.846 -0.4171 -0.0803  0.4217
    5DOPE   H3R  553   1.624   5.977  16.832  1.0651 -0.6551 -2.7613
    5DOPE   H3S  554   1.521   5.824  16.786 -0.9439  0.6244  0.5961
    5DOPE   C24  555   1.734   5.793  16.812 -0.2564 -0.1165 -0.1169
    5DOPE   H4R  556   1.709   5.688  16.839 -0.8014  0.2437  0.7960
    5DOPE   H4S  557   1.820   5.819  16.877 -0.3239 -0.0937 -0.0379
    5DOPE   C25  558   1.789   5.799  16.672 -0.0606  0.0876 -0.4779
    5DOPE   H5R  559   1.835   5.898  16.648 -2.6954  1.0585 -2.0318
    5DOPE   H5S  560   1.703   5.784  16.602  0.7407 -1.5555 -1.1458
    5DOPE   C26  561   1.886   5.685  16.635 -0.5036 -0.6341  0.2300
    5DOPE   H6R  562   1.847   5.601  16.696 -1.3661 -0.1544  0.3448
    5DOPE   H6S  563   1.991   5.688  16.672 -0.7849  0.0819  0.9923
    5DOPE   C27  564   1.896   5.654  16.484 -0.3263  0.1702 -0.0735
    5DOPE   H7R  565   1.946   5.745  16.446 -1.9301  1.4197  0.6446
    5DOPE   H7S  566   1.795   5.651  16.438  0.4428  1.0286 -1.9127
    5DOPE   C28  567   1.965   5.514  16.452  0.3867 -0.1023  0.3749
    5DOPE   H8R  568   1.949   5.500  16.343  1.3652 -0.6655  0.2917
    5DOPE   H8S  569   1.896   5.441  16.498  0.6612 -2.1276 -2.2015
    5DOPE   C29  570   2.105   5.501  16.503 -0.5427  0.2934  0.1516
    5DOPE   H9R  571   2.112   5.509  16.613 -0.5939 -2.1769  0.4005
    5DOPE  C210  572   2.210   5.500  16.421 -0.2338 -0.8241 -0.2939
    5DOPE  H10R  573   2.309   5.477  16.465  0.3221 -0.1752 -1.1629
    5DOPE  C211  574   2.208   5.499  16.269  0.1242  0.2513 -0.2227
    5DOPE  H11R  575   2.183   5.602  16.237 -0.9455  1.2268  3.2998
    5DOPE  H11S  576   2.132   5.432  16.222 -1.3285  1.5726  0.1731
    5DOPE  C212  577   2.340   5.454  16.215  0.0027 -0.6073 -0.1564
    5DOPE  H12R  578   2.360   5.348  16.238  0.8136 -0.5189 -0.4310
    5DOPE  H12S  579   2.415   5.525  16.258 -1.6802  1.5990 -0.6733
    5DOPE  C213  580   2.348   5.470  16.065 -0.0724  0.1186 -0.7935
    5DOPE  H13R  581   2.286   5.562  16.049 -3.1068 -1.1334  2.4213
    5DOPE  H13S  582   2.304   5.384  16.010 -0.9604  1.5576 -2.4723
    5DOPE  C214  583   2.490   5.492  16.012 -0.1732  0.3240 -0.3007
    5DOPE  H14R  584   2.560   5.407  16.030  3.5211  2.8617 -1.3979
    5DOPE  H14S  585   2.543   5.566  16.076  2.4032 -2.2143  0.7860
    5DOPE  C215  586   2.519   5.526  15.863  0.7568 -0.1075 -0.3383
    5DOPE  H15R  587   2.628   5.541  15.847  0.6856  2.5048  0.9275
    5DOPE  H15S  588   2.471   5.625  15.848 -2.4963 -1.2390  1.5729
    5DOPE  C216  589   2.448   5.420  15.778  0.6569  0.0669  0.9136
    5DOPE  H16R  590   2.338   5.419  15.798  0.6658 -0.4798  0.9429
    5DOPE  H16S  591   2.496   5.322  15.793 -1.5732 -1.3063 -0.3993
    5DOPE  C217  592   2.467   5.453  15.628 -0.4396  0.2084 -0.1522
    5DOPE  H17R  593   2.497   5.362  15.573 -1.8867  0.0755 -0.7548
    5DOPE  H17S  594   2.557   5.517  15.620  0.8789 -1.6578 -0.9039
    5DOPE  C218  595   2.345   5.502  15.559  0.1183 -0.7711  0.0136
    5DOPE  H18R  596   2.296   5.581  15.620 -0.1814 -0.5814 -0.4735
    5DOPE  H18S  597   2.278   5.413  15.560 -0.9987 -0.1233 -3.2876
    5DOPE  H18T  598   2.369   5.535  15.456 -0.2309 -0.6283 -0.0242
    5DOPE   C33  599   2.177   6.035  16.788  0.1219 -0.0387 -0.4050
    5DOPE   H3X  600   2.277   6.078  16.808 -0.4352  1.0750  0.0557
    5DOPE   H3Y  601   2.102   6.113  16.814 -0.0295 -0.9262  2.1647
    5DOPE   C34  602   2.170   6.002  16.638 -0.1403  0.2362  0.1997
    5DOPE   H4X  603   2.064   5.978  16.614 -0.1046 -0.4993  0.7233
    5DOPE   H4Y  604   2.202   6.088  16.575  1.1110 -1.0532 -1.0107
    5DOPE   C35  605   2.262   5.888  16.598  0.0253 -0.1665 -0.2243
    5DOPE   H5X  606   2.227   5.783  16.600  0.4270 -0.3207 -1.0944
    5DOPE   H5Y  607   2.348   5.905  16.667 -0.9201  0.9273  0.7310
    5DOPE   C36  608   2.342   5.903  16.470  0.5085 -0.4085  0.3332
    5DOPE   H6X  609   2.411   5.816  16.467  0.2191 -0.6221 -0.2510
    5DOPE   H6Y  610   2.398   5.998  16.464 -1.0289  0.4191 -2.6520
    5DOPE   C37  611   2.265   5.901  16.335  0.1612 -0.1686 -0.0961
    5DOPE   H7X  612   2.192   5.818  16.339 -0.5399  0.4779  1.7185
    5DOPE   H7Y  613   2.201   5.991  16.330 -1.7569 -1.4881 -0.3965
    5DOPE   C38  614   2.361   5.881  16.219 -0.3930  0.3601  0.3759
    5DOPE   H8X  615   2.314   5.846  16.125 -0.4978  0.9369  0.2074
    5DOPE   H8Y  616   2.445   5.812  16.242 -0.8699 -1.1148 -1.9987
    5DOPE   C39  617   2.421   6.018  16.184 -0.0717 -0.7114  0.3799
    5DOPE   H9X  618   2.372   6.106  16.230  0.4367 -1.2846  2.0997
    5DOPE  C310  619   2.535   6.039  16.116  0.1253  0.3049 -0.5116
    5DOPE  H10X  620   2.570   6.142  16.100 -1.7716  1.0090 -0.4276
    5DOPE  C311  621   2.623   5.929  16.069  0.0145  0.2447  0.4602
    5DOPE  H11X  622   2.656   5.865  16.154 -0.1474 -0.2351  0.1676
    5DOPE  H11Y  623   2.576   5.862  15.993 -0.6671  1.5173 -0.2660
    5DOPE  C312  624   2.750   5.985  16.001 -0.3184  0.0805 -0.0701
    5DOPE  H12X  625   2.834   5.914  15.988 -0.2533 -0.2123  1.7200
    5DOPE  H12Y  626   2.797   6.068  16.060  0.2952  0.9457 -1.7105
    5DOPE  C313  627   2.726   6.048  15.861 -0.2283  0.0278 -0.9258
    5DOPE  H13X  628   2.638   6.116  15.864 -0.4746 -0.3200  0.3731
    5DOPE  H13Y  629   2.821   6.100  15.835  0.8197 -1.2284  0.2168
    5DOPE  C314  630   2.692   5.947  15.754 -0.2913  0.1194 -0.3872
    5DOPE  H14X  631   2.718   5.846  15.794  2.6432  0.6299 -0.8028
    5DOPE  H14Y  632   2.760   5.966  15.669  0.8664  1.7366  0.8322
    5DOPE  C315  633   2.552   5.945  15.706  0.2259 -0.1329  0.4180
    5DOPE  H15X  634   2.521   6.045  15.668 -0.3329 -0.1103  0.9222
    5DOPE  H15Y  635   2.481   5.935  15.791  0.5084 -1.0633  0.5614
    5DOPE  C316  636   2.524   5.842  15.601 -0.2375  0.3438 -0.7320
    5DOPE  H16X  637   2.415   5.824  15.588 -0.5173 -0.2041  1.8154
    5DOPE  H16Y  638   2.575   5.748  15.632 -0.8691  0.6113  1.2200
    5DOPE  C317  639   2.569   5.890  15.461  0.1355 -0.8287 -0.8391
    5DOPE  H17X  640   2.566   6.000  15.447 -0.3901  0.1904  4.9276
    5DOPE  H17Y  641   2.672   5.850  15.454  0.4293  0.1532 -3.0728
    5DOPE  C318  642   2.473   5.828  15.357 -0.1109 -0.1704  0.1246
    5DOPE  H18X  643   2.370   5.867  15.370  0.3591  0.4286  2.5836
    5DOPE  H18Y  644   2.515   5.858  15.259  1.9491 -1.2805  0.5963
    5DOPE  H18Z  645   2.482   5.717  15.362  0.4603 -0.1758 -0.7211
    6DOPE     N  646   0.641   7.117  17.215  1.0984 -0.4006  0.7622
    6DOPE   HN1  647   0.605   7.212  17.193  0.9562  0.1381  3.0352
    6DOPE   HN2  648   0.676   7.066  17.132 -1.3291 -1.0528  0.0900
    6DOPE   HN3  649   0.576   7.055  17.268  1.4830 -0.7122  0.8771
    6DOPE   C12  650   0.747   7.147  17.323 -0.0711  0.3933 -0.3820
    6DOPE  H12A  651   0.768   7.055  17.382 -0.4503  1.6032  1.7296
    6DOPE  H12B  652   0.701   7.221  17.391 -0.5925 -0.6043  0.3782
    6DOPE   C11  653   0.876   7.211  17.258  0.0539 -0.5821  0.1008
    6DOPE  H11A  654   0.940   7.256  17.336  0.0318 -1.2731  0.5228
    6DOPE  H11B  655   0.846   7.295  17.192  0.8158 -0.5939 -0.2674
    6DOPE     P  656   0.991   6.971  17.209 -0.1742 -0.0768 -0.0463
    6DOPE   O13  657   0.884   6.871  17.212  0.6761 -0.5907  0.8736
    6DOPE   O14  658   1.056   6.997  17.336  0.3635 -0.0645 -0.3031
    6DOPE   O11  659   1.101   6.928  17.100  0.1051 -0.2249  0.1504
    6DOPE   O12  660   0.941   7.119  17.167  0.8089  0.3691 -0.2243
    6DOPE    C1  661   1.165   7.024  17.017 -0.6866  0.0391  0.8175
    6DOPE    HA  662   1.220   7.098  17.080  1.6078  0.6000 -1.6762
    6DOPE    HB  663   1.086   7.075  16.957  0.3710 -0.9513 -1.5243
    6DOPE    C2  664   1.271   6.957  16.928  0.5812  0.2023 -0.7132
    6DOPE    HS  665   1.343   7.029  16.885  1.0741  0.9636  1.2790
    6DOPE   O21  666   1.213   6.876  16.829  0.2065  0.0789 -0.0864
    6DOPE   C21  667   1.168   6.947  16.726 -0.0072 -0.1003 -0.1936
    6DOPE   O22  668   1.175   7.071  16.719 -0.0295 -0.1049  0.4407
    6DOPE   C22  669   1.104   6.851  16.617 -0.2002 -0.0045 -0.9182
    6DOPE   H2R  670   1.005   6.811  16.649  0.1538 -1.6253 -1.7155
    6DOPE   H2S  671   1.173   6.765  16.608 -1.3885 -1.3133  1.6178
    6DOPE    C3  672   1.358   6.857  17.016 -0.9700  0.2733  0.0154
    6DOPE    HX  673   1.286   6.777  17.042 -0.7032 -0.1694 -0.6034
    6DOPE    HY  674   1.377   6.908  17.113  0.1878  1.0243 -0.5768
    6DOPE   O31  675   1.481   6.796  16.958 -0.4356 -0.6047 -0.7321
    6DOPE   C31  676   1.518   6.681  17.012  0.6613 -0.0533 -0.4558
    6DOPE   O32  677   1.454   6.620  17.098 -0.4674 -0.3522  0.2230
    6DOPE   C32  678   1.659   6.648  16.957 -0.2704 -0.4336  0.4639
    6DOPE   H2X  679   1.658   6.661  16.846  2.1110  0.2917  0.4737
    6DOPE   H2Y  680   1.737   6.715  16.998  0.8187 -1.4627  0.1590
    6DOPE   C23  681   1.089   6.915  16.481  0.0922  0.1610 -0.0803
    6DOPE   H3R  682   1.185   6.960  16.447 -1.4390  1.2884 -3.3894
    6DOPE   H3S  683   1.016   6.998  16.493 -1.8385 -1.6022  0.8568
    6DOPE   C24  684   1.037   6.816  16.373  0.7845 -0.3899  0.1530
    6DOPE   H4R  685   0.950   6.766  16.421  0.8807 -1.0730 -0.3697
    6DOPE   H4S  686   1.118   6.746  16.344  1.9632  1.4975 -1.4261
    6DOPE   C25  687   0.989   6.893  16.245 -0.0168  0.0946  0.4338
    6DOPE   H5R  688   1.074   6.953  16.205 -1.7522  1.2181 -1.8134
    6DOPE   H5S  689   0.906   6.963  16.269  0.7093  1.5219 -1.0554
    6DOPE   C26  690   0.945   6.795  16.135  0.1316 -0.6016 -0.2253
    6DOPE   H6R  691   0.866   6.728  16.175 -0.8136  0.0914 -0.8765
    6DOPE   H6S  692   1.027   6.730  16.098 -0.7123 -0.9559 -1.5287
    6DOPE   C27  693   0.893   6.860  16.010  0.1621 -0.2872  0.9809
    6DOPE   H7R  694   0.962   6.943  15.986  0.6578 -1.1594 -0.7817
    6DOPE   H7S  695   0.796   6.904  16.041 -1.0511 -2.0792 -0.0581
    6DOPE   C28  696   0.884   6.763  15.889 -0.1450  0.1670 -0.6722
    6DOPE   H8R  697   0.830   6.671  15.920  1.9302 -0.3801  1.5839
    6DOPE   H8S  698   0.983   6.721  15.861  0.6718  2.2498 -1.0784
    6DOPE   C29  699   0.812   6.823  15.774 -0.3096 -0.0817  0.8831
    6DOPE   H9R  700   0.704   6.801  15.771 -0.3968  0.3917 -1.1700
    6DOPE  C210  701   0.862   6.899  15.673  0.1964 -0.2172 -0.4038
    6DOPE  H10R  702   0.802   6.941  15.591  1.2142  0.6014 -0.7524
    6DOPE  C211  703   1.006   6.944  15.661 -0.4327  0.7050  0.0789
    6DOPE  H11R  704   1.067   6.904  15.744 -0.5430 -0.5070 -0.3972
    6DOPE  H11S  705   1.010   7.055  15.671  0.9633  0.7692 -0.8895
    6DOPE  C212  706   1.074   6.912  15.528 -0.1724 -0.1535 -0.1110
    6DOPE  H12R  707   1.052   6.804  15.513 -1.1488 -0.2105  1.5323
    6DOPE  H12S  708   1.184   6.925  15.526 -0.3190  1.2171 -0.3101
    6DOPE  C213  709   1.010   6.990  15.414  0.1005 -0.9185 -0.2151
    6DOPE  H13R  710   0.996   7.098  15.431 -3.1008 -1.1345 -0.9540
    6DOPE  H13S  711   0.905   6.961  15.395 -1.0888  1.4190  2.1804
    6DOPE  C214  712   1.080   6.966  15.280  0.5219  0.5805  0.1579
    6DOPE  H14R  713   1.058   6.866  15.237 -1.1881  1.8654 -2.1366
    6DOPE  H14S  714   1.189   6.970  15.298  0.4761  1.3453  0.2914
    6DOPE  C215  715   1.060   7.080  15.174  0.3848  0.2715  0.1276
    6DOPE  H15R  716   1.095   7.174  15.222  2.5186 -0.0441 -0.7198
    6DOPE  H15S  717   0.954   7.092  15.143  1.6077 -0.3242 -5.3223
    6DOPE  C216  718   1.144   7.066  15.044  0.0164  0.9677 -0.4489
    6DOPE  H16R  719   1.250   7.074  15.074 -0.7665  2.2790  2.3239
    6DOPE  H16S  720   1.123   7.148  14.972 -0.7434  0.2572 -1.0714
    6DOPE  C217  721   1.114   6.931  14.978  0.5305  0.2310  0.5582
    6DOPE  H17R  722   1.005   6.915  14.964  0.6908  0.3200 -0.8788
    6DOPE  H17S  723   1.151   6.849  15.044 -1.0204  0.1840  1.4088
    6DOPE  C218  724   1.192   6.902  14.847  0.1232  0.3967 -0.7278
    6DOPE  H18R  725   1.164   6.796  14.828  0.7859  0.2393 -0.8554
    6DOPE  H18S  726   1.299   6.911  14.876  0.0579  2.8035 -1.0118
    6DOPE  H18T  727   1.173   6.981  14.771 -0.8053  1.5491  0.6483
    6DOPE   C33  728   1.705   6.508  17.006 -0.6246  0.5855 -0.0850
    6DOPE   H3X  729   1.645   6.430  16.955 -2.9789  1.5673  1.0174
    6DOPE   H3Y  730   1.683   6.490  17.114 -0.4407 -0.5305 -0.2291
    6DOPE   C34  731   1.847   6.475  16.969  0.7983 -0.2413 -0.4594
    6DOPE   H4X  732   1.914   6.544  17.024  1.2007 -1.2197  0.3186
    6DOPE   H4Y  733   1.854   6.371  17.007 -0.0060 -0.0406  0.2648
    6DOPE   C35  734   1.875   6.474  16.821  0.4812  0.1548  0.4986
    6DOPE   H5X  735   1.834   6.562  16.768  0.9603  0.9329  1.3945
    6DOPE   H5Y  736   1.824   6.387  16.775 -2.2516  1.7363  0.3647
    6DOPE   C36  737   2.024   6.473  16.793  0.1460 -0.0395  0.2735
    6DOPE   H6X  738   2.060   6.382  16.846  2.0985  1.2580  1.3372
    6DOPE   H6Y  739   2.074   6.568  16.822 -1.3233  0.7390  0.3450
    6DOPE   C37  740   2.052   6.461  16.647  0.2755 -0.5136 -0.6413
    6DOPE   H7X  741   1.981   6.381  16.615 -1.9876  0.3266  1.8632
    6DOPE   H7Y  742   2.024   6.550  16.587 -1.7746 -0.7508 -0.1097
    6DOPE   C38  743   2.199   6.411  16.620  0.3989 -0.0482 -0.1634
    6DOPE   H8X  744   2.203   6.307  16.660  0.1806 -0.1259 -0.3433
    6DOPE   H8Y  745   2.269   6.474  16.679 -0.3346 -0.6969  1.4677
    6DOPE   C39  746   2.228   6.382  16.476 -0.1344  0.1977  0.5722
    6DOPE   H9X  747   2.141   6.372  16.409  1.3475 -1.3937 -1.2171
    6DOPE  C310  748   2.350   6.379  16.416  1.3755  0.4024  0.5947
    6DOPE  H10X  749   2.351   6.332  16.316 -0.7664  0.9933  0.2298
    6DOPE  C311  750   2.482   6.400  16.483 -0.3054  0.2273 -0.3047
    6DOPE  H11X  751   2.467   6.442  16.585 -2.0505 -0.9599 -0.0455
    6DOPE  H11Y  752   2.526   6.298  16.485 -1.0551 -0.1914 -2.4236
    6DOPE  C312  753   2.574   6.502  16.403 -0.4091  0.2477 -0.6229
    6DOPE  H12X  754   2.675   6.506  16.449 -0.6951 -0.4763  0.0877
    6DOPE  H12Y  755   2.525   6.598  16.432  0.2781 -0.6003  4.2766
    6DOPE  C313  756   2.601   6.465  16.256 -0.5622  0.5341  0.5015
    6DOPE  H13X  757   2.645   6.363  16.258 -0.7200  0.4238 -0.9955
    6DOPE  H13Y  758   2.505   6.460  16.200  0.2450 -0.0122 -0.8744
    6DOPE  C314  759   2.695   6.556  16.169 -0.3901  0.4701  0.6149
    6DOPE  H14X  760   2.798   6.529  16.200 -0.4694  0.6618  1.0531
    6DOPE  H14Y  761   2.686   6.666  16.167  0.0345  0.4951 -0.1435
    6DOPE  C315  762   2.695   6.515  16.022 -0.2532  0.5752  0.2379
    6DOPE  H15X  763   2.595   6.495  15.977 -0.8216 -0.3504  1.8195
    6DOPE  H15Y  764   2.751   6.420  16.010 -0.2103  0.6303 -0.0127
    6DOPE  C316  765   2.758   6.622  15.929 -0.1273  0.2059 -0.2182
    6DOPE  H16X  766   2.711   6.722  15.919  1.3744  0.8036 -1.8178
    6DOPE  H16Y  767   2.749   6.583  15.826  0.7487  0.6040 -0.4578
    6DOPE  C317  768   2.908   6.639  15.944  0.0005  0.1734  0.6040
    6DOPE  H17X  769   2.936   6.668  16.048  0.7941 -1.2445  0.8169
    6DOPE  H17Y  770   2.953   6.538  15.940  2.0935  1.0923 -0.5157
    6DOPE  C318  771   2.968   6.726  15.834 -0.6676  0.6292 -0.0503
    6DOPE  H18X  772   2.897   6.795  15.783 -1.6959  0.7081  1.4106
    6DOPE  H18Y  773   3.052   6.790  15.868  0.4950  1.3178 -3.7850
    6DOPE  H18Z  774   3.013   6.669  15.750 -0.4975 -0.0304  0.4846
    7DOPE     N  775   4.909   5.814  17.142  0.1137  0.4862 -0.1575
    7DOPE   HN1  776   4.883   5.870  17.226 -3.7589 -0.2557 -0.7121
    7DOPE   HN2  777   4.962   5.729  17.171  0.8852  0.4408 -1.6152
    7DOPE   HN3  778   4.971   5.878  17.088  0.8937  1.3766  1.6613
    7DOPE   C12  779   4.784   5.779  17.072  0.4842  0.4758  0.4176
    7DOPE  H12A  780   4.715   5.737  17.148  0.6842 -0.9338 -0.1448
    7DOPE  H12B  781   4.793   5.711  16.984 -1.0580  2.0700 -1.0531
    7DOPE   C11  782   4.727   5.913  17.012 -0.4509 -0.2187  0.5697
    7DOPE  H11A  783   4.633   5.883  16.962 -0.3023  0.5146 -0.1696
    7DOPE  H11B  784   4.797   5.970  16.947 -0.7407 -0.0987  0.3636
    7DOPE     P  785   4.571   6.041  17.196 -0.3258 -0.1543  0.0949
    7DOPE   O13  786   4.589   6.162  17.277 -0.3023  0.1516  0.0739
    7DOPE   O14  787   4.515   5.922  17.266 -0.1426  0.4620  0.3739
    7DOPE   O11  788   4.465   6.091  17.086  0.7676  0.6694  0.0458
    7DOPE   O12  789   4.705   5.994  17.129  0.1666  0.7666  1.0620
    7DOPE    C1  790   4.496   6.162  16.971  0.2882  0.3859  0.3630
    7DOPE    HA  791   4.428   6.125  16.891 -0.2832  0.4366  0.8179
    7DOPE    HB  792   4.594   6.139  16.925  0.6773  0.0151  1.3535
    7DOPE    C2  793   4.483   6.313  16.984 -0.2075 -0.4243 -0.1301
    7DOPE    HS  794   4.480   6.336  17.093  0.4422  0.0087 -0.1953
    7DOPE   O21  795   4.359   6.347  16.917 -0.2085  0.3478  0.1213
    7DOPE   C21  796   4.308   6.469  16.947 -0.2215 -0.2960  0.3679
    7DOPE   O22  797   4.371   6.557  17.005 -0.4312 -0.5685  0.0465
    7DOPE   C22  798   4.168   6.483  16.887  0.1276 -0.4723 -0.2286
    7DOPE   H2R  799   4.106   6.521  16.971 -0.0329  2.0215 -1.3640
    7DOPE   H2S  800   4.126   6.385  16.855 -0.4964 -0.8013  1.5145
    7DOPE    C3  801   4.604   6.392  16.925  0.2080 -0.2270  0.0643
    7DOPE    HX  802   4.696   6.364  16.981 -0.6983 -0.8663  1.2647
    7DOPE    HY  803   4.587   6.502  16.927  1.8600  0.0922 -0.9089
    7DOPE   O31  804   4.610   6.353  16.784 -0.5076 -0.2244  0.0055
    7DOPE   C31  805   4.688   6.432  16.707  0.0221  0.4625 -0.1752
    7DOPE   O32  806   4.746   6.534  16.740  0.0099 -0.2181  0.0337
    7DOPE   C32  807   4.685   6.376  16.563  0.6028  0.2357 -0.9906
    7DOPE   H2X  808   4.756   6.290  16.563 -0.3674 -0.6141  0.5900
    7DOPE   H2Y  809   4.588   6.331  16.531  1.8458 -1.8160 -2.1544
    7DOPE   C23  810   4.165   6.575  16.763  0.0200  0.0550  0.5351
    7DOPE   H3R  811   4.226   6.665  16.784  1.7413 -1.0684  0.4845
    7DOPE   H3S  812   4.061   6.605  16.737 -0.0626  0.3685  1.2084
    7DOPE   C24  813   4.231   6.514  16.632 -0.3120  0.7274 -0.3883
    7DOPE   H4R  814   4.156   6.455  16.575  0.5989 -1.0301  0.1597
    7DOPE   H4S  815   4.316   6.445  16.650  0.4286  1.1598 -2.0104
    7DOPE   C25  816   4.293   6.622  16.544 -0.3659 -0.0734  1.0271
    7DOPE   H5R  817   4.383   6.670  16.589  0.7776 -0.7961 -0.4241
    7DOPE   H5S  818   4.221   6.706  16.528  1.0713  0.7460 -1.7254
    7DOPE   C26  819   4.332   6.570  16.404  0.0414 -0.2482  0.0014
    7DOPE   H6R  820   4.245   6.515  16.363 -0.4908 -0.4465  1.3492
    7DOPE   H6S  821   4.415   6.496  16.402  0.1734 -0.0910 -0.5999
    7DOPE   C27  822   4.368   6.686  16.307  0.3454 -0.0865 -0.6696
    7DOPE   H7R  823   4.462   6.733  16.343 -1.5224  2.1422  1.6831
    7DOPE   H7S  824   4.288   6.763  16.315 -1.0616 -1.6616  2.4456
    7DOPE   C28  825   4.378   6.629  16.161 -0.3707  0.1174  0.2542
    7DOPE   H8R  826   4.292   6.570  16.123 -1.0267  1.1914  0.0238
    7DOPE   H8S  827   4.458   6.554  16.179 -0.9488 -0.7242 -0.5812
    7DOPE   C29  828   4.433   6.717  16.057 -0.5976  0.0691  0.2195
    7DOPE   H9R  829   4.402   6.822  16.072 -0.7923  0.3262 -1.7780
    7DOPE  C210  830   4.512   6.682  15.953  0.2125 -0.0958 -0.3040
    7DOPE  H10R  831   4.556   6.758  15.887  0.6191 -0.5088 -0.5100
    7DOPE  C211  832   4.562   6.541  15.927  0.4277 -0.0408  0.2510
    7DOPE  H11R  833   4.535   6.461  15.999 -0.3011  0.2966  0.3573
    7DOPE  H11S  834   4.671   6.549  15.948  1.0447  4.1615 -3.2320
    7DOPE  C212  835   4.555   6.506  15.778 -0.4698 -0.1240 -0.5123
    7DOPE  H12R  836   4.650   6.498  15.721 -1.4061  0.9208 -2.3094
    7DOPE  H12S  837   4.514   6.587  15.714 -1.2620 -0.4289 -0.4033
    7DOPE  C213  838   4.466   6.387  15.750 -0.2450 -0.3589 -0.3654
    7DOPE  H13R  839   4.515   6.303  15.804 -1.1217 -0.6670 -0.0321
    7DOPE  H13S  840   4.466   6.368  15.641 -5.7264  0.3486 -0.7540
    7DOPE  C214  841   4.319   6.403  15.793  0.6928 -0.7672 -0.3190
    7DOPE  H14R  842   4.278   6.497  15.751 -0.5448 -1.9387 -1.8840
    7DOPE  H14S  843   4.314   6.418  15.903 -0.1102  1.6057 -0.6249
    7DOPE  C215  844   4.234   6.286  15.731  0.4504  0.4065 -0.7442
    7DOPE  H15R  845   4.147   6.274  15.799  1.1617 -0.2455  0.0777
    7DOPE  H15S  846   4.291   6.191  15.744 -1.5965 -0.9883 -1.4197
    7DOPE  C216  847   4.191   6.313  15.587  0.1955 -0.4883 -0.1245
    7DOPE  H16R  848   4.220   6.417  15.559  1.9751 -0.2984  2.1255
    7DOPE  H16S  849   4.082   6.294  15.575  0.6734 -2.5262 -1.8531
    7DOPE  C217  850   4.259   6.210  15.496 -0.9006  0.5689  0.2018
    7DOPE  H17R  851   4.238   6.105  15.524  0.9955  0.4686  1.4187
    7DOPE  H17S  852   4.370   6.212  15.494 -0.6893 -3.5539 -0.9965
    7DOPE  C218  853   4.206   6.223  15.345 -0.8156 -0.2037  0.0843
    7DOPE  H18R  854   4.217   6.330  15.315 -0.8098  0.3015  1.7576
    7DOPE  H18S  855   4.100   6.191  15.335 -0.3488 -2.3152  1.2906
    7DOPE  H18T  856   4.261   6.158  15.274  0.5130  0.2005  0.7086
    7DOPE   C33  857   4.715   6.484  16.454  0.0857  0.1112 -0.0364
    7DOPE   H3X  858   4.808   6.539  16.481  0.3034  0.0753 -0.6927
    7DOPE   H3Y  859   4.641   6.564  16.476 -1.3058 -1.4968  1.3759
    7DOPE   C34  860   4.716   6.436  16.309  0.4467  1.1210  0.2891
    7DOPE   H4X  861   4.652   6.346  16.298  0.9441  0.7983  0.0135
    7DOPE   H4Y  862   4.667   6.507  16.239 -2.9917 -0.6975  0.5856
    7DOPE   C35  863   4.852   6.384  16.257 -0.1814 -0.5573  0.4163
    7DOPE   H5X  864   4.894   6.300  16.316  2.1249  0.7750  0.8212
    7DOPE   H5Y  865   4.928   6.464  16.268 -0.3714 -0.5083  1.4960
    7DOPE   C36  866   4.857   6.338  16.111  0.2955  0.0082 -0.1830
    7DOPE   H6X  867   4.920   6.413  16.059 -0.6825  2.2711  1.6989
    7DOPE   H6Y  868   4.751   6.341  16.076 -0.2563 -1.1288  1.3060
    7DOPE   C37  869   4.895   6.191  16.086 -1.1486  0.1474  0.0045
    7DOPE   H7X  870   4.887   6.158  15.980  0.3581 -1.6180  0.3853
    7DOPE   H7Y  871   5.002   6.182  16.116 -0.8878 -2.1365 -1.3173
    7DOPE   C38  872   4.835   6.067  16.167  0.1073  0.0628  0.4867
    7DOPE   H8X  873   4.775   6.106  16.252  0.0899  1.0220  0.0382
    7DOPE   H8Y  874   4.924   6.017  16.211 -0.2451  0.1090  1.2673
    7DOPE   C39  875   4.747   5.979  16.083  0.2029  0.1243  0.5101
    7DOPE   H9X  876   4.664   6.021  16.024  0.1868 -1.5311 -0.7370
    7DOPE  C310  877   4.770   5.844  16.072  0.0380 -0.3658  0.1024
    7DOPE  H10X  878   4.707   5.789  16.001 -0.2666  1.6687 -1.2982
    7DOPE  C311  879   4.886   5.762  16.141  0.6176  0.0244  0.9693
    7DOPE  H11X  880   4.926   5.801  16.237  0.9893  1.4868  0.2629
    7DOPE  H11Y  881   4.842   5.664  16.166 -1.2983  0.8941  1.1641
    7DOPE  C312  882   5.010   5.748  16.055  0.2714  0.1513 -0.3637
    7DOPE  H12X  883   5.086   5.693  16.115 -0.1272  0.9902  0.9518
    7DOPE  H12Y  884   5.051   5.847  16.025 -2.1954  2.1924  2.4484
    7DOPE  C313  885   4.976   5.673  15.925  0.9410  0.7266  0.4723
    7DOPE  H13X  886   4.947   5.567  15.936 -0.0469  0.9816  0.3831
    7DOPE  H13Y  887   4.896   5.723  15.867 -0.0753 -0.7380  0.5624
    7DOPE  C314  888   5.090   5.684  15.829  0.2198 -0.1617  0.1084
    7DOPE  H14X  889   5.123   5.789  15.813  2.0237 -0.6947  0.0554
    7DOPE  H14Y  890   5.057   5.655  15.727 -0.1026  3.0166 -0.7764
    7DOPE  C315  891   5.224   5.608  15.869 -0.2244  0.5340  0.7378
    7DOPE  H15X  892   5.190   5.502  15.871  0.0638  0.3718 -0.9026
    7DOPE  H15Y  893   5.273   5.655  15.956 -0.2769  0.5809  0.7415
    7DOPE  C316  894   5.309   5.608  15.742  1.1812  0.5472  0.5492
    7DOPE  H16X  895   5.260   5.565  15.652  2.2581 -2.5587  1.3289
    7DOPE  H16Y  896   5.381   5.526  15.763 -1.5093 -1.7526  1.4914
    7DOPE  C317  897   5.387   5.735  15.700  0.7773  0.6189  0.2723
    7DOPE  H17X  898   5.311   5.816  15.697 -0.1947 -0.2242  1.3014
    7DOPE  H17Y  899   5.462   5.751  15.780  0.6680  2.2802  0.0853
    7DOPE  C318  900   5.455   5.724  15.568 -0.1319 -0.9155  0.2995
    7DOPE  H18X  901   5.524   5.810  15.552 -2.2180  0.7570 -0.1472
    7DOPE  H18Y  902   5.517   5.633  15.555  1.1916 -0.1591  1.0658
    7DOPE  H18Z  903   5.386   5.718  15.481 -0.7597 -1.1070  0.8128
    8DOPE     N  904   3.682   6.147  17.413  0.0164  0.9462 -0.4677
    8DOPE   HN1  905   3.715   6.049  17.400  0.1543  0.9486 -0.1559
    8DOPE   HN2  906   3.747   6.182  17.486  2.4314 -2.2105 -0.8572
    8DOPE   HN3  907   3.587   6.147  17.454 -0.0560  2.2040 -0.6100
    8DOPE   C12  908   3.685   6.226  17.286 -1.0759  0.5202 -0.5927
    8DOPE  H12A  909   3.613   6.178  17.216  0.1802 -0.6631 -1.1251
    8DOPE  H12B  910   3.787   6.234  17.242  0.7670  2.2691  3.5243
    8DOPE   C11  911   3.628   6.362  17.330 -0.0948 -0.5854 -0.0170
    8DOPE  H11A  912   3.521   6.347  17.354 -0.7431 -0.1943 -2.4689
    8DOPE  H11B  913   3.623   6.435  17.246 -0.4918  0.6467  1.0468
    8DOPE     P  914   3.822   6.507  17.425  0.1453  0.1134 -0.2534
    8DOPE   O13  915   3.942   6.417  17.445  0.5597 -0.3655 -0.2036
    8DOPE   O14  916   3.805   6.619  17.515 -0.2511 -0.2975  0.6167
    8DOPE   O11  917   3.830   6.556  17.277 -0.3314 -0.1567  0.4563
    8DOPE   O12  918   3.699   6.413  17.443  0.6720  0.0351 -0.0977
    8DOPE    C1  919   3.787   6.685  17.242  0.1275 -0.5950 -0.2384
    8DOPE    HA  920   3.772   6.751  17.331 -0.3665 -0.0407 -0.7180
    8DOPE    HB  921   3.696   6.679  17.178 -0.1003  1.7883 -0.2296
    8DOPE    C2  922   3.906   6.757  17.165 -0.2012 -0.3138 -0.2048
    8DOPE    HS  923   3.874   6.863  17.165  0.3135 -0.1279 -1.7723
    8DOPE   O21  924   3.892   6.713  17.026 -0.4241 -0.0503 -0.7716
    8DOPE   C21  925   3.799   6.770  16.951 -0.5000  0.5993  0.4109
    8DOPE   O22  926   3.746   6.877  16.971  0.3645 -0.3482  0.4789
    8DOPE   C22  927   3.776   6.677  16.839 -0.8656  0.2225  0.6104
    8DOPE   H2R  928   3.670   6.647  16.827 -0.1417 -2.2405 -0.3598
    8DOPE   H2S  929   3.832   6.581  16.851 -3.4717 -1.6103 -0.7340
    8DOPE    C3  930   4.051   6.733  17.221  0.0221  0.2061  0.4897
    8DOPE    HX  931   4.074   6.627  17.197  0.6012  0.4910 -0.2589
    8DOPE    HY  932   4.065   6.745  17.331  0.7277 -1.6257  0.6343
    8DOPE   O31  933   4.144   6.812  17.148  0.6408 -0.4943 -0.3118
    8DOPE   C31  934   4.173   6.933  17.195 -0.4295  0.3286 -0.6432
    8DOPE   O32  935   4.119   6.981  17.293 -0.2527 -0.0499  0.1661
    8DOPE   C32  936   4.279   7.003  17.108  0.1934  0.1252  0.3951
    8DOPE   H2X  937   4.256   7.111  17.092  1.5261  0.1673 -1.5327
    8DOPE   H2Y  938   4.374   7.008  17.166 -0.0709  1.6684  0.7601
    8DOPE   C23  939   3.824   6.744  16.701 -0.2194  0.7934 -0.7495
    8DOPE   H3R  940   3.916   6.802  16.722 -1.3354  1.8313  1.6616
    8DOPE   H3S  941   3.744   6.819  16.682 -0.3444  0.9128  0.2303
    8DOPE   C24  942   3.846   6.662  16.575  0.3341 -0.2915 -0.6754
    8DOPE   H4R  943   3.759   6.617  16.523 -0.0680 -0.9933  0.5571
    8DOPE   H4S  944   3.908   6.576  16.608  1.0278 -0.0266 -1.2614
    8DOPE   C25  945   3.925   6.742  16.464  0.5848  1.1016  0.4113
    8DOPE   H5R  946   4.008   6.797  16.514 -0.2061  3.4303 -0.6742
    8DOPE   H5S  947   3.859   6.826  16.434 -1.4731  0.0593  1.7776
    8DOPE   C26  948   3.963   6.663  16.341 -0.4582 -0.3035 -0.2809
    8DOPE   H6R  949   3.994   6.564  16.381  1.4584 -0.5904 -2.3080
    8DOPE   H6S  950   4.053   6.689  16.282 -1.9996  0.3317 -2.4873
    8DOPE   C27  951   3.849   6.660  16.236  0.6447  0.1180  0.4943
    8DOPE   H7R  952   3.835   6.766  16.206  1.0806 -0.2046 -0.9203
    8DOPE   H7S  953   3.750   6.639  16.283  0.0304  0.0699 -0.7487
    8DOPE   C28  954   3.864   6.563  16.114 -0.9068 -0.1325  0.4894
    8DOPE   H8R  955   3.766   6.547  16.065 -2.4516  0.8495  3.0653
    8DOPE   H8S  956   3.877   6.467  16.169  0.9719  0.4162  1.0785
    8DOPE   C29  957   3.984   6.591  16.018  0.4777  0.4189  0.4186
    8DOPE   H9R  958   4.080   6.572  16.068  0.9997  0.1117 -0.6794
    8DOPE  C210  959   3.977   6.632  15.888 -0.2297  0.2081 -0.3329
    8DOPE  H10R  960   4.071   6.649  15.833 -0.4917  1.0183 -0.5498
    8DOPE  C211  961   3.851   6.673  15.817  0.2046  0.7534  0.5749
    8DOPE  H11R  962   3.870   6.769  15.765  2.3265  1.7021  2.8927
    8DOPE  H11S  963   3.767   6.685  15.888 -0.5891 -0.9159 -0.0205
    8DOPE  C212  964   3.819   6.584  15.699  0.1646 -0.6544 -0.5005
    8DOPE  H12R  965   3.725   6.628  15.659 -0.7982 -0.6119  1.6771
    8DOPE  H12S  966   3.796   6.477  15.716 -0.2504 -0.3406  1.0440
    8DOPE  C213  967   3.929   6.584  15.591 -0.1525  0.2016 -0.4610
    8DOPE  H13R  968   3.996   6.505  15.630  0.2699  0.6091 -0.3571
    8DOPE  H13S  969   3.981   6.680  15.569  0.3103 -0.5137 -2.8169
    8DOPE  C214  970   3.873   6.539  15.456  0.6477  0.0318 -0.2675
    8DOPE  H14R  971   3.792   6.606  15.419  0.7133 -1.2020 -2.8674
    8DOPE  H14S  972   3.820   6.441  15.464 -2.4597  1.7048  2.1170
    8DOPE  C215  973   3.968   6.548  15.341  0.4259  0.6295  0.6116
    8DOPE  H15R  974   4.068   6.512  15.372 -0.2141 -2.1802 -0.2904
    8DOPE  H15S  975   3.978   6.657  15.323 -2.3875  0.8130 -0.3550
    8DOPE  C216  976   3.928   6.470  15.215 -0.2819  0.0310  0.6386
    8DOPE  H16R  977   3.824   6.493  15.186  0.9390  3.2540 -1.7391
    8DOPE  H16S  978   3.933   6.362  15.243  0.3992 -0.1178 -0.0375
    8DOPE  C217  979   4.019   6.514  15.103  0.2750  0.4382 -0.3133
    8DOPE  H17R  980   4.119   6.483  15.140 -0.3350 -1.4312 -0.1154
    8DOPE  H17S  981   4.019   6.623  15.083 -0.3903  0.5524  0.2753
    8DOPE  C218  982   3.974   6.431  14.981 -0.4237  0.4036  0.0295
    8DOPE  H18R  983   4.052   6.434  14.902  1.1092 -2.1038  1.3454
    8DOPE  H18S  984   3.870   6.442  14.944 -0.1928 -1.5227 -1.3841
    8DOPE  H18T  985   3.971   6.325  15.013 -0.6061  0.4718  0.2414
    8DOPE   C33  986   4.306   6.929  16.971 -0.5339  0.7433 -0.3521
    8DOPE   H3X  987   4.221   6.953  16.903  2.5111  1.0155 -4.4847
    8DOPE   H3Y  988   4.313   6.820  16.989 -0.6390  0.7576 -0.2285
    8DOPE   C34  989   4.438   6.972  16.907  0.7056 -0.0127 -0.0840
    8DOPE   H4X  990   4.434   7.083  16.906 -0.4038 -0.0310 -0.8931
    8DOPE   H4Y  991   4.527   6.938  16.963  1.1893  0.0071 -0.8341
    8DOPE   C35  992   4.463   6.892  16.773  0.2709 -0.3194 -0.0569
    8DOPE   H5X  993   4.368   6.891  16.716  0.0874 -3.6210  0.1362
    8DOPE   H5Y  994   4.481   6.787  16.803  0.8291 -0.8695 -2.1525
    8DOPE   C36  995   4.579   6.947  16.703  0.2133  0.9171  0.4313
    8DOPE   H6X  996   4.671   6.939  16.765 -0.0444  0.3521  0.7517
    8DOPE   H6Y  997   4.565   7.054  16.677  1.1661  0.8926 -0.2320
    8DOPE   C37  998   4.599   6.863  16.581 -0.0238  0.0948  0.0450
    8DOPE   H7X  999   4.606   6.759  16.619  0.1055  0.8347  2.1955
    8DOPE   H7Y 1000   4.511   6.864  16.513 -0.4953  1.5718  0.6275
    8DOPE   C38 1001   4.727   6.887  16.493  0.1406  0.2924 -0.2433
    8DOPE   H8X 1002   4.736   6.789  16.440  2.9478  0.0516  0.5195
    8DOPE   H8Y 1003   4.804   6.882  16.573 -1.7742 -2.6373  1.6182
    8DOPE   C39 1004   4.726   7.007  16.401  0.0205 -0.1288 -0.3065
    8DOPE   H9X 1005   4.650   7.079  16.434  2.1346  2.8411 -1.4697
    8DOPE  C310 1006   4.793   7.026  16.284  0.8159  0.0878  0.4133
    8DOPE  H10X 1007   4.783   7.115  16.221 -0.0086 -1.1347 -1.2683
    8DOPE  C311 1008   4.891   6.923  16.227 -0.6525  0.0097  0.1508
    8DOPE  H11X 1009   4.991   6.972  16.223 -0.8630  0.4433  0.1450
    8DOPE  H11Y 1010   4.898   6.835  16.294  0.3144 -0.7782 -0.9316
    8DOPE  C312 1011   4.852   6.861  16.083 -0.1224 -0.4473 -0.4033
    8DOPE  H12X 1012   4.742   6.844  16.080 -0.0873 -0.6177 -0.7900
    8DOPE  H12Y 1013   4.895   6.759  16.082 -0.6714 -0.6930 -2.2842
    8DOPE  C313 1014   4.931   6.916  15.962 -0.1505  0.8044 -0.7747
    8DOPE  H13X 1015   4.906   7.024  15.951  0.0468  1.0839  1.1568
    8DOPE  H13Y 1016   5.039   6.899  15.980 -0.4238 -0.3809 -0.1317
    8DOPE  C314 1017   4.891   6.857  15.827  0.0521 -0.1138  0.1385
    8DOPE  H14X 1018   4.948   6.911  15.749 -1.5401 -0.0781 -1.0662
    8DOPE  H14Y 1019   4.787   6.887  15.801 -0.2132 -0.1412  1.1339
    8DOPE  C315 1020   4.914   6.709  15.816  0.4785 -0.0517  1.0798
    8DOPE  H15X 1021   4.862   6.657  15.899 -0.1377  0.5947  1.1098
    8DOPE  H15Y 1022   5.021   6.685  15.833  0.6925  0.1311  0.0882
    8DOPE  C316 1023   4.884   6.666  15.672 -0.2212 -0.0711  0.6642
    8DOPE  H16X 1024   4.913   6.751  15.606  0.0891 -0.4921  0.2575
    8DOPE  H16Y 1025   4.776   6.669  15.645  0.4225  2.9469 -2.2205
    8DOPE  C317 1026   4.957   6.539  15.644 -0.1147  0.2249  0.0991
    8DOPE  H17X 1027   5.067   6.558  15.644  0.0370 -0.5863  0.4933
    8DOPE  H17Y 1028   4.940   6.460  15.721 -1.3232  0.2900 -0.0905
    8DOPE  C318 1029   4.926   6.480  15.508 -0.3498 -0.0146 -0.9096
    8DOPE  H18X 1030   4.946   6.563  15.437  1.8693 -0.2155 -0.6078
    8DOPE  H18Y 1031   4.819   6.450  15.503 -0.3590 -0.4210  0.9089
    8DOPE  H18Z 1032   4.990   6.394  15.480  0.5913  1.1000 -2.2747
    9DOPE     N 1033   1.741   5.558  17.459 -0.6078  0.7442 -0.0861
    9DOPE   HN1 1034   1.699   5.625  17.527 -1.9704 -0.4870  0.3428
    9DOPE   HN2 1035   1.731   5.463  17.500  0.6867  0.7829  0.3722
    9DOPE   HN3 1036   1.843   5.572  17.448  0.0082 -2.6519  0.1597
    9DOPE   C12 1037   1.663   5.574  17.330  0.3180 -0.3387  0.5830
    9DOPE  H12A 1038   1.711   5.504  17.258 -0.2047 -1.6082  1.4320
    9DOPE  H12B 1039   1.670   5.681  17.302 -2.2345  0.0234  1.0654
    9DOPE   C11 1040   1.512   5.533  17.353  0.3071  0.8291 -0.7778
    9DOPE  H11A 1041   1.452   5.556  17.263  0.6077  1.2443 -0.8757
    9DOPE  H11B 1042   1.460   5.587  17.435 -0.1125  1.4651 -1.4603
    9DOPE     P 1043   1.482   5.290  17.294 -0.1596  0.1682  0.1486
    9DOPE   O13 1044   1.338   5.282  17.252  0.3008  0.5135 -0.6318
    9DOPE   O14 1045   1.547   5.169  17.349  0.0905 -0.2260 -0.1867
    9DOPE   O11 1046   1.582   5.345  17.183 -0.1216 -0.6581  0.0616
    9DOPE   O12 1047   1.499   5.394  17.396  0.1373  0.3366  0.3731
    9DOPE    C1 1048   1.570   5.291  17.052 -0.2010  0.4571  0.3233
    9DOPE    HA 1049   1.465   5.262  17.027 -0.0921  0.3754 -0.0368
    9DOPE    HB 1050   1.631   5.199  17.048 -1.5720 -0.4683 -0.1008
    9DOPE    C2 1051   1.606   5.392  16.939  0.1418 -0.0295 -0.0431
    9DOPE    HS 1052   1.627   5.337  16.845  0.8101  0.8137 -0.4001
    9DOPE   O21 1053   1.719   5.485  16.969 -0.3009  0.7086 -0.2238
    9DOPE   C21 1054   1.830   5.415  16.999  1.1358  0.1248 -0.1164
    9DOPE   O22 1055   1.852   5.297  16.975  0.1968 -0.2368 -0.3614
    9DOPE   C22 1056   1.926   5.515  17.069  0.6602  0.7632 -0.8308
    9DOPE   H2R 1057   1.981   5.464  17.151  3.2426  1.3431 -2.0789
    9DOPE   H2S 1058   1.869   5.598  17.116 -0.5932 -0.6993  0.3228
    9DOPE    C3 1059   1.485   5.487  16.906 -0.4846  0.5664 -0.2881
    9DOPE    HX 1060   1.521   5.553  16.824  0.2646 -0.1847 -0.5741
    9DOPE    HY 1061   1.462   5.542  16.999 -1.1712 -1.6262  0.9108
    9DOPE   O31 1062   1.376   5.409  16.869  0.2853  0.0962  0.5322
    9DOPE   C31 1063   1.260   5.471  16.853 -0.1383 -0.3691  0.0685
    9DOPE   O32 1064   1.239   5.590  16.882 -0.3118  0.2528  0.3790
    9DOPE   C32 1065   1.159   5.378  16.788  0.2219 -0.2306 -0.0281
    9DOPE   H2X 1066   1.115   5.335  16.881  3.1520 -0.7161  1.2674
    9DOPE   H2Y 1067   1.090   5.431  16.719 -0.8400 -0.6282  0.6986
    9DOPE   C23 1068   2.038   5.574  16.977 -0.2243 -0.1593  0.2924
    9DOPE   H3R 1069   2.097   5.641  17.044  0.3741 -1.5980  1.2730
    9DOPE   H3S 1070   1.995   5.632  16.893 -0.6564  0.8718  1.1942
    9DOPE   C24 1071   2.128   5.462  16.924 -0.0377 -0.6534  0.2898
    9DOPE   H4R 1072   2.064   5.415  16.847 -2.1791  2.6319 -0.1482
    9DOPE   H4S 1073   2.154   5.402  17.014  0.3814  0.3599  0.8660
    9DOPE   C25 1074   2.257   5.518  16.849 -0.8220  0.8799  0.2943
    9DOPE   H5R 1075   2.318   5.560  16.932 -0.4794 -0.2605  0.6335
    9DOPE   H5S 1076   2.237   5.588  16.765  0.4418 -1.1183 -1.7924
    9DOPE   C26 1077   2.332   5.390  16.784 -0.0365  0.8261 -0.1231
    9DOPE   H6R 1078   2.261   5.337  16.718 -0.7177 -0.6206  1.6771
    9DOPE   H6S 1079   2.351   5.317  16.866 -0.8266  0.7023 -0.0479
    9DOPE   C27 1080   2.453   5.432  16.703 -0.4620  0.6680 -0.8190
    9DOPE   H7R 1081   2.532   5.440  16.781  0.2327  0.1894 -1.4646
    9DOPE   H7S 1082   2.433   5.530  16.654 -0.8181  0.4232 -1.1653
    9DOPE   C28 1083   2.498   5.320  16.605 -0.3325  0.0239  0.1792
    9DOPE   H8R 1084   2.415   5.276  16.546  0.6114  0.4337 -1.5430
    9DOPE   H8S 1085   2.543   5.238  16.664 -0.2894 -1.7649 -2.1904
    9DOPE   C29 1086   2.611   5.383  16.518  0.5245 -0.1091  0.1482
    9DOPE   H9R 1087   2.621   5.489  16.545 -0.2873 -0.1087  0.4659
    9DOPE  C210 1088   2.679   5.334  16.409 -0.2228  0.1446 -0.3887
    9DOPE  H10R 1089   2.752   5.400  16.360 -0.1529 -0.2428 -0.8152
    9DOPE  C211 1090   2.673   5.197  16.345  0.2266  0.0659 -0.1555
    9DOPE  H11R 1091   2.778   5.168  16.322  0.3609 -0.2611  0.8456
    9DOPE  H11S 1092   2.622   5.208  16.246  0.5936 -0.3912 -0.4003
    9DOPE  C212 1093   2.604   5.075  16.414  0.0432 -0.4629  0.4890
    9DOPE  H12R 1094   2.595   4.987  16.346  1.0614 -1.5161  1.6716
    9DOPE  H12S 1095   2.504   5.101  16.454  1.4240  1.7622  2.7669
    9DOPE  C213 1096   2.686   5.009  16.522 -0.5838 -0.7652  0.0465
    9DOPE  H13R 1097   2.702   5.088  16.599 -4.0482 -0.4159  0.5598
    9DOPE  H13S 1098   2.786   4.991  16.477 -1.1161 -2.0705 -0.6498
    9DOPE  C214 1099   2.633   4.879  16.575  0.1523 -0.1076  0.8496
    9DOPE  H14R 1100   2.610   4.819  16.485 -1.3199  0.6384  0.7038
    9DOPE  H14S 1101   2.536   4.904  16.623  0.8942  1.7225  1.4911
    9DOPE  C215 1102   2.732   4.803  16.655 -0.1661 -0.4035 -0.1272
    9DOPE  H15R 1103   2.830   4.830  16.609  0.3350 -0.6968  0.7458
    9DOPE  H15S 1104   2.715   4.695  16.638  1.6223 -1.0058  1.4738
    9DOPE  C216 1105   2.726   4.831  16.807  0.2450 -0.1412 -0.0793
    9DOPE  H16R 1106   2.741   4.940  16.822  2.2283 -0.3187 -0.5836
    9DOPE  H16S 1107   2.813   4.783  16.855  0.3060  1.2819  1.3299
    9DOPE  C217 1108   2.588   4.784  16.862 -0.5160  0.1107  0.3948
    9DOPE  H17R 1109   2.593   4.673  16.848 -0.6088 -0.0440  1.4935
    9DOPE  H17S 1110   2.500   4.834  16.816 -0.6477 -0.0404  0.4820
    9DOPE  C218 1111   2.588   4.799  17.015  0.3368  0.3454  0.1617
    9DOPE  H18R 1112   2.496   4.755  17.058  0.7179 -0.1459  0.4837
    9DOPE  H18S 1113   2.592   4.907  17.042  0.9286  0.1115  1.0745
    9DOPE  H18T 1114   2.674   4.740  17.055 -1.3254 -2.5190 -0.2576
    9DOPE   C33 1115   1.223   5.265  16.706  0.1252  0.1802  0.4470
    9DOPE   H3X 1116   1.138   5.207  16.662 -0.7288 -0.2602  2.5697
    9DOPE   H3Y 1117   1.280   5.194  16.770 -0.4960 -0.3210  0.4561
    9DOPE   C34 1118   1.309   5.314  16.584  0.2371 -0.0985  0.0389
    9DOPE   H4X 1119   1.388   5.380  16.626 -1.3912  1.1281  1.2923
    9DOPE   H4Y 1120   1.347   5.223  16.532  2.2582  0.2369  0.8310
    9DOPE   C35 1121   1.228   5.407  16.483  0.0933  0.2070 -0.8346
    9DOPE   H5X 1122   1.184   5.498  16.529 -0.5080  0.1990 -1.3661
    9DOPE   H5Y 1123   1.137   5.345  16.465 -1.2008  2.4923 -2.7748
    9DOPE   C36 1124   1.302   5.433  16.356 -0.2035  0.2761 -0.1900
    9DOPE   H6X 1125   1.403   5.476  16.374 -0.2998  0.0636  0.9225
    9DOPE   H6Y 1126   1.232   5.486  16.288  0.8415 -0.2917 -1.7446
    9DOPE   C37 1127   1.345   5.309  16.274  0.2903  0.0796 -0.7372
    9DOPE   H7X 1128   1.441   5.261  16.303 -0.5335 -1.8864 -1.0560
    9DOPE   H7Y 1129   1.272   5.225  16.284  0.4994  0.1941  3.3755
    9DOPE   C38 1130   1.346   5.334  16.123 -0.5306 -0.3360  0.1790
    9DOPE   H8X 1131   1.431   5.403  16.105 -0.7329 -0.1224  0.0191
    9DOPE   H8Y 1132   1.252   5.390  16.101 -1.2791 -0.7601  2.1393
    9DOPE   C39 1133   1.346   5.215  16.032  0.6236  0.1897  0.5578
    9DOPE   H9X 1134   1.302   5.120  16.067  2.3881 -1.1257 -0.6055
    9DOPE  C310 1135   1.380   5.218  15.899 -0.1867  0.1413  0.5022
    9DOPE  H10X 1136   1.381   5.128  15.836  1.9318  1.3533 -1.3610
    9DOPE  C311 1137   1.431   5.343  15.838  0.4104  0.5122 -0.2606
    9DOPE  H11X 1138   1.371   5.436  15.843  0.3548  0.4402  0.4379
    9DOPE  H11Y 1139   1.529   5.374  15.879 -0.2018  1.8382  0.2417
    9DOPE  C312 1140   1.449   5.333  15.684  0.1199  0.4000 -0.3457
    9DOPE  H12X 1141   1.516   5.246  15.669  0.2872  0.2734  1.0473
    9DOPE  H12Y 1142   1.499   5.427  15.652  1.1468 -0.4636 -1.3530
    9DOPE  C313 1143   1.320   5.315  15.591 -0.3284  0.6501  0.2445
    9DOPE  H13X 1144   1.368   5.301  15.492  3.3584 -1.9809  2.1505
    9DOPE  H13Y 1145   1.266   5.220  15.612 -0.2870  0.1312 -1.8628
    9DOPE  C314 1146   1.234   5.438  15.588 -0.3820  0.6563 -0.4614
    9DOPE  H14X 1147   1.302   5.522  15.565  0.2786 -0.4875 -3.0046
    9DOPE  H14Y 1148   1.198   5.459  15.691  1.9777 -2.2967  1.1437
    9DOPE  C315 1149   1.113   5.444  15.496  0.9292  0.6177  0.6176
    9DOPE  H15X 1150   1.074   5.548  15.500  1.6417  0.9178 -0.0163
    9DOPE  H15Y 1151   1.024   5.394  15.539  1.3677 -0.2615  0.5314
    9DOPE  C316 1152   1.144   5.406  15.353  0.0912 -0.0461 -0.0266
    9DOPE  H16X 1153   1.129   5.297  15.342 -1.8089 -0.3793  4.1923
    9DOPE  H16Y 1154   1.249   5.433  15.325  0.2677 -0.8880 -0.2262
    9DOPE  C317 1155   1.039   5.478  15.260 -0.1643 -0.5377  0.8418
    9DOPE  H17X 1156   0.934   5.454  15.286 -0.0882 -1.4976  0.2996
    9DOPE  H17Y 1157   1.044   5.589  15.266  2.9327 -0.4425 -1.2409
    9DOPE  C318 1158   1.059   5.437  15.110  0.4567  0.2076 -0.3587
    9DOPE  H18X 1159   1.067   5.327  15.103 -1.0589  0.0892 -0.4374
    9DOPE  H18Y 1160   0.976   5.474  15.046 -0.1146 -0.0846  0.2079
    9DOPE  H18Z 1161   1.149   5.489  15.069  0.8608 -0.1901  0.0062
   10DOPE     N 1162   2.533   7.143  17.427 -0.1847 -0.1093 -1.0102
   10DOPE   HN1 1163   2.592   7.212  17.477 -1.2196  0.9435 -1.1881
   10DOPE   HN2 1164   2.493   7.080  17.500  2.8338 -1.4153 -0.3165
   10DOPE   HN3 1165   2.601   7.096  17.365  3.1637  0.2342  2.0745
   10DOPE   C12 1166   2.409   7.215  17.370  0.4847  0.3692 -0.5918
   10DOPE  H12A 1167   2.440   7.320  17.354 -0.2004  0.9396  1.5147
   10DOPE  H12B 1168   2.334   7.204  17.452 -0.1291  0.8056 -1.0872
   10DOPE   C11 1169   2.351   7.154  17.241  0.2082 -0.0837 -0.4402
   10DOPE  H11A 1170   2.423   7.166  17.157 -0.7254 -0.1486 -1.2613
   10DOPE  H11B 1171   2.268   7.215  17.202  1.6288  0.3477 -3.0038
   10DOPE     P 1172   2.173   6.971  17.284 -0.3499  0.0567 -0.2106
   10DOPE   O13 1173   2.090   7.049  17.377  0.0779  0.1608  0.1371
   10DOPE   O14 1174   2.165   6.826  17.309  0.4110  0.3237  0.1120
   10DOPE   O11 1175   2.119   6.997  17.141 -0.7829 -0.0836  0.1572
   10DOPE   O12 1176   2.321   7.021  17.268 -0.2044 -0.5419 -0.0736
   10DOPE    C1 1177   2.152   6.896  17.038 -0.1306  0.1617 -0.0376
   10DOPE    HA 1178   2.116   6.794  17.064  1.1298 -0.5818 -1.1551
   10DOPE    HB 1179   2.259   6.881  17.016  0.1636 -0.7293  1.8219
   10DOPE    C2 1180   2.084   6.941  16.909  0.3781  0.1673  0.7868
   10DOPE    HS 1181   2.139   6.895  16.825  2.2488 -1.2667  2.7173
   10DOPE   O21 1182   2.085   7.086  16.910 -0.0491  0.3557  0.0942
   10DOPE   C21 1183   2.205   7.135  16.876  0.5188 -0.1535  1.2716
   10DOPE   O22 1184   2.301   7.073  16.836 -0.5768 -0.0014 -0.5781
   10DOPE   C22 1185   2.197   7.293  16.894 -0.0678  0.5132  0.0495
   10DOPE   H2R 1186   2.210   7.313  17.002  0.2741  3.1680 -0.4078
   10DOPE   H2S 1187   2.098   7.327  16.857  0.0395  2.0903  1.1532
   10DOPE    C3 1188   1.934   6.904  16.895  0.3832 -0.3505 -0.3257
   10DOPE    HX 1189   1.877   6.965  16.969 -0.0299 -0.8085 -0.2587
   10DOPE    HY 1190   1.912   6.801  16.931 -0.4067  0.6460  2.3096
   10DOPE   O31 1191   1.885   6.914  16.757  0.0688  0.7243 -0.6404
   10DOPE   C31 1192   1.821   7.032  16.731  0.1637 -0.1382  0.2282
   10DOPE   O32 1193   1.804   7.127  16.804  0.1162  0.2850 -0.0471
   10DOPE   C32 1194   1.774   7.018  16.589 -0.5810  0.2775 -0.5037
   10DOPE   H2X 1195   1.751   7.113  16.538 -2.5477 -2.1158 -4.5884
   10DOPE   H2Y 1196   1.870   7.001  16.535  0.1864  4.2051 -0.6593
   10DOPE   C23 1197   2.311   7.359  16.821 -0.3220  0.2408 -0.6875
   10DOPE   H3R 1198   2.405   7.324  16.868 -1.1662 -2.6748 -1.0008
   10DOPE   H3S 1199   2.302   7.465  16.856 -0.4713  0.5086 -1.5119
   10DOPE   C24 1200   2.314   7.340  16.666  0.9247 -0.3179 -0.4045
   10DOPE   H4R 1201   2.343   7.234  16.653 -2.5513 -1.2496 -1.7406
   10DOPE   H4S 1202   2.397   7.397  16.618 -0.5902  2.2073 -0.2158
   10DOPE   C25 1203   2.185   7.383  16.599  0.1647  0.1694  0.2651
   10DOPE   H5R 1204   2.168   7.482  16.648  1.8375  0.2217  0.8276
   10DOPE   H5S 1205   2.101   7.321  16.635  1.4036 -0.6451  1.9172
   10DOPE   C26 1206   2.196   7.404  16.445  0.2089 -0.1725 -0.3022
   10DOPE   H6R 1207   2.215   7.307  16.393 -0.7060 -1.3803  1.4941
   10DOPE   H6S 1208   2.280   7.473  16.425  0.2753  0.1724  1.0601
   10DOPE   C27 1209   2.067   7.474  16.406  0.2789  0.2146 -0.0288
   10DOPE   H7R 1210   2.093   7.499  16.301  2.8501 -1.0607  0.2254
   10DOPE   H7S 1211   2.052   7.574  16.451  1.5984  1.0992 -1.4250
   10DOPE   C28 1212   1.944   7.387  16.391  0.4582 -0.3581  0.1356
   10DOPE   H8R 1213   1.901   7.371  16.492 -1.6379  0.5277 -0.5667
   10DOPE   H8S 1214   1.955   7.284  16.351 -3.7597 -0.6166 -0.7973
   10DOPE   C29 1215   1.837   7.475  16.320  0.1552  0.1098  0.0268
   10DOPE   H9R 1216   1.819   7.570  16.372  1.3748 -0.3479  1.3534
   10DOPE  C210 1217   1.754   7.447  16.217  0.1614  0.2170  0.4570
   10DOPE  H10R 1218   1.711   7.535  16.168 -1.3161 -1.0852 -0.7354
   10DOPE  C211 1219   1.749   7.326  16.126 -0.3272 -0.4707 -0.7437
   10DOPE  H11R 1220   1.669   7.266  16.175 -1.8995  0.9492 -1.4588
   10DOPE  H11S 1221   1.844   7.268  16.128  0.0969  0.2178 -0.7565
   10DOPE  C212 1222   1.687   7.349  15.991  0.3086 -0.0208  0.1467
   10DOPE  H12R 1223   1.742   7.424  15.930 -2.3735  1.6245 -0.3875
   10DOPE  H12S 1224   1.584   7.386  16.006 -0.0775 -1.3285  0.9464
   10DOPE  C213 1225   1.686   7.216  15.909  0.4298  0.7523 -0.1158
   10DOPE  H13R 1226   1.613   7.151  15.962  0.0823  0.4987 -0.8741
   10DOPE  H13S 1227   1.786   7.168  15.913  0.1350  0.1213 -0.1692
   10DOPE  C214 1228   1.631   7.244  15.765  0.7721  0.7823  1.1243
   10DOPE  H14R 1229   1.545   7.315  15.758  0.0784  0.0986  2.3213
   10DOPE  H14S 1230   1.595   7.149  15.721 -1.1064  0.8246  2.4127
   10DOPE  C215 1231   1.734   7.311  15.670  0.2497 -1.1062  0.3902
   10DOPE  H15R 1232   1.753   7.409  15.718 -3.3946  0.7222 -1.5163
   10DOPE  H15S 1233   1.687   7.336  15.573  3.0100  0.5522 -0.6183
   10DOPE  C216 1234   1.864   7.234  15.636 -0.6113  0.7361  0.1899
   10DOPE  H16R 1235   1.917   7.216  15.732 -1.0506  0.2233  0.3394
   10DOPE  H16S 1236   1.927   7.298  15.570 -1.2947 -1.4397 -2.7349
   10DOPE  C217 1237   1.825   7.104  15.559 -0.4212 -0.6653  0.6828
   10DOPE  H17R 1238   1.756   7.130  15.475  1.0189  0.6291 -0.1411
   10DOPE  H17S 1239   1.761   7.048  15.631  0.5651 -1.4186  0.9925
   10DOPE  C218 1240   1.947   7.024  15.500 -0.3827  0.0350 -0.7089
   10DOPE  H18R 1241   2.022   6.994  15.575  1.2461  2.3241 -1.3246
   10DOPE  H18S 1242   2.004   7.086  15.428 -0.1995  2.7403  1.6118
   10DOPE  H18T 1243   1.913   6.931  15.449 -0.4349  0.1241 -0.8392
   10DOPE   C33 1244   1.673   6.902  16.566 -0.8759 -0.3952 -0.7007
   10DOPE   H3X 1245   1.580   6.927  16.620 -1.5204 -0.9263 -1.5276
   10DOPE   H3Y 1246   1.725   6.812  16.604 -1.3456 -0.7422 -0.8790
   10DOPE   C34 1247   1.641   6.904  16.413  0.0330  0.1401 -0.4352
   10DOPE   H4X 1248   1.595   7.003  16.392  0.3530 -0.1513 -2.7497
   10DOPE   H4Y 1249   1.739   6.902  16.359  0.1020 -0.6603 -0.3005
   10DOPE   C35 1250   1.550   6.797  16.367 -0.5196 -0.8687 -0.0691
   10DOPE   H5X 1251   1.460   6.789  16.431 -2.1458 -0.5492 -2.1986
   10DOPE   H5Y 1252   1.596   6.697  16.361  1.2348 -0.1208  0.2874
   10DOPE   C36 1253   1.491   6.826  16.226 -0.2203  0.5139 -0.2981
   10DOPE   H6X 1254   1.570   6.862  16.156 -1.0383 -0.4487 -1.7616
   10DOPE   H6Y 1255   1.430   6.918  16.239 -2.0272 -0.1837 -3.0992
   10DOPE   C37 1256   1.421   6.703  16.160  0.3983 -0.4263  0.0521
   10DOPE   H7X 1257   1.485   6.615  16.139 -2.9475 -2.7935 -1.0776
   10DOPE   H7Y 1258   1.333   6.664  16.216 -0.0578  3.1358  2.1357
   10DOPE   C38 1259   1.364   6.744  16.029  0.4612 -0.0573  0.5578
   10DOPE   H8X 1260   1.286   6.820  16.050  0.1595  0.1649 -1.2062
   10DOPE   H8Y 1261   1.307   6.664  15.978  0.7761  0.0806 -0.0245
   10DOPE   C39 1262   1.470   6.799  15.935 -0.6295  0.1040  0.2616
   10DOPE   H9X 1263   1.570   6.755  15.947  0.1011  1.7711  0.5366
   10DOPE  C310 1264   1.460   6.901  15.848 -0.2154  0.9574  0.1084
   10DOPE  H10X 1265   1.541   6.937  15.783  0.3065 -3.3224 -1.9048
   10DOPE  C311 1266   1.329   6.972  15.819  0.0378  0.3625 -0.0273
   10DOPE  H11X 1267   1.342   6.978  15.709 -0.9131 -0.7731 -0.2194
   10DOPE  H11Y 1268   1.246   6.900  15.834  0.6049 -0.7029 -1.7103
   10DOPE  C312 1269   1.308   7.109  15.881  0.0549 -0.1456 -0.1091
   10DOPE  H12X 1270   1.203   7.128  15.851 -1.1189  0.5807  3.8383
   10DOPE  H12Y 1271   1.386   7.182  15.850 -1.3772  1.7632  0.6404
   10DOPE  C313 1272   1.294   7.116  16.037 -0.4803 -0.5939 -0.8290
   10DOPE  H13X 1273   1.216   7.044  16.069  0.0390 -1.3025 -1.1273
   10DOPE  H13Y 1274   1.393   7.089  16.080 -0.8061 -2.9545 -1.4016
   10DOPE  C314 1275   1.263   7.260  16.088  0.2284 -0.2526 -0.4119
   10DOPE  H14X 1276   1.171   7.302  16.042  0.4812  2.1721  1.0947
   10DOPE  H14Y 1277   1.346   7.330  16.062  1.5695 -2.1071 -1.3776
   10DOPE  C315 1278   1.254   7.262  16.241 -0.2562  0.1600  0.1581
   10DOPE  H15X 1279   1.197   7.171  16.271 -1.1234  0.7943  0.4677
   10DOPE  H15Y 1280   1.190   7.347  16.272 -0.7522 -0.3494  0.5555
   10DOPE  C316 1281   1.382   7.268  16.317 -0.8394  0.4799 -0.1845
   10DOPE  H16X 1282   1.441   7.344  16.261  0.2522 -1.1359 -1.3321
   10DOPE  H16Y 1283   1.440   7.176  16.295 -0.8308  0.5062 -0.2712
   10DOPE  C317 1284   1.378   7.288  16.470  0.4066 -0.6304 -0.0916
   10DOPE  H17X 1285   1.299   7.362  16.491  0.1902 -0.5688 -1.0634
   10DOPE  H17Y 1286   1.347   7.195  16.523 -2.3032  0.0184 -0.4072
   10DOPE  C318 1287   1.507   7.348  16.527  0.4631 -0.0255  0.2827
   10DOPE  H18X 1288   1.501   7.341  16.637 -0.7981 -0.0688  0.2285
   10DOPE  H18Y 1289   1.595   7.287  16.498 -0.2606 -0.8159 -0.3192
   10DOPE  H18Z 1290   1.524   7.455  16.503  2.5294 -0.3462  0.1513
   11DOPE     N 1291   0.636   4.235  16.958 -0.3403 -0.1391  1.0550
   11DOPE   HN1 1292   0.558   4.293  16.995 -0.4128 -0.4834  1.4549
   11DOPE   HN2 1293   0.606   4.183  16.873  0.0295  1.6562 -0.2360
   11DOPE   HN3 1294   0.659   4.164  17.031 -1.7694 -0.6148  1.0752
   11DOPE   C12 1295   0.742   4.319  16.918 -0.3198 -0.3620  0.2057
   11DOPE  H12A 1296   0.811   4.271  16.845  0.4907 -0.0969  0.7828
   11DOPE  H12B 1297   0.805   4.346  17.005 -2.1713  2.7805  0.7541
   11DOPE   C11 1298   0.695   4.438  16.829 -0.1305 -0.6530 -0.6213
   11DOPE  H11A 1299   0.651   4.407  16.731 -0.5533  0.0079 -0.6484
   11DOPE  H11B 1300   0.784   4.497  16.798 -0.5980  0.2762 -0.2091
   11DOPE     P 1301   0.640   4.667  16.960  0.1837 -0.1084 -0.2612
   11DOPE   O13 1302   0.735   4.641  17.070  0.1970 -0.1215  0.0615
   11DOPE   O14 1303   0.518   4.739  17.010 -0.2775  0.3475 -0.2633
   11DOPE   O11 1304   0.717   4.752  16.852  0.2332  0.5804 -0.8417
   11DOPE   O12 1305   0.602   4.531  16.891 -0.4727  0.0435  0.4422
   11DOPE    C1 1306   0.667   4.780  16.722 -0.4714  0.0039  0.1002
   11DOPE    HA 1307   0.597   4.698  16.692 -2.6246  1.5111  0.7415
   11DOPE    HB 1308   0.755   4.775  16.654  1.1599 -1.3723  2.1802
   11DOPE    C2 1309   0.585   4.910  16.719  0.4786 -0.8007  0.9961
   11DOPE    HS 1310   0.640   4.982  16.783  1.9794 -1.1387  0.1240
   11DOPE   O21 1311   0.446   4.884  16.763  0.0098  0.3282 -0.8934
   11DOPE   C21 1312   0.375   4.975  16.838 -0.0115  0.5050  0.3094
   11DOPE   O22 1313   0.428   5.073  16.892  0.3753  0.4862 -0.1539
   11DOPE   C22 1314   0.228   4.939  16.838  0.3119 -0.1443  0.0981
   11DOPE   H2R 1315   0.182   4.933  16.939 -0.2389  0.3270 -0.1187
   11DOPE   H2S 1316   0.224   4.833  16.803 -1.2858 -0.0735  0.0058
   11DOPE    C3 1317   0.572   4.962  16.575 -0.4881 -0.1009  0.2745
   11DOPE    HX 1318   0.511   5.053  16.555  0.4601  0.4314 -0.3071
   11DOPE    HY 1319   0.523   4.882  16.515  1.0048 -0.5084 -0.4420
   11DOPE   O31 1320   0.701   4.995  16.524 -0.1733  0.3106 -0.7783
   11DOPE   C31 1321   0.756   5.111  16.559  0.8220  0.9652  0.2706
   11DOPE   O32 1322   0.703   5.199  16.622  0.1946 -0.3423  0.7376
   11DOPE   C32 1323   0.903   5.103  16.514 -0.1033  0.1024  0.9736
   11DOPE   H2X 1324   0.968   5.147  16.593  0.3894  1.1071  0.0346
   11DOPE   H2Y 1325   0.931   4.996  16.527  0.6628  0.1623 -0.1090
   11DOPE   C23 1326   0.133   5.022  16.749 -0.1461 -1.2762  0.0460
   11DOPE   H3R 1327   0.163   5.127  16.770 -2.3229 -0.8990  1.5850
   11DOPE   H3S 1328   0.028   5.015  16.784 -0.1882  0.7221  0.4179
   11DOPE   C24 1329   0.143   4.977  16.605  0.1670 -0.0071 -0.3795
   11DOPE   H4R 1330   0.090   4.879  16.599  2.5305 -1.3493 -0.7267
   11DOPE   H4S 1331   0.250   4.961  16.578 -0.1323 -1.6409 -0.7414
   11DOPE   C25 1332   0.071   5.071  16.507  0.0198  0.1310  0.1864
   11DOPE   H5R 1333   0.062   5.171  16.556 -1.7588 -1.4148  3.2872
   11DOPE   H5S 1334  -0.035   5.041  16.493 -0.2583  0.7348  0.8846
   11DOPE   C26 1335   0.154   5.071  16.375  0.2067 -0.5037  0.1598
   11DOPE   H6R 1336   0.246   5.130  16.393  0.3905 -1.4275  2.5820
   11DOPE   H6S 1337   0.100   5.136  16.303 -0.0682  2.1761  2.6145
   11DOPE   C27 1338   0.189   4.937  16.308  0.4055 -0.4706 -0.3685
   11DOPE   H7R 1339   0.100   4.874  16.287  1.3073 -1.1814 -2.2829
   11DOPE   H7S 1340   0.254   4.877  16.376 -0.3002  0.4084  1.1337
   11DOPE   C28 1341   0.245   4.956  16.169  0.7566 -0.7830 -0.5305
   11DOPE   H8R 1342   0.337   5.017  16.182  0.4537 -0.6280  1.1822
   11DOPE   H8S 1343   0.161   4.999  16.110 -0.6050 -0.8845  1.2418
   11DOPE   C29 1344   0.284   4.821  16.119 -0.0625  0.4138 -0.1397
   11DOPE   H9R 1345   0.198   4.757  16.095 -0.9452  1.5203 -0.0489
   11DOPE  C210 1346   0.406   4.761  16.117 -0.5231  0.5989 -1.0115
   11DOPE  H10R 1347   0.403   4.659  16.074 -1.6413  0.1957 -0.0345
   11DOPE  C211 1348   0.546   4.806  16.147  0.6368  0.6502  0.1884
   11DOPE  H11R 1349   0.545   4.893  16.215 -1.6216 -0.8301  2.2266
   11DOPE  H11S 1350   0.582   4.845  16.050  1.1370 -0.5541 -0.1326
   11DOPE  C212 1351   0.641   4.695  16.208 -0.3846 -0.0163 -0.3608
   11DOPE  H12R 1352   0.743   4.737  16.219 -0.8168  0.7887  0.7719
   11DOPE  H12S 1353   0.628   4.603  16.147 -0.5555 -1.0718  1.1874
   11DOPE  C213 1354   0.616   4.656  16.361  0.2128  0.1250 -0.5746
   11DOPE  H13R 1355   0.506   4.645  16.367 -0.1236  2.3728 -1.4599
   11DOPE  H13S 1356   0.645   4.745  16.422  1.4621 -0.7061  0.0875
   11DOPE  C214 1357   0.699   4.542  16.414 -0.0331 -0.0553 -0.3108
   11DOPE  H14R 1358   0.686   4.525  16.523 -0.6081 -1.6520 -0.6127
   11DOPE  H14S 1359   0.804   4.572  16.390 -0.2108  1.2904  0.4402
   11DOPE  C215 1360   0.662   4.417  16.343 -0.1234  0.1183 -0.0019
   11DOPE  H15R 1361   0.701   4.424  16.240 -0.6559  1.6254 -0.1211
   11DOPE  H15S 1362   0.551   4.410  16.346 -0.2429  1.0564 -1.3525
   11DOPE  C216 1363   0.711   4.295  16.422  0.6609  0.4975 -0.2125
   11DOPE  H16R 1364   0.714   4.202  16.362  2.7662 -0.0035  0.5563
   11DOPE  H16S 1365   0.645   4.283  16.511  1.1094  0.5288  0.1340
   11DOPE  C217 1366   0.864   4.315  16.468 -0.0078  0.3411  0.8178
   11DOPE  H17R 1367   0.870   4.381  16.558  1.5634 -1.3639  2.0150
   11DOPE  H17S 1368   0.915   4.361  16.381  1.8917  1.8920  2.6456
   11DOPE  C218 1369   0.942   4.184  16.500  0.1359  0.9382  0.6484
   11DOPE  H18R 1370   1.050   4.205  16.509  1.0334 -2.7953  0.0504
   11DOPE  H18S 1371   0.940   4.118  16.411 -1.4643  0.6843  0.8409
   11DOPE  H18T 1372   0.904   4.130  16.590 -5.5317  2.5831 -0.3527
   11DOPE   C33 1373   0.937   5.154  16.376 -0.0586 -0.0516  0.2871
   11DOPE   H3X 1374   1.048   5.149  16.376  0.0519  0.5277 -2.8179
   11DOPE   H3Y 1375   0.925   5.264  16.366 -0.5865 -0.0114  1.1950
   11DOPE   C34 1376   0.887   5.078  16.249  0.0573 -0.3680 -0.0746
   11DOPE   H4X 1377   0.902   4.971  16.276  2.7494  0.3603  1.7806
   11DOPE   H4Y 1378   0.778   5.098  16.237  0.1053 -0.2146 -0.2542
   11DOPE   C35 1379   0.951   5.117  16.118  0.4406  0.7746  0.5422
   11DOPE   H5X 1380   1.060   5.094  16.119  0.1053 -1.0772 -1.0885
   11DOPE   H5Y 1381   0.942   5.228  16.110  0.2757  0.6302 -1.9507
   11DOPE   C36 1382   0.891   5.057  15.989  0.6607  0.3508 -0.2386
   11DOPE   H6X 1383   0.792   5.105  15.975 -0.5003 -2.0577 -0.7839
   11DOPE   H6Y 1384   0.874   4.947  15.991  0.0032  0.4573  0.3970
   11DOPE   C37 1385   0.971   5.078  15.864 -0.7008 -0.2786  0.0049
   11DOPE   H7X 1386   0.941   5.177  15.823  0.4524 -0.0216 -0.2488
   11DOPE   H7Y 1387   1.079   5.067  15.886 -0.5830 -1.3658 -1.0142
   11DOPE   C38 1388   0.945   4.974  15.759  0.2393 -0.1434 -0.0848
   11DOPE   H8X 1389   0.982   5.017  15.663 -2.5981 -1.1579 -1.7540
   11DOPE   H8Y 1390   0.836   4.971  15.736  0.4370  0.0185 -1.1043
   11DOPE   C39 1391   0.990   4.832  15.789  0.2910 -0.0008 -0.0243
   11DOPE   H9X 1392   0.947   4.794  15.883 -0.0964 -0.8258 -0.5254
   11DOPE  C310 1393   1.076   4.768  15.710 -0.4108  0.4137  0.0686
   11DOPE  H10X 1394   1.108   4.666  15.736 -0.2496 -0.0846 -1.9422
   11DOPE  C311 1395   1.130   4.820  15.584  0.2342 -0.1326  0.8139
   11DOPE  H11X 1396   1.090   4.754  15.504  0.5295  1.0020 -0.2924
   11DOPE  H11Y 1397   1.092   4.919  15.551 -0.8306 -1.0574 -0.8906
   11DOPE  C312 1398   1.283   4.836  15.576 -0.4845  0.0068  0.1784
   11DOPE  H12X 1399   1.326   4.741  15.614 -0.1395  0.1766  0.2139
   11DOPE  H12Y 1400   1.305   4.912  15.654 -0.5358 -0.3546  0.5546
   11DOPE  C313 1401   1.337   4.870  15.441 -0.6254  0.1004 -0.3076
   11DOPE  H13X 1402   1.287   4.961  15.400 -1.1635  0.6763  1.5071
   11DOPE  H13Y 1403   1.445   4.897  15.450  0.0083 -2.8373  3.1324
   11DOPE  C314 1404   1.316   4.751  15.346  0.1307 -0.3072  0.1423
   11DOPE  H14X 1405   1.210   4.719  15.343  0.4166 -1.5974  1.9743
   11DOPE  H14Y 1406   1.373   4.667  15.392 -2.1507  0.2145  4.4440
   11DOPE  C315 1407   1.355   4.775  15.204 -0.1532  0.4187  0.0083
   11DOPE  H15X 1408   1.456   4.821  15.191 -0.5914  1.5137  0.3487
   11DOPE  H15Y 1409   1.281   4.843  15.156  0.9867  0.8386 -1.2393
   11DOPE  C316 1410   1.337   4.647  15.118  0.3782  0.1469  0.0265
   11DOPE  H16X 1411   1.234   4.609  15.135 -0.5734  2.6798  0.4271
   11DOPE  H16Y 1412   1.403   4.565  15.153  1.2117  0.4511 -0.7913
   11DOPE  C317 1413   1.359   4.675  14.972  0.6447 -1.2507  0.5440
   11DOPE  H17X 1414   1.271   4.726  14.927  1.6666  0.8609  0.8320
   11DOPE  H17Y 1415   1.448   4.741  14.967 -0.0368 -0.3829 -0.8245
   11DOPE  C318 1416   1.386   4.554  14.884  1.1081 -0.1502  0.3629
   11DOPE  H18X 1417   1.311   4.474  14.902  0.3335  0.6654  0.8250
   11DOPE  H18Y 1418   1.382   4.579  14.776  1.9216 -0.5329  0.2362
   11DOPE  H18Z 1419   1.489   4.515  14.898  0.5525 -1.1597  1.9159
   12DOPE     N 1420   3.513   0.205  17.162 -0.3354  0.4946  0.6350
   12DOPE   HN1 1421   3.520   0.163  17.067 -0.0862 -0.5493  1.1058
   12DOPE   HN2 1422   3.609   0.241  17.180  0.5022 -1.0721 -0.4745
   12DOPE   HN3 1423   3.494   0.125  17.225  3.1594 -0.6999  0.4308
   12DOPE   C12 1424   3.410   0.322  17.157 -0.5940  0.9399  0.8059
   12DOPE  H12A 1425   3.401   0.354  17.051 -1.0382 -1.5135  0.0186
   12DOPE  H12B 1426   3.456   0.410  17.205 -2.0974  1.5221  1.2087
   12DOPE   C11 1427   3.273   0.276  17.212  0.0031 -0.1972  0.3015
   12DOPE  H11A 1428   3.204   0.358  17.184 -0.1400 -0.5740 -0.4764
   12DOPE  H11B 1429   3.273   0.257  17.321 -0.4996 -0.1328  0.3149
   12DOPE     P 1430   3.188   0.023  17.198  0.0424 -0.0266 -0.4008
   12DOPE   O13 1431   3.059   0.037  17.264  0.0250  0.5395  0.3921
   12DOPE   O14 1432   3.296  -0.028  17.289  0.0063  0.0178  0.2579
   12DOPE   O11 1433   3.168  -0.079  17.085 -0.0486  0.5640  0.1809
   12DOPE   O12 1434   3.234   0.160  17.135 -0.3984 -0.4137 -0.4659
   12DOPE    C1 1435   3.228  -0.073  16.959  0.4416  0.0681  0.1788
   12DOPE    HA 1436   3.263  -0.175  16.932  2.0239  0.8646 -0.9605
   12DOPE    HB 1437   3.319  -0.008  16.960 -0.6372  1.6589 -0.1142
   12DOPE    C2 1438   3.129  -0.018  16.847  0.8821  0.4848  0.2904
   12DOPE    HS 1439   3.167  -0.043  16.746 -2.0249  2.1156 -1.3493
   12DOPE   O21 1440   3.113   0.123  16.858 -0.4501  0.5145 -0.3946
   12DOPE   C21 1441   3.207   0.200  16.817 -0.1474 -0.1752  0.1471
   12DOPE   O22 1442   3.306   0.161  16.756 -0.0463 -0.4233 -0.2655
   12DOPE   C22 1443   3.184   0.348  16.853  0.7523  0.0120  0.5369
   12DOPE   H2R 1444   3.284   0.395  16.860 -0.0561  2.2070 -1.3554
   12DOPE   H2S 1445   3.127   0.349  16.948  0.7864 -0.8671  0.5771
   12DOPE    C3 1446   2.990  -0.080  16.865  0.2094  0.5012  0.8393
   12DOPE    HX 1447   2.962  -0.066  16.971 -0.1133 -1.9170  1.1333
   12DOPE    HY 1448   3.004  -0.185  16.832  0.3584  0.6666  0.3581
   12DOPE   O31 1449   2.898  -0.013  16.774 -0.4752  0.2151  0.3642
   12DOPE   C31 1450   2.819   0.083  16.824 -0.2936 -0.1225 -0.0110
   12DOPE   O32 1451   2.812   0.118  16.942 -0.2914 -0.0905  0.1262
   12DOPE   C32 1452   2.724   0.147  16.718 -0.8438 -0.2525 -0.5483
   12DOPE   H2X 1453   2.648   0.076  16.679 -0.2142 -1.3648  0.1942
   12DOPE   H2Y 1454   2.667   0.228  16.768  0.6214  0.3584  0.1865
   12DOPE   C23 1455   3.087   0.424  16.754 -0.1739  0.1466  0.2365
   12DOPE   H3R 1456   3.092   0.525  16.801 -1.1310  0.2251  0.1845
   12DOPE   H3S 1457   2.986   0.379  16.761 -0.4805  0.7273 -0.4346
   12DOPE   C24 1458   3.151   0.432  16.614 -0.4621  0.5066  0.0292
   12DOPE   H4R 1459   3.133   0.332  16.567 -1.8243  0.6860  0.1349
   12DOPE   H4S 1460   3.258   0.457  16.623 -0.2971 -0.1282 -0.1029
   12DOPE   C25 1461   3.086   0.537  16.517  0.5152 -0.3392 -0.5045
   12DOPE   H5R 1462   3.066   0.635  16.565  0.6213 -0.8488  0.6146
   12DOPE   H5S 1463   2.990   0.487  16.493 -0.0350 -0.2430  1.3229
   12DOPE   C26 1464   3.175   0.567  16.390  0.0631  0.0254 -0.3009
   12DOPE   H6R 1465   3.189   0.468  16.343  0.3507 -0.5919  1.0362
   12DOPE   H6S 1466   3.268   0.609  16.433  0.2400  0.0926 -0.7457
   12DOPE   C27 1467   3.096   0.656  16.290 -0.2517 -0.4973 -0.7180
   12DOPE   H7R 1468   3.055   0.747  16.339 -0.6249 -0.3050 -1.3709
   12DOPE   H7S 1469   3.006   0.599  16.261 -0.1449 -0.2282 -1.6366
   12DOPE   C28 1470   3.174   0.707  16.170 -0.0522  0.2441  0.2673
   12DOPE   H8R 1471   3.262   0.771  16.192 -0.5437  1.3292 -0.8326
   12DOPE   H8S 1472   3.103   0.762  16.105  0.9391  2.2604  0.8220
   12DOPE   C29 1473   3.216   0.580  16.095 -0.0237 -0.1324 -0.1869
   12DOPE   H9R 1474   3.160   0.491  16.127  5.1340 -2.4856  3.6692
   12DOPE  C210 1475   3.312   0.567  16.002  0.4706  0.2278  0.2617
   12DOPE  H10R 1476   3.339   0.470  15.957 -0.9044  1.1565 -2.8177
   12DOPE  C211 1477   3.402   0.674  15.954  0.7978 -0.2651 -0.1331
   12DOPE  H11R 1478   3.346   0.769  15.948 -2.9477 -2.2940 -0.0069
   12DOPE  H11S 1479   3.449   0.646  15.856  0.6583 -1.0221  0.0096
   12DOPE  C212 1480   3.521   0.693  16.053 -0.1138  0.7257 -0.2744
   12DOPE  H12R 1481   3.492   0.696  16.160  0.9414 -0.9449  0.0898
   12DOPE  H12S 1482   3.562   0.792  16.022 -0.4998  0.9334 -0.1387
   12DOPE  C213 1483   3.638   0.593  16.040  0.1132  0.3259 -0.6739
   12DOPE  H13R 1484   3.662   0.569  15.934  1.7518  1.8107 -0.6772
   12DOPE  H13S 1485   3.617   0.504  16.102 -3.5726  1.3273 -0.2475
   12DOPE  C214 1486   3.756   0.658  16.108 -0.1951 -0.1094  0.4166
   12DOPE  H14R 1487   3.716   0.692  16.205  0.0802  3.0995 -0.4699
   12DOPE  H14S 1488   3.780   0.749  16.049 -0.1080 -1.7733 -2.3229
   12DOPE  C215 1489   3.878   0.567  16.124  0.0294  0.8065  0.3989
   12DOPE  H15R 1490   3.850   0.480  16.186  1.5737 -0.4327 -0.5644
   12DOPE  H15S 1491   3.965   0.618  16.172  1.7774 -1.4426 -0.2111
   12DOPE  C216 1492   3.932   0.519  15.982  0.3919 -0.3483 -0.2057
   12DOPE  H16R 1493   3.918   0.601  15.908  0.1388 -0.1059  0.1086
   12DOPE  H16S 1494   3.869   0.440  15.936  1.2972  0.8627 -3.8470
   12DOPE  C217 1495   4.073   0.475  15.982 -0.0071 -0.2867  0.4914
   12DOPE  H17R 1496   4.085   0.407  16.069  0.4981  0.6542  1.1725
   12DOPE  H17S 1497   4.129   0.565  16.013 -0.9177  0.8417 -0.9944
   12DOPE  C218 1498   4.125   0.411  15.851  0.2775  0.0082 -0.0334
   12DOPE  H18R 1499   4.123   0.495  15.778  0.0728 -0.2358 -0.3079
   12DOPE  H18S 1500   4.062   0.332  15.806 -0.1941 -0.3885  1.2776
   12DOPE  H18T 1501   4.231   0.378  15.858 -0.0143 -1.2551 -1.3352
   12DOPE   C33 1502   2.797   0.210  16.599  0.7243 -0.4945  0.6424
   12DOPE   H3X 1503   2.870   0.139  16.555 -0.8653 -2.4005  0.9299
   12DOPE   H3Y 1504   2.851   0.304  16.623 -1.0266  0.9884 -0.9742
   12DOPE   C34 1505   2.700   0.248  16.488  0.2664  0.2985  0.5101
   12DOPE   H4X 1506   2.664   0.163  16.426  0.7271  0.7394 -0.3748
   12DOPE   H4Y 1507   2.602   0.287  16.524 -0.3116 -1.0390  0.4265
   12DOPE   C35 1508   2.768   0.346  16.391  0.0557  0.4154 -0.3396
   12DOPE   H5X 1509   2.777   0.441  16.449 -0.4849 -0.5824  1.4631
   12DOPE   H5Y 1510   2.701   0.363  16.304  0.3407 -1.7705 -1.0314
   12DOPE   C36 1511   2.905   0.309  16.330 -0.1369  0.2109 -0.6668
   12DOPE   H6X 1512   2.971   0.302  16.419  0.5693 -1.9369 -1.2815
   12DOPE   H6Y 1513   2.938   0.385  16.256  1.2782 -1.2440 -1.6006
   12DOPE   C37 1514   2.910   0.168  16.256  0.0113 -0.4246 -0.3840
   12DOPE   H7X 1515   2.849   0.096  16.315  0.3571 -0.6146 -0.2529
   12DOPE   H7Y 1516   2.867   0.170  16.154 -0.9197  1.6795  0.0019
   12DOPE   C38 1517   3.054   0.123  16.243 -0.2307  0.4429 -0.1832
   12DOPE   H8X 1518   3.106   0.116  16.341  0.1852 -1.0799 -0.4936
   12DOPE   H8Y 1519   3.111   0.189  16.174  1.5753 -0.5066  0.3220
   12DOPE   C39 1520   3.066  -0.014  16.175 -0.1259 -0.1941 -0.2947
   12DOPE   H9X 1521   3.035  -0.024  16.070 -0.0888  3.5996 -0.8412
   12DOPE  C310 1522   3.113  -0.116  16.243  0.4215  0.1733 -0.4540
   12DOPE  H10X 1523   3.135  -0.207  16.185 -0.1872 -0.2095 -0.0900
   12DOPE  C311 1524   3.150  -0.133  16.388  0.1763 -0.9910 -0.2392
   12DOPE  H11X 1525   3.098  -0.055  16.447 -0.6810  0.6573 -3.0191
   12DOPE  H11Y 1526   3.107  -0.227  16.429 -2.7715  1.1112  1.8797
   12DOPE  C312 1527   3.299  -0.126  16.413  0.8168 -0.4912 -0.6929
   12DOPE  H12X 1528   3.333  -0.021  16.399 -0.3701 -0.2371 -1.8632
   12DOPE  H12Y 1529   3.352  -0.187  16.338 -0.7838 -2.0288 -0.6093
   12DOPE  C313 1530   3.347  -0.176  16.546  0.6694  1.1677 -0.2038
   12DOPE  H13X 1531   3.287  -0.130  16.628  1.9064  0.7161  1.0031
   12DOPE  H13Y 1532   3.315  -0.282  16.557 -0.0790  1.6341  3.3352
   12DOPE  C314 1533   3.492  -0.149  16.567  0.0829 -0.0276 -0.1865
   12DOPE  H14X 1534   3.507  -0.045  16.603  0.6594  0.0196 -0.5596
   12DOPE  H14Y 1535   3.541  -0.147  16.468 -0.8591 -2.8951 -0.8097
   12DOPE  C315 1536   3.572  -0.258  16.638  0.2572  0.4078 -0.4691
   12DOPE  H15X 1537   3.672  -0.218  16.666  1.3518 -2.1125 -0.6051
   12DOPE  H15Y 1538   3.565  -0.342  16.567 -1.0496 -0.6895  0.8948
   12DOPE  C316 1539   3.501  -0.301  16.771  0.3935  0.5402  0.0084
   12DOPE  H16X 1540   3.395  -0.330  16.752  0.3983 -1.4194  2.4495
   12DOPE  H16Y 1541   3.498  -0.211  16.835  0.4443 -0.3045  1.2305
   12DOPE  C317 1542   3.569  -0.417  16.838 -0.5282  0.4822  0.2026
   12DOPE  H17X 1543   3.658  -0.391  16.899 -0.1801 -1.1495  0.4589
   12DOPE  H17Y 1544   3.498  -0.465  16.909 -0.8017 -0.9113 -0.9623
   12DOPE  C318 1545   3.621  -0.531  16.745  0.3681  0.0330 -0.5723
   12DOPE  H18X 1546   3.715  -0.501  16.695  0.6796  2.5669  1.3201
   12DOPE  H18Y 1547   3.636  -0.628  16.797 -0.4820  0.0600 -0.2506
   12DOPE  H18Z 1548   3.538  -0.542  16.672 -2.2419 -0.4195  2.2208
   13DOPE     N 1549   2.292   3.032  17.797  0.0495 -0.1700 -0.4979
   13DOPE   HN1 1550   2.353   3.093  17.854  0.9329 -2.1139  0.7461
   13DOPE   HN2 1551   2.208   3.014  17.856  0.2524 -1.6543 -0.6149
   13DOPE   HN3 1552   2.344   2.943  17.781 -0.2688 -0.7360  1.3975
   13DOPE   C12 1553   2.276   3.114  17.670 -0.2052 -0.3343 -0.2008
   13DOPE  H12A 1554   2.355   3.092  17.596 -0.0456  0.9755 -0.4407
   13DOPE  H12B 1555   2.295   3.216  17.710 -0.0657 -0.3742 -0.1627
   13DOPE   C11 1556   2.129   3.105  17.617  0.0064  0.1897  0.6293
   13DOPE  H11A 1557   2.122   3.003  17.574  2.2466  0.8355 -1.4932
   13DOPE  H11B 1558   2.119   3.168  17.526 -1.5589  0.6368  1.0777
   13DOPE     P 1559   1.923   3.234  17.710  0.2531  0.1673  0.0402
   13DOPE   O13 1560   1.980   3.362  17.673  0.0600 -0.2336 -0.2199
   13DOPE   O14 1561   1.840   3.218  17.831 -0.1146 -0.4262  0.1650
   13DOPE   O11 1562   1.836   3.193  17.595  0.3975  0.1396  0.0773
   13DOPE   O12 1563   2.031   3.124  17.721 -0.3247 -0.0777  0.2705
   13DOPE    C1 1564   1.809   3.060  17.551 -0.3989 -0.2379 -0.1161
   13DOPE    HA 1565   1.699   3.049  17.561 -0.9337  3.3581 -0.5491
   13DOPE    HB 1566   1.874   2.980  17.592  0.2009  0.2615 -0.0742
   13DOPE    C2 1567   1.839   3.057  17.402 -0.6400 -0.5364 -0.2177
   13DOPE    HS 1568   1.949   3.072  17.400 -0.6758 -0.0405 -3.1919
   13DOPE   O21 1569   1.774   3.159  17.326 -0.1322 -0.2417  0.0317
   13DOPE   C21 1570   1.849   3.261  17.283  0.7492 -0.0282 -0.1855
   13DOPE   O22 1571   1.965   3.278  17.310 -0.3840  0.6300  0.2214
   13DOPE   C22 1572   1.759   3.345  17.194 -0.3617  0.6524  1.0551
   13DOPE   H2R 1573   1.784   3.453  17.207  2.8922  0.1830 -0.2808
   13DOPE   H2S 1574   1.653   3.347  17.225 -1.0780  1.0352 -1.2861
   13DOPE    C3 1575   1.803   2.922  17.340  0.5659  0.0249  0.6174
   13DOPE    HX 1576   1.693   2.908  17.339  0.0499  2.5789 -3.7205
   13DOPE    HY 1577   1.841   2.834  17.397 -0.9206 -1.2263 -0.2344
   13DOPE   O31 1578   1.838   2.930  17.201 -0.5040  0.4254 -0.3691
   13DOPE   C31 1579   1.923   2.835  17.160 -0.1703  0.2842  0.5214
   13DOPE   O32 1580   1.975   2.754  17.238 -0.3073 -0.2211 -0.2245
   13DOPE   C32 1581   1.932   2.838  17.009  0.7137 -1.1366 -0.2770
   13DOPE   H2X 1582   1.872   2.929  16.984  1.7384 -0.0784  0.9663
   13DOPE   H2Y 1583   2.037   2.858  16.982  0.1538  1.4787 -0.7925
   13DOPE   C23 1584   1.784   3.314  17.048  0.1764 -0.7564 -0.1794
   13DOPE   H3R 1585   1.747   3.211  17.032 -0.1016 -0.6302 -0.3620
   13DOPE   H3S 1586   1.893   3.318  17.025  0.2794 -1.0629  0.2451
   13DOPE   C24 1587   1.704   3.399  16.949 -0.6746  0.0477 -0.1640
   13DOPE   H4R 1588   1.710   3.505  16.981  0.5266 -0.2945  0.8204
   13DOPE   H4S 1589   1.600   3.366  16.931 -0.2868 -1.3302  0.0415
   13DOPE   C25 1590   1.769   3.388  16.807 -0.1824 -0.1466  0.4264
   13DOPE   H5R 1591   1.778   3.283  16.772  2.4569  0.3327 -0.5893
   13DOPE   H5S 1592   1.874   3.418  16.828 -0.5253  0.8261  0.7974
   13DOPE   C26 1593   1.704   3.472  16.693 -0.7320 -0.3578  0.0555
   13DOPE   H6R 1594   1.789   3.506  16.630 -1.2835  1.6207  0.3315
   13DOPE   H6S 1595   1.658   3.565  16.732 -1.2535 -0.0998 -1.1288
   13DOPE   C27 1596   1.600   3.395  16.607  0.4246 -0.6546  0.2727
   13DOPE   H7R 1597   1.506   3.413  16.665  0.5166  2.0903 -0.2656
   13DOPE   H7S 1598   1.618   3.287  16.622  0.7060 -0.6014  0.3251
   13DOPE   C28 1599   1.597   3.422  16.459  0.8794 -0.3067  0.5069
   13DOPE   H8R 1600   1.698   3.393  16.425  1.6612 -2.3037  3.9980
   13DOPE   H8S 1601   1.600   3.531  16.439  0.3863 -0.6495 -1.7456
   13DOPE   C29 1602   1.479   3.361  16.394  0.0839  0.2605  0.0598
   13DOPE   H9R 1603   1.381   3.381  16.441  0.4657  1.9970  0.1767
   13DOPE  C210 1604   1.484   3.279  16.285 -0.3005  0.4440 -0.3503
   13DOPE  H10R 1605   1.387   3.245  16.244 -0.5252  0.8196 -0.1384
   13DOPE  C211 1606   1.609   3.217  16.226  0.0441 -0.7849 -0.2703
   13DOPE  H11R 1607   1.696   3.210  16.295 -1.0913  0.4569  1.3426
   13DOPE  H11S 1608   1.635   3.282  16.140  0.3499 -0.7931 -0.1863
   13DOPE  C212 1609   1.581   3.072  16.181  0.1722  0.0370  0.0466
   13DOPE  H12R 1610   1.499   3.075  16.106 -0.0833  3.4705  0.2837
   13DOPE  H12S 1611   1.552   3.028  16.278  0.3100  0.9147  0.5052
   13DOPE  C213 1612   1.701   2.995  16.112 -0.5633  0.1947 -0.1626
   13DOPE  H13R 1613   1.744   3.061  16.033  1.9846  0.4334  1.3208
   13DOPE  H13S 1614   1.658   2.905  16.063 -1.8093  0.8174 -0.2545
   13DOPE  C214 1615   1.809   2.964  16.210 -0.2042 -0.7640  0.0665
   13DOPE  H14R 1616   1.832   3.046  16.281  0.8734 -0.7613 -0.2610
   13DOPE  H14S 1617   1.904   2.933  16.161 -0.5223 -0.5851 -0.6763
   13DOPE  C215 1618   1.765   2.853  16.316 -0.6351  0.4307  0.0124
   13DOPE  H15R 1619   1.816   2.765  16.272  0.0271  1.0673 -0.5229
   13DOPE  H15S 1620   1.659   2.829  16.296 -0.5039 -0.6724  0.5705
   13DOPE  C216 1621   1.796   2.882  16.464  0.8812  0.4070  0.2834
   13DOPE  H16R 1622   1.900   2.904  16.496  0.8014  0.3375  0.5941
   13DOPE  H16S 1623   1.770   2.785  16.512  1.3741  0.6356  1.0308
   13DOPE  C217 1624   1.699   2.986  16.525 -0.2540  0.0813 -0.5054
   13DOPE  H17R 1625   1.595   2.974  16.489 -0.9381  1.1686  1.0032
   13DOPE  H17S 1626   1.740   3.081  16.486 -0.2448  0.5244  0.5744
   13DOPE  C218 1627   1.699   2.995  16.679  0.3729  0.3061  0.6854
   13DOPE  H18R 1628   1.660   2.904  16.731 -1.6918  1.0375  0.5067
   13DOPE  H18S 1629   1.637   3.081  16.713  2.1722  1.5270  1.0243
   13DOPE  H18T 1630   1.800   3.017  16.719  1.0468  0.3509 -0.9756
   13DOPE   C33 1631   1.898   2.707  16.941 -0.9626  0.2200  0.5859
   13DOPE   H3X 1632   1.792   2.674  16.934 -0.6345 -1.0030  1.2498
   13DOPE   H3Y 1633   1.952   2.631  17.000  0.8127  1.8607  1.1633
   13DOPE   C34 1634   1.951   2.715  16.797  0.0774  0.3667  0.5900
   13DOPE   H4X 1635   1.930   2.812  16.748  2.4723 -0.2267 -1.8698
   13DOPE   H4Y 1636   2.061   2.721  16.808  0.2285 -1.9939  0.8950
   13DOPE   C35 1637   1.914   2.601  16.706  0.1897 -0.5142 -0.8203
   13DOPE   H5X 1638   1.804   2.601  16.687 -0.2571 -2.2332  1.3224
   13DOPE   H5Y 1639   1.942   2.511  16.766  2.1867  0.2204 -0.6026
   13DOPE   C36 1640   1.996   2.600  16.580  0.7143 -0.0252  0.1437
   13DOPE   H6X 1641   2.102   2.629  16.598  0.1219  3.8328 -1.5416
   13DOPE   H6Y 1642   1.963   2.687  16.520  2.4657  2.1575  2.1746
   13DOPE   C37 1643   1.980   2.460  16.508 -0.0176 -0.2609  0.3399
   13DOPE   H7X 1644   2.009   2.368  16.563  0.3574 -1.1968 -1.3380
   13DOPE   H7Y 1645   1.874   2.445  16.481 -0.2633 -1.5648  1.8523
   13DOPE   C38 1646   2.057   2.456  16.375  0.2392  0.1912 -0.0877
   13DOPE   H8X 1647   2.163   2.443  16.404 -0.0231  0.8162  1.2616
   13DOPE   H8Y 1648   2.053   2.550  16.316  2.7336 -0.0977 -0.8297
   13DOPE   C39 1649   2.010   2.338  16.286  0.1021  0.0913  0.0739
   13DOPE   H9X 1650   1.901   2.340  16.275  0.1630 -1.4252 -1.0096
   13DOPE  C310 1651   2.086   2.242  16.226  0.0653 -0.0027 -0.3847
   13DOPE  H10X 1652   2.038   2.168  16.160 -0.2030  1.0994 -1.4609
   13DOPE  C311 1653   2.237   2.227  16.227  0.4167 -0.4975  0.3722
   13DOPE  H11X 1654   2.286   2.298  16.298 -1.3839 -0.3979  1.5876
   13DOPE  H11Y 1655   2.270   2.126  16.258 -1.0653 -1.1998 -0.2612
   13DOPE  C312 1656   2.295   2.253  16.087  0.9250  0.4643  0.3014
   13DOPE  H12X 1657   2.405   2.249  16.097  0.8122 -0.7736  1.2340
   13DOPE  H12Y 1658   2.282   2.358  16.052  3.0228 -0.0646 -2.3351
   13DOPE  C313 1659   2.266   2.153  15.974  0.1620  1.0415 -0.2393
   13DOPE  H13X 1660   2.298   2.056  16.018  0.6313  1.5303  0.5072
   13DOPE  H13Y 1661   2.159   2.143  15.944 -0.2772  1.4240  1.1137
   13DOPE  C314 1662   2.354   2.185  15.853  0.1313 -0.0777  0.7309
   13DOPE  H14X 1663   2.378   2.090  15.801  0.0167  0.1653  0.2333
   13DOPE  H14Y 1664   2.451   2.231  15.880  1.1965  0.3143 -3.2576
   13DOPE  C315 1665   2.287   2.288  15.765  0.2520 -0.2969 -0.2462
   13DOPE  H15X 1666   2.299   2.393  15.800 -2.7073 -0.4229  1.4903
   13DOPE  H15Y 1667   2.179   2.264  15.758  0.3244 -0.4671 -0.8329
   13DOPE  C316 1668   2.338   2.281  15.618  0.1806  0.2730  0.1428
   13DOPE  H16X 1669   2.314   2.180  15.579 -1.3090  0.7988 -0.3820
   13DOPE  H16Y 1670   2.446   2.297  15.637 -0.2767  2.3147  1.3105
   13DOPE  C317 1671   2.274   2.381  15.529 -0.8508 -0.5425 -0.0946
   13DOPE  H17X 1672   2.165   2.365  15.543 -0.6296 -1.4691  0.6253
   13DOPE  H17Y 1673   2.295   2.485  15.562 -0.3444 -0.6669 -0.0190
   13DOPE  C318 1674   2.303   2.373  15.382 -0.0188 -0.4737  0.3533
   13DOPE  H18X 1675   2.257   2.282  15.338 -0.2772 -0.4277  0.5241
   13DOPE  H18Y 1676   2.249   2.451  15.325  0.2215 -1.9121 -1.9884
   13DOPE  H18Z 1677   2.412   2.365  15.364 -0.1050 -1.9081  0.3569
   14DOPE     N 1678   6.656   5.100  16.973 -0.2377 -0.1782 -0.5359
   14DOPE   HN1 1679   6.582   5.027  16.977 -0.8807  0.3808 -1.7113
   14DOPE   HN2 1680   6.715   5.089  16.888 -1.0868  0.6746 -1.2631
   14DOPE   HN3 1681   6.706   5.088  17.063 -0.6003  0.9858 -0.1702
   14DOPE   C12 1682   6.603   5.233  16.978 -0.4501 -0.1548  0.6455
   14DOPE  H12A 1683   6.554   5.254  17.075 -1.0369 -0.2906  0.3821
   14DOPE  H12B 1684   6.517   5.248  16.909 -0.9478 -0.5162  1.1778
   14DOPE   C11 1685   6.709   5.343  16.946  0.1974 -0.4814 -0.3822
   14DOPE  H11A 1686   6.655   5.440  16.936  0.0134 -0.5524 -0.1107
   14DOPE  H11B 1687   6.766   5.323  16.853  0.5908  1.3661 -0.5792
   14DOPE     P 1688   6.783   5.441  17.182 -0.2065 -0.2788  0.4721
   14DOPE   O13 1689   6.897   5.416  17.273  0.4643  0.2719 -0.5283
   14DOPE   O14 1690   6.653   5.409  17.238 -0.1567 -0.0957  0.0980
   14DOPE   O11 1691   6.790   5.587  17.118 -0.4159 -0.9664  0.1589
   14DOPE   O12 1692   6.808   5.348  17.056  0.8238  0.1413  0.4334
   14DOPE    C1 1693   6.680   5.674  17.135 -0.8411  0.6611  0.2111
   14DOPE    HA 1694   6.713   5.780  17.142 -0.3894  0.5022  0.5634
   14DOPE    HB 1695   6.621   5.660  17.229  0.0775  1.2784  0.8936
   14DOPE    C2 1696   6.579   5.682  17.011 -1.0146  0.3574  0.6736
   14DOPE    HS 1697   6.527   5.780  17.021  0.1896  1.0125  0.6862
   14DOPE   O21 1698   6.489   5.576  16.993 -0.0250  0.3339  0.3476
   14DOPE   C21 1699   6.393   5.572  17.084  0.4125 -0.1754  0.5873
   14DOPE   O22 1700   6.367   5.662  17.162  0.8985  0.5047  0.2590
   14DOPE   C22 1701   6.305   5.453  17.063 -0.5817 -0.1527 -0.5400
   14DOPE   H2R 1702   6.228   5.464  17.143  2.2818  0.4361  2.3685
   14DOPE   H2S 1703   6.368   5.365  17.089  0.9126  0.5224 -1.6724
   14DOPE    C3 1704   6.656   5.696  16.876  0.9267  0.5473 -0.6007
   14DOPE    HX 1705   6.739   5.622  16.875 -1.2090 -2.0222 -1.4166
   14DOPE    HY 1706   6.705   5.795  16.880  1.6267  0.2258 -1.0324
   14DOPE   O31 1707   6.588   5.677  16.756 -0.5801  0.2008 -0.1247
   14DOPE   C31 1708   6.497   5.764  16.724  0.5600  0.9424  0.1877
   14DOPE   O32 1709   6.473   5.865  16.789  0.0421  0.4191 -0.1698
   14DOPE   C32 1710   6.430   5.716  16.596  0.1140 -0.8046  0.1590
   14DOPE   H2X 1711   6.513   5.672  16.538  0.5225  0.0341  0.0949
   14DOPE   H2Y 1712   6.348   5.643  16.616 -0.0452 -0.3100  1.4363
   14DOPE   C23 1713   6.253   5.447  16.917  0.3340  0.4720 -0.1866
   14DOPE   H3R 1714   6.212   5.345  16.898  1.7945  0.0990 -1.5190
   14DOPE   H3S 1715   6.337   5.463  16.846  0.4472  1.4729  0.1652
   14DOPE   C24 1716   6.123   5.534  16.893  0.5961 -0.1012 -0.6616
   14DOPE   H4R 1717   6.061   5.518  16.983  0.0852  0.8259 -0.8283
   14DOPE   H4S 1718   6.085   5.495  16.796 -0.2281 -0.9741 -0.0087
   14DOPE   C25 1719   6.141   5.685  16.865  0.7813 -0.5949  0.5733
   14DOPE   H5R 1720   6.192   5.693  16.767  0.5891 -2.3219  0.2902
   14DOPE   H5S 1721   6.199   5.736  16.944  0.9182  0.7487 -0.3707
   14DOPE   C26 1722   6.004   5.758  16.850  0.6572  0.0015 -0.4021
   14DOPE   H6R 1723   5.935   5.758  16.937 -0.0450  3.5936 -0.7978
   14DOPE   H6S 1724   5.949   5.710  16.766 -0.8439 -0.6438  0.9007
   14DOPE   C27 1725   6.034   5.905  16.807  0.6617  0.2968  0.2925
   14DOPE   H7R 1726   6.087   5.904  16.709 -1.2474 -2.8293 -0.8337
   14DOPE   H7S 1727   6.105   5.956  16.877  0.7467  1.3536 -0.5293
   14DOPE   C28 1728   5.906   5.982  16.798  1.2034  0.0736  0.1572
   14DOPE   H8R 1729   5.944   6.086  16.792  2.7701 -0.3937  1.2545
   14DOPE   H8S 1730   5.844   5.971  16.890  1.7875  0.2531  0.5862
   14DOPE   C29 1731   5.828   5.950  16.677  0.1329  0.3612  0.1346
   14DOPE   H9R 1732   5.777   5.854  16.693 -0.0138  0.4050 -0.0702
   14DOPE  C210 1733   5.833   5.997  16.552  0.5750  0.4517  0.8329
   14DOPE  H10R 1734   5.755   5.956  16.486  0.2470 -0.3115  1.6631
   14DOPE  C211 1735   5.906   6.119  16.503  0.1773  0.2272 -0.0913
   14DOPE  H11R 1736   5.935   6.179  16.593 -1.4362  0.0700  0.5611
   14DOPE  H11S 1737   5.848   6.184  16.434  0.7041  1.8256  0.8872
   14DOPE  C212 1738   6.029   6.083  16.418  0.9639 -0.0804  0.4284
   14DOPE  H12R 1739   5.997   6.023  16.330  1.6516  1.6156 -1.0705
   14DOPE  H12S 1740   6.105   6.016  16.463  0.4398 -2.1697 -1.6305
   14DOPE  C213 1741   6.087   6.207  16.350  0.0718  0.1580 -0.4694
   14DOPE  H13R 1742   6.143   6.266  16.425 -1.0272  2.3816 -1.3197
   14DOPE  H13S 1743   6.012   6.273  16.303  0.1520  0.1362 -0.6306
   14DOPE  C214 1744   6.193   6.187  16.235 -0.0291 -0.0391 -0.4898
   14DOPE  H14R 1745   6.147   6.139  16.147 -1.5578  1.2691 -0.4514
   14DOPE  H14S 1746   6.265   6.124  16.292 -0.9352 -0.5100  0.1482
   14DOPE  C215 1747   6.256   6.316  16.189 -0.2415 -0.3316  0.5163
   14DOPE  H15R 1748   6.332   6.350  16.264 -0.0735  1.8362 -0.5610
   14DOPE  H15S 1749   6.186   6.402  16.198  1.2425  1.1437 -1.1813
   14DOPE  C216 1750   6.323   6.312  16.048 -0.5217  0.3501  0.1724
   14DOPE  H16R 1751   6.269   6.244  15.978  0.5558 -0.4328  0.0793
   14DOPE  H16S 1752   6.421   6.261  16.062 -1.5017 -1.3315  1.3446
   14DOPE  C217 1753   6.339   6.455  15.987  0.1888 -0.4194  0.5750
   14DOPE  H17R 1754   6.381   6.520  16.066 -3.7171  3.1003  0.0484
   14DOPE  H17S 1755   6.245   6.509  15.963 -0.0417 -0.3852  1.5235
   14DOPE  C218 1756   6.434   6.460  15.870 -0.2142  0.3564 -0.1321
   14DOPE  H18R 1757   6.539   6.428  15.888 -0.2787  0.2655  0.0836
   14DOPE  H18S 1758   6.442   6.561  15.826  1.3379  0.1571 -0.3833
   14DOPE  H18T 1759   6.383   6.395  15.795  0.8546  0.8980 -1.3779
   14DOPE   C33 1760   6.374   5.836  16.510  0.3611 -0.4727 -0.5729
   14DOPE   H3X 1761   6.458   5.901  16.478  0.9580 -0.7945  0.2948
   14DOPE   H3Y 1762   6.303   5.894  16.573  1.0726 -1.9244  1.7170
   14DOPE   C34 1763   6.285   5.808  16.386 -0.1028  1.4152  0.0707
   14DOPE   H4X 1764   6.205   5.745  16.429 -0.2187  2.8513  2.1101
   14DOPE   H4Y 1765   6.242   5.897  16.335  0.6955  0.0512 -3.2964
   14DOPE   C35 1766   6.354   5.725  16.271 -0.2734 -0.0870  0.5928
   14DOPE   H5X 1767   6.423   5.642  16.300 -1.0697 -0.6770  0.8398
   14DOPE   H5Y 1768   6.417   5.795  16.211  0.8697 -1.1358  0.5143
   14DOPE   C36 1769   6.255   5.657  16.169 -0.1042  0.0070 -0.7871
   14DOPE   H6X 1770   6.200   5.740  16.120  0.0952  0.6936  0.1187
   14DOPE   H6Y 1771   6.197   5.587  16.232 -0.3928 -0.4515 -1.5540
   14DOPE   C37 1772   6.327   5.565  16.064  0.0509  0.0790  0.0495
   14DOPE   H7X 1773   6.394   5.493  16.115 -0.1608 -0.2262 -0.0952
   14DOPE   H7Y 1774   6.245   5.510  16.013 -0.7869  0.3103  1.1093
   14DOPE   C38 1775   6.411   5.650  15.975  0.4697 -0.1934  0.7259
   14DOPE   H8X 1776   6.503   5.688  16.023  1.4805 -1.6545  0.0165
   14DOPE   H8Y 1777   6.361   5.747  15.952  0.7826  0.0476  1.0541
   14DOPE   C39 1778   6.446   5.596  15.839 -0.5505  0.3133  0.5446
   14DOPE   H9X 1779   6.362   5.569  15.773  0.1939  1.6268 -1.0092
   14DOPE  C310 1780   6.575   5.563  15.802 -0.4305  0.3473  0.1042
   14DOPE  H10X 1781   6.596   5.543  15.696  1.9576  1.0383  0.4016
   14DOPE  C311 1782   6.709   5.586  15.874  0.6096 -0.8423 -0.2529
   14DOPE  H11X 1783   6.716   5.687  15.918 -0.6403 -1.0925  0.5958
   14DOPE  H11Y 1784   6.710   5.521  15.964  0.0787  0.5518  0.7864
   14DOPE  C312 1785   6.823   5.566  15.778  0.4080  0.3106  0.0934
   14DOPE  H12X 1786   6.830   5.459  15.748  0.5468  0.5399 -0.7114
   14DOPE  H12Y 1787   6.917   5.590  15.833  1.2045 -0.6791 -0.7818
   14DOPE  C313 1788   6.827   5.666  15.656 -0.1473  0.2819 -0.4411
   14DOPE  H13X 1789   6.744   5.662  15.582  0.5869 -1.7137 -1.2348
   14DOPE  H13Y 1790   6.841   5.771  15.690  0.4636  0.0896 -0.0797
   14DOPE  C314 1791   6.947   5.633  15.572  0.3289  0.1195  0.3459
   14DOPE  H14X 1792   7.032   5.645  15.642  1.2034  0.8665 -0.8134
   14DOPE  H14Y 1793   6.955   5.709  15.491 -1.5317 -0.4493 -0.4173
   14DOPE  C315 1794   6.936   5.483  15.508 -0.7884 -0.1743  0.3093
   14DOPE  H15X 1795   6.830   5.458  15.485 -0.4673 -0.9301 -0.4012
   14DOPE  H15Y 1796   6.971   5.409  15.583 -0.4056 -0.2753  0.0342
   14DOPE  C316 1797   7.011   5.465  15.372 -0.2642 -0.0121  0.7674
   14DOPE  H16X 1798   6.962   5.515  15.285  0.1856 -2.0917 -0.7554
   14DOPE  H16Y 1799   6.998   5.357  15.350  1.5070  0.2412 -2.0397
   14DOPE  C317 1800   7.160   5.477  15.371 -1.0247 -0.0272  0.0668
   14DOPE  H17X 1801   7.187   5.572  15.422 -2.0716 -0.3737  1.3318
   14DOPE  H17Y 1802   7.207   5.400  15.435 -0.8891 -0.9155 -1.0695
   14DOPE  C318 1803   7.229   5.460  15.236 -0.3521  0.2210  0.0815
   14DOPE  H18X 1804   7.222   5.352  15.210 -1.3469  0.1739  0.4940
   14DOPE  H18Y 1805   7.181   5.529  15.162  1.5080  0.0460 -1.3501
   14DOPE  H18Z 1806   7.336   5.486  15.243 -0.3094  0.5086 -1.3157
   15DOPE     N 1807   0.163   3.910  17.653 -0.2158  0.3313  0.4629
   15DOPE   HN1 1808   0.209   3.967  17.579 -0.0369 -0.7419 -0.2767
   15DOPE   HN2 1809   0.103   3.849  17.593 -1.6786  0.5621  1.6228
   15DOPE   HN3 1810   0.115   3.973  17.721 -1.6503  2.2613 -2.1126
   15DOPE   C12 1811   0.257   3.806  17.701  0.7490  0.0543 -0.5008
   15DOPE  H12A 1812   0.198   3.729  17.755 -0.2350  0.9971 -0.1682
   15DOPE  H12B 1813   0.321   3.860  17.774 -0.3671 -1.3493  1.6310
   15DOPE   C11 1814   0.334   3.740  17.586  1.0551 -0.3197 -0.3766
   15DOPE  H11A 1815   0.260   3.673  17.538  1.4671 -0.6214 -0.6006
   15DOPE  H11B 1816   0.419   3.679  17.623 -0.1945 -0.5424  2.4463
   15DOPE     P 1817   0.521   3.892  17.491 -0.3348 -0.1654  0.7676
   15DOPE   O13 1818   0.585   3.859  17.619 -0.2601 -0.3006 -0.4703
   15DOPE   O14 1819   0.524   4.023  17.433 -0.8159 -0.1196 -0.1265
   15DOPE   O11 1820   0.588   3.795  17.389  0.3840  0.1401  0.0868
   15DOPE   O12 1821   0.372   3.833  17.492  0.1102 -0.5419  0.1275
   15DOPE    C1 1822   0.573   3.662  17.339  0.4255 -0.1495 -0.2103
   15DOPE    HA 1823   0.506   3.607  17.407 -1.1697 -1.0949 -2.4200
   15DOPE    HB 1824   0.672   3.612  17.347  0.0680 -0.6864  0.9503
   15DOPE    C2 1825   0.502   3.649  17.195 -0.5288 -0.8207 -0.7512
   15DOPE    HS 1826   0.484   3.542  17.170 -1.9162 -0.5860 -0.8467
   15DOPE   O21 1827   0.585   3.710  17.097  0.2678  0.2439  0.2744
   15DOPE   C21 1828   0.699   3.641  17.064  0.1715 -0.2006  0.1050
   15DOPE   O22 1829   0.711   3.520  17.079 -0.1261  0.6734  0.1089
   15DOPE   C22 1830   0.794   3.724  16.991  0.0174  0.1736  0.5364
   15DOPE   H2R 1831   0.736   3.801  16.937 -1.6960 -2.0389 -0.9755
   15DOPE   H2S 1832   0.840   3.658  16.914 -1.9845  0.9059 -1.3882
   15DOPE    C3 1833   0.357   3.717  17.199  0.6685  1.1934 -0.7461
   15DOPE    HX 1834   0.362   3.822  17.234 -0.1475  1.6555 -1.9490
   15DOPE    HY 1835   0.293   3.665  17.273  1.5093  3.0479  1.3961
   15DOPE   O31 1836   0.295   3.714  17.074  0.3505  0.0870  0.4201
   15DOPE   C31 1837   0.226   3.599  17.041 -0.2848  0.2392  0.1678
   15DOPE   O32 1838   0.221   3.498  17.104 -0.1202  0.4954 -0.0270
   15DOPE   C32 1839   0.181   3.599  16.892  0.0844  0.0398  0.1652
   15DOPE   H2X 1840   0.196   3.492  16.869 -0.8794  0.1062 -0.8740
   15DOPE   H2Y 1841   0.075   3.628  16.878 -0.5925 -1.9164  0.8932
   15DOPE   C23 1842   0.891   3.801  17.082 -0.2847 -0.1891 -1.0298
   15DOPE   H3R 1843   0.972   3.739  17.126  0.7411  2.0062  0.2946
   15DOPE   H3S 1844   0.842   3.866  17.157  3.8960  0.8327  1.1524
   15DOPE   C24 1845   0.966   3.904  17.001  0.1445  0.4400  0.0456
   15DOPE   H4R 1846   1.047   3.954  17.059 -0.1268 -0.0020  0.8201
   15DOPE   H4S 1847   0.904   3.990  16.966  0.7551  1.6998  1.8807
   15DOPE   C25 1848   1.050   3.855  16.878  0.6467 -0.3260 -0.1430
   15DOPE   H5R 1849   0.986   3.790  16.814 -2.8444  1.0597  1.6502
   15DOPE   H5S 1850   1.134   3.804  16.929  0.0985  0.0466  1.1951
   15DOPE   C26 1851   1.109   3.967  16.793 -0.3144 -0.9900 -0.2557
   15DOPE   H6R 1852   1.204   4.001  16.839  0.7323 -3.4033 -0.4935
   15DOPE   H6S 1853   1.042   4.055  16.793  0.9440  0.0701  2.1602
   15DOPE   C27 1854   1.155   3.930  16.653 -0.5213  0.1475 -0.3899
   15DOPE   H7R 1855   1.186   4.024  16.603 -3.4185  0.8502 -1.0643
   15DOPE   H7S 1856   1.070   3.901  16.587  1.1386  0.7413 -2.9447
   15DOPE   C28 1857   1.262   3.819  16.629  0.4517 -0.5322  0.1988
   15DOPE   H8R 1858   1.226   3.748  16.706 -0.5827  1.4649  1.6384
   15DOPE   H8S 1859   1.362   3.855  16.659  0.2442 -0.9463  1.4352
   15DOPE   C29 1860   1.282   3.744  16.500 -0.6133 -0.6289  0.5435
   15DOPE   H9R 1861   1.361   3.770  16.428 -1.3922 -1.3732 -0.6019
   15DOPE  C210 1862   1.206   3.643  16.456 -0.4646 -0.7685  0.1111
   15DOPE  H10R 1863   1.229   3.593  16.360 -0.5685 -1.2425  0.3285
   15DOPE  C211 1864   1.093   3.590  16.536 -0.4750  0.1023  0.2390
   15DOPE  H11R 1865   1.010   3.560  16.469  0.4443 -1.2204 -0.3605
   15DOPE  H11S 1866   1.042   3.670  16.593  0.1073  1.9605 -1.7107
   15DOPE  C212 1867   1.130   3.468  16.626  0.2944  0.8568 -0.0402
   15DOPE  H12R 1868   1.206   3.498  16.701 -0.4012 -1.5945  1.7802
   15DOPE  H12S 1869   1.174   3.383  16.570 -0.6099  0.3588 -0.0207
   15DOPE  C213 1870   1.008   3.407  16.700 -0.1858 -0.1049 -0.0500
   15DOPE  H13R 1871   0.944   3.492  16.733  0.0262  0.4600 -1.0410
   15DOPE  H13S 1872   1.053   3.374  16.796  0.0451  0.6652  0.1137
   15DOPE  C214 1873   0.944   3.302  16.613 -0.3153 -0.3002  0.1294
   15DOPE  H14R 1874   1.018   3.239  16.560  0.4542  0.3922  0.3686
   15DOPE  H14S 1875   0.879   3.345  16.534  0.5460 -0.7616 -0.8532
   15DOPE  C215 1876   0.859   3.202  16.692  0.3981 -0.2170 -0.5140
   15DOPE  H15R 1877   0.913   3.193  16.789  0.5442  0.0200 -0.5725
   15DOPE  H15S 1878   0.854   3.102  16.645  0.0710 -0.5547  0.2211
   15DOPE  C216 1879   0.721   3.259  16.731 -0.8714 -0.3695  0.2261
   15DOPE  H16R 1880   0.660   3.290  16.643  0.5392  0.9969 -0.2941
   15DOPE  H16S 1881   0.735   3.342  16.803  2.2628 -0.9970  0.4775
   15DOPE  C217 1882   0.646   3.160  16.814 -0.0050  0.6974 -0.5275
   15DOPE  H17R 1883   0.705   3.141  16.907 -1.0153  3.7127  0.8631
   15DOPE  H17S 1884   0.633   3.065  16.758  0.2073  0.3528  0.0010
   15DOPE  C218 1885   0.510   3.216  16.874 -0.4382 -0.0434  0.2371
   15DOPE  H18R 1886   0.465   3.263  16.784  2.1643  0.6814 -0.7792
   15DOPE  H18S 1887   0.531   3.288  16.956 -3.0029  2.1336 -0.8999
   15DOPE  H18T 1888   0.448   3.128  16.902 -0.1588 -0.3696 -0.1585
   15DOPE   C33 1889   0.281   3.677  16.803 -0.4550 -0.0091 -0.1236
   15DOPE   H3X 1890   0.303   3.777  16.845  1.7317 -0.6484  0.4046
   15DOPE   H3Y 1891   0.223   3.689  16.709  1.2811  0.7397 -1.1454
   15DOPE   C34 1892   0.413   3.613  16.773  0.1360 -1.0897  0.0641
   15DOPE   H4X 1893   0.469   3.613  16.869  1.4216  2.2312 -0.5665
   15DOPE   H4Y 1894   0.398   3.509  16.737 -3.5676 -0.0827 -1.7262
   15DOPE   C35 1895   0.492   3.707  16.681  0.1736  0.4532  0.1639
   15DOPE   H5X 1896   0.485   3.801  16.738 -3.4341  1.7719 -2.0996
   15DOPE   H5Y 1897   0.423   3.715  16.594 -1.2326 -2.7390  0.8339
   15DOPE   C36 1898   0.633   3.656  16.644  0.3133 -0.0436 -0.7779
   15DOPE   H6X 1899   0.635   3.567  16.578  2.6018 -1.6618  1.3058
   15DOPE   H6Y 1900   0.681   3.628  16.740  0.9171  1.5259 -0.5887
   15DOPE   C37 1901   0.732   3.755  16.592 -0.3184  0.4660 -0.7413
   15DOPE   H7X 1902   0.743   3.826  16.677  1.3755 -1.0495  0.3804
   15DOPE   H7Y 1903   0.825   3.699  16.570 -0.3760 -0.1931  0.5659
   15DOPE   C38 1904   0.680   3.847  16.483  0.5585 -0.0534  0.1297
   15DOPE   H8X 1905   0.741   3.937  16.459 -0.3153  0.2100 -1.3091
   15DOPE   H8Y 1906   0.587   3.899  16.516 -0.0972  0.7669 -2.6856
   15DOPE   C39 1907   0.663   3.768  16.355  0.0733  0.1493 -0.2638
   15DOPE   H9X 1908   0.562   3.726  16.348  0.3070 -1.0006  2.1424
   15DOPE  C310 1909   0.753   3.765  16.253  0.3225  0.2143 -0.1754
   15DOPE  H10X 1910   0.721   3.706  16.165 -1.3795 -1.0043  1.1939
   15DOPE  C311 1911   0.889   3.833  16.252 -0.9977 -0.6165  0.1037
   15DOPE  H11X 1912   0.917   3.858  16.357 -1.5760 -0.1495  0.1458
   15DOPE  H11Y 1913   0.971   3.773  16.206 -1.3401 -1.0684  0.0783
   15DOPE  C312 1914   0.874   3.967  16.181  0.4257 -0.6168  0.0956
   15DOPE  H12X 1915   0.966   4.028  16.192  0.5473 -0.8541  0.4353
   15DOPE  H12Y 1916   0.796   4.024  16.235 -0.4473  0.7054 -2.4222
   15DOPE  C313 1917   0.842   3.956  16.028 -0.0705  0.2562 -0.5831
   15DOPE  H13X 1918   0.939   3.934  15.980 -1.1938 -1.9462 -2.0272
   15DOPE  H13Y 1919   0.779   3.865  16.016 -0.1483 -0.1161  1.9401
   15DOPE  C314 1920   0.766   4.078  15.971  0.3040  0.2058 -0.2096
   15DOPE  H14X 1921   0.686   4.103  16.043 -0.3061 -0.7740 -0.5358
   15DOPE  H14Y 1922   0.720   4.044  15.876 -0.4253 -0.1163  0.2553
   15DOPE  C315 1923   0.849   4.199  15.957 -0.5781 -0.1644 -0.1396
   15DOPE  H15X 1924   0.904   4.210  16.052  0.2295 -1.0187 -0.4860
   15DOPE  H15Y 1925   0.771   4.277  15.954 -1.3361 -0.2550  5.7700
   15DOPE  C316 1926   0.944   4.213  15.834  0.5756  0.5309  0.1252
   15DOPE  H16X 1927   0.876   4.214  15.746  0.3858  0.1673  0.2676
   15DOPE  H16Y 1928   1.023   4.135  15.823  0.5612  0.5389 -0.0398
   15DOPE  C317 1929   1.029   4.341  15.839  0.9241  0.0895 -0.7857
   15DOPE  H17X 1930   0.968   4.430  15.865  0.3623 -0.5838  0.2762
   15DOPE  H17Y 1931   1.102   4.332  15.923 -0.0534  1.5351  0.2739
   15DOPE  C318 1932   1.105   4.386  15.717  0.3451 -0.8114 -0.1465
   15DOPE  H18X 1933   1.178   4.466  15.743 -1.5763  1.2477 -0.7982
   15DOPE  H18Y 1934   1.162   4.300  15.677  0.5212  0.4444 -2.8533
   15DOPE  H18Z 1935   1.038   4.429  15.639  1.9396 -1.3639 -1.9008
   16DOPE     N 1936   0.076   5.123  17.223 -0.2971 -0.0917 -0.5736
   16DOPE   HN1 1937  -0.024   5.151  17.221 -0.2314  0.3393  0.9519
   16DOPE   HN2 1938   0.077   5.019  17.225  0.6338 -0.0973 -0.7940
   16DOPE   HN3 1939   0.116   5.160  17.311 -0.7764  0.5370 -0.6178
   16DOPE   C12 1940   0.164   5.174  17.114 -0.2175  0.0418 -0.4241
   16DOPE  H12A 1941   0.137   5.129  17.016  2.9823 -0.1282 -1.3423
   16DOPE  H12B 1942   0.264   5.128  17.127 -0.1351  0.3001 -0.1277
   16DOPE   C11 1943   0.156   5.326  17.117  0.0968  0.4601 -0.1174
   16DOPE  H11A 1944   0.049   5.355  17.113  0.1778  0.9824  1.1110
   16DOPE  H11B 1945   0.211   5.343  17.022 -0.8242  0.0457 -0.7414
   16DOPE     P 1946   0.245   5.533  17.247  0.4482 -0.4497 -0.1852
   16DOPE   O13 1947   0.353   5.549  17.346 -0.1235  0.5892 -0.0112
   16DOPE   O14 1948   0.115   5.603  17.262 -0.0776 -0.1258  0.1474
   16DOPE   O11 1949   0.299   5.553  17.103 -0.1084  0.4166  0.8371
   16DOPE   O12 1950   0.216   5.372  17.239  0.1804 -0.3629 -0.2800
   16DOPE    C1 1951   0.446   5.560  17.085  0.8971 -0.2520  0.5990
   16DOPE    HA 1952   0.482   5.466  17.132 -2.5774 -1.5633  0.8942
   16DOPE    HB 1953   0.491   5.652  17.128  1.4199  2.2640 -4.5731
   16DOPE    C2 1954   0.501   5.556  16.935 -0.4582 -0.4937 -1.2390
   16DOPE    HS 1955   0.494   5.662  16.903 -0.5669  0.1847  0.8190
   16DOPE   O21 1956   0.435   5.472  16.846  0.3602 -0.1375  0.0486
   16DOPE   C21 1957   0.345   5.515  16.760  0.5035  0.1196 -0.7153
   16DOPE   O22 1958   0.315   5.631  16.743  0.7881  0.4127 -0.1952
   16DOPE   C22 1959   0.274   5.397  16.689 -0.2108 -0.0037  0.4466
   16DOPE   H2R 1960   0.187   5.376  16.755  1.3087 -0.0245  2.5551
   16DOPE   H2S 1961   0.349   5.316  16.698  0.3819  0.5789  0.8700
   16DOPE    C3 1962   0.656   5.516  16.931 -0.1222 -0.2334 -0.0849
   16DOPE    HX 1963   0.681   5.432  16.999  0.8675  0.3958  0.3431
   16DOPE    HY 1964   0.705   5.609  16.965 -3.0808  2.4783 -2.5124
   16DOPE   O31 1965   0.704   5.472  16.805  0.1410  0.4769  0.3910
   16DOPE   C31 1966   0.729   5.571  16.715  0.2167 -0.1608 -0.2314
   16DOPE   O32 1967   0.703   5.688  16.747  0.1282  0.6627  0.7161
   16DOPE   C32 1968   0.794   5.528  16.584  0.2028  0.2430  0.8088
   16DOPE   H2X 1969   0.888   5.475  16.609  1.1435  1.3800 -0.2305
   16DOPE   H2Y 1970   0.732   5.453  16.529  1.0265  0.9724 -1.1848
   16DOPE   C23 1971   0.275   5.428  16.541  1.0399  0.1835  0.2651
   16DOPE   H3R 1972   0.228   5.526  16.515 -1.3539 -1.0839 -0.4617
   16DOPE   H3S 1973   0.220   5.347  16.489  1.7558 -0.6471  0.7863
   16DOPE   C24 1974   0.414   5.427  16.478 -0.2055 -0.1116  0.6034
   16DOPE   H4R 1975   0.462   5.332  16.506 -1.0631 -0.4191  1.0609
   16DOPE   H4S 1976   0.470   5.510  16.525 -0.8628  0.0854  1.0514
   16DOPE   C25 1977   0.399   5.442  16.327 -0.0881  0.1770 -0.3295
   16DOPE   H5R 1978   0.322   5.522  16.318 -1.8383 -1.1221  2.0856
   16DOPE   H5S 1979   0.356   5.349  16.283  0.5404 -0.1784 -0.1865
   16DOPE   C26 1980   0.531   5.495  16.268  0.1345 -0.1343 -0.1866
   16DOPE   H6R 1981   0.613   5.443  16.321  1.7365  2.5227  0.0954
   16DOPE   H6S 1982   0.547   5.602  16.295 -1.6789  0.7123 -2.1349
   16DOPE   C27 1983   0.556   5.477  16.124  0.4589 -0.4742 -0.6244
   16DOPE   H7R 1984   0.650   5.519  16.082  1.2662 -2.8062 -1.2917
   16DOPE   H7S 1985   0.483   5.538  16.066  1.6689 -0.2391 -1.9651
   16DOPE   C28 1986   0.557   5.324  16.097  0.4389  0.0790  0.3772
   16DOPE   H8R 1987   0.465   5.270  16.130 -0.3443  0.8577 -0.4709
   16DOPE   H8S 1988   0.636   5.282  16.163  1.2710 -0.5986 -1.0135
   16DOPE   C29 1989   0.589   5.295  15.957 -0.1328  0.4183 -0.5923
   16DOPE   H9R 1990   0.696   5.307  15.936  0.4150  0.0115  1.6854
   16DOPE  C210 1991   0.504   5.247  15.868 -0.1309 -0.0777 -0.4828
   16DOPE  H10R 1992   0.543   5.229  15.767  2.3618 -0.1518  0.4154
   16DOPE  C211 1993   0.360   5.203  15.894 -0.2090 -0.0662  0.2949
   16DOPE  H11R 1994   0.302   5.297  15.886  0.5475  0.2582 -2.2857
   16DOPE  H11S 1995   0.338   5.161  15.995 -0.5240 -1.1361 -0.2050
   16DOPE  C212 1996   0.303   5.110  15.791 -0.4369  0.1288  0.2323
   16DOPE  H12R 1997   0.310   5.155  15.689  1.5568  0.8684  0.6414
   16DOPE  H12S 1998   0.196   5.100  15.819 -0.4704  1.9705  0.9310
   16DOPE  C213 1999   0.363   4.971  15.789 -0.1875  0.2193  0.6388
   16DOPE  H13R 2000   0.312   4.918  15.872 -0.0556 -0.0299  0.5623
   16DOPE  H13S 2001   0.467   4.970  15.829  0.1151 -0.0690 -0.1479
   16DOPE  C214 2002   0.350   4.891  15.652 -0.2169 -0.0077 -0.4242
   16DOPE  H14R 2003   0.396   4.790  15.664 -0.5150 -0.1222 -0.2355
   16DOPE  H14S 2004   0.413   4.938  15.574  0.3509 -1.7418 -1.0687
   16DOPE  C215 2005   0.203   4.879  15.603  0.0011  0.3121  0.1395
   16DOPE  H15R 2006   0.207   4.836  15.501  0.4863  3.1838 -1.1394
   16DOPE  H15S 2007   0.175   4.985  15.588  1.2005  0.9786  2.1492
   16DOPE  C216 2008   0.101   4.805  15.688 -0.3973  0.2527  0.0039
   16DOPE  H16R 2009   0.005   4.813  15.632 -1.0905 -0.9847  0.9864
   16DOPE  H16S 2010   0.097   4.863  15.783  1.3800 -1.6007  1.2884
   16DOPE  C217 2011   0.140   4.657  15.720  0.1716 -0.2359 -0.6172
   16DOPE  H17R 2012   0.060   4.616  15.786 -0.7449 -0.2470 -1.7025
   16DOPE  H17S 2013   0.229   4.663  15.787  0.1904 -2.7293 -0.2873
   16DOPE  C218 2014   0.160   4.567  15.605  0.3635  0.5096 -0.2112
   16DOPE  H18R 2015   0.205   4.479  15.655 -1.7833  1.6181  4.1691
   16DOPE  H18S 2016   0.224   4.601  15.521 -1.9200  0.7578 -1.9569
   16DOPE  H18T 2017   0.069   4.534  15.550  0.4101  1.3484 -0.8098
   16DOPE   C33 2018   0.804   5.651  16.488 -0.1834  0.8821 -0.2166
   16DOPE   H3X 2019   0.847   5.744  16.530  0.4653 -0.1588  1.5157
   16DOPE   H3Y 2020   0.705   5.673  16.443 -0.3024 -0.1660 -0.5047
   16DOPE   C34 2021   0.890   5.624  16.363  0.2714  0.7716  0.4455
   16DOPE   H4X 2022   0.992   5.603  16.401  0.3695  0.4577  0.0151
   16DOPE   H4Y 2023   0.857   5.528  16.317  0.6392  0.3989  0.9566
   16DOPE   C35 2024   0.891   5.751  16.285 -0.3925  0.3486  0.0788
   16DOPE   H5X 2025   0.904   5.824  16.368 -1.7551 -2.5161  3.0637
   16DOPE   H5Y 2026   0.792   5.764  16.237 -0.2962  1.1097  0.0778
   16DOPE   C36 2027   0.991   5.768  16.162 -0.0116  0.2420 -0.1826
   16DOPE   H6X 2028   1.093   5.780  16.202  0.1176  1.3949 -0.8153
   16DOPE   H6Y 2029   0.974   5.865  16.109  3.4058  1.0544  0.0152
   16DOPE   C37 2030   0.957   5.642  16.080 -0.1036 -0.0836  0.1224
   16DOPE   H7X 2031   0.996   5.555  16.137  1.9638 -0.7250 -2.0643
   16DOPE   H7Y 2032   0.848   5.633  16.065  0.0362  0.1798 -1.2256
   16DOPE   C38 2033   1.011   5.642  15.928 -0.0930 -0.5244 -1.1045
   16DOPE   H8X 2034   1.122   5.655  15.936 -0.5614  3.9379  2.4728
   16DOPE   H8Y 2035   0.976   5.738  15.885  0.1950  0.6745  1.1971
   16DOPE   C39 2036   0.974   5.528  15.842  0.0597  0.3636 -0.0716
   16DOPE   H9X 2037   1.037   5.438  15.834 -0.2959  0.2121 -1.3772
   16DOPE  C310 2038   0.869   5.534  15.754 -0.8894  0.0887  0.1057
   16DOPE  H10X 2039   0.852   5.459  15.675 -1.2889 -0.3880  0.6351
   16DOPE  C311 2040   0.765   5.638  15.752 -0.1929 -0.6106 -0.3784
   16DOPE  H11X 2041   0.743   5.676  15.854 -1.2474 -2.7095  0.2393
   16DOPE  H11Y 2042   0.804   5.719  15.686  2.1821 -2.2823 -1.1904
   16DOPE  C312 2043   0.638   5.585  15.701  0.1765 -0.4662  0.6235
   16DOPE  H12X 2044   0.602   5.503  15.766 -0.8245 -0.1247  0.5164
   16DOPE  H12Y 2045   0.634   5.538  15.601 -2.2575 -1.7037  1.2447
   16DOPE  C313 2046   0.530   5.688  15.699 -0.3881  0.1964 -0.5963
   16DOPE  H13X 2047   0.526   5.737  15.799 -2.2257  1.3607 -1.1916
   16DOPE  H13Y 2048   0.544   5.763  15.618 -0.1134  0.8083  0.0070
   16DOPE  C314 2049   0.387   5.627  15.677 -0.4429 -0.1641  0.2102
   16DOPE  H14X 2050   0.313   5.708  15.690  0.2033  0.1397  2.3913
   16DOPE  H14Y 2051   0.373   5.545  15.751  0.6939 -0.8084 -0.2559
   16DOPE  C315 2052   0.369   5.569  15.541 -0.0028 -0.4898  0.8594
   16DOPE  H15X 2053   0.429   5.476  15.530  0.8680  0.2878 -1.4129
   16DOPE  H15Y 2054   0.411   5.641  15.468  1.1067 -0.4012  1.5673
   16DOPE  C316 2055   0.227   5.521  15.514 -0.0020  0.1519 -0.1883
   16DOPE  H16X 2056   0.171   5.496  15.606 -1.3262  0.3161 -0.9131
   16DOPE  H16Y 2057   0.226   5.439  15.440 -0.3238  0.6374 -0.7382
   16DOPE  C317 2058   0.154   5.636  15.442 -0.1449 -0.7967  0.5235
   16DOPE  H17X 2059   0.185   5.728  15.495  1.5504 -0.6957 -0.5761
   16DOPE  H17Y 2060   0.189   5.650  15.337  1.9460  1.0714  1.3986
   16DOPE  C318 2061   0.009   5.607  15.426  0.5703  0.3030  0.1143
   16DOPE  H18X 2062  -0.005   5.505  15.386 -1.4463  0.3977  0.4789
   16DOPE  H18Y 2063  -0.036   5.604  15.528 -1.1074 -0.0416 -0.6165
   16DOPE  H18Z 2064  -0.043   5.689  15.373 -0.0819  0.2204  0.6166
   17DOPE     N 2065   1.571   0.342  16.852  1.0750  0.2421 -0.3275
   17DOPE   HN1 2066   1.584   0.401  16.768 -1.1604  0.8681 -0.3069
   17DOPE   HN2 2067   1.502   0.268  16.825 -0.0634  0.8713  0.7852
   17DOPE   HN3 2068   1.534   0.404  16.927  3.0538  1.0612  0.0432
   17DOPE   C12 2069   1.701   0.280  16.897 -0.1113 -0.2211 -0.4683
   17DOPE  H12A 2070   1.771   0.366  16.900 -1.0613  0.5533  2.2383
   17DOPE  H12B 2071   1.742   0.209  16.822  1.4430 -0.3508  0.4646
   17DOPE   C11 2072   1.691   0.212  17.036 -0.3947  0.2802 -0.0701
   17DOPE  H11A 2073   1.653   0.287  17.109  1.4818  2.4528 -1.2274
   17DOPE  H11B 2074   1.793   0.173  17.056 -0.5058 -0.3744 -0.7367
   17DOPE     P 2075   1.624  -0.051  17.052 -0.1040 -0.0917  0.0988
   17DOPE   O13 2076   1.509  -0.124  16.996 -0.2054  0.5070  0.2138
   17DOPE   O14 2077   1.670  -0.073  17.187 -1.0323 -0.2031  0.0763
   17DOPE   O11 2078   1.750  -0.055  16.951  0.2059  0.0173  0.2869
   17DOPE   O12 2079   1.593   0.104  17.026  0.3420 -0.6216 -0.8271
   17DOPE    C1 2080   1.753  -0.147  16.845  1.2989  0.0566 -0.0419
   17DOPE    HA 2081   1.662  -0.210  16.832 -2.5183  4.8061  0.7078
   17DOPE    HB 2082   1.838  -0.212  16.872  1.2793  0.5369  1.2353
   17DOPE    C2 2083   1.781  -0.058  16.718 -0.0445  0.0608 -0.0004
   17DOPE    HS 2084   1.826  -0.128  16.645  2.5229  1.4339  0.1605
   17DOPE   O21 2085   1.878   0.051  16.735  0.3954 -0.4518  0.1657
   17DOPE   C21 2086   1.990   0.022  16.789 -0.2401 -0.6863 -0.2272
   17DOPE   O22 2087   2.029  -0.089  16.818 -0.1883 -0.5428 -0.2917
   17DOPE   C22 2088   2.061   0.160  16.787  0.1305  0.3729 -0.2178
   17DOPE   H2R 2089   2.022   0.212  16.877 -0.7867 -0.3178 -0.2082
   17DOPE   H2S 2090   2.032   0.217  16.696  0.1868 -2.8800 -2.4397
   17DOPE    C3 2091   1.643  -0.001  16.653  0.2164  0.7379 -0.6919
   17DOPE    HX 2092   1.602   0.076  16.721 -1.8897 -0.0944 -0.9726
   17DOPE    HY 2093   1.569  -0.084  16.655  0.7688  0.2337 -0.7936
   17DOPE   O31 2094   1.672   0.039  16.526 -0.2521  0.1263  1.1205
   17DOPE   C31 2095   1.710   0.159  16.502 -0.3825  0.2779  0.3675
   17DOPE   O32 2096   1.722   0.247  16.584  0.6952  0.9679 -0.0148
   17DOPE   C32 2097   1.736   0.179  16.354 -0.2650  0.8665 -0.4320
   17DOPE   H2X 2098   1.674   0.116  16.287 -1.3666  1.1673  0.2768
   17DOPE   H2Y 2099   1.689   0.279  16.340 -3.3140 -0.3956 -0.1079
   17DOPE   C23 2100   2.213   0.153  16.801 -0.1590 -0.5183 -0.3444
   17DOPE   H3R 2101   2.244   0.104  16.895  0.6992  0.7591  0.0746
   17DOPE   H3S 2102   2.245   0.258  16.820  0.1318 -0.8639  1.2060
   17DOPE   C24 2103   2.286   0.099  16.682  0.0345 -0.0640  0.1608
   17DOPE   H4R 2104   2.258  -0.006  16.656  0.7652  0.2570 -2.1879
   17DOPE   H4S 2105   2.392   0.094  16.714  0.2647  0.6617 -0.4587
   17DOPE   C25 2106   2.252   0.172  16.553 -0.0479 -0.1729  0.4401
   17DOPE   H5R 2107   2.279   0.280  16.560  1.6539 -0.5653  0.5053
   17DOPE   H5S 2108   2.145   0.162  16.526 -0.2703 -1.5343  1.6885
   17DOPE   C26 2109   2.330   0.109  16.427  0.4798  0.2845 -0.6746
   17DOPE   H6R 2110   2.306   0.001  16.439  1.4805  0.2694  1.6365
   17DOPE   H6S 2111   2.439   0.117  16.448  0.4958 -1.1468 -0.0557
   17DOPE   C27 2112   2.302   0.163  16.281 -1.0253  0.1793 -0.6350
   17DOPE   H7R 2113   2.202   0.124  16.251 -0.3853 -0.8157 -1.5195
   17DOPE   H7S 2114   2.363   0.111  16.205 -1.2673  1.1449 -1.5111
   17DOPE   C28 2115   2.314   0.319  16.265 -0.2668  1.1810  0.0146
   17DOPE   H8R 2116   2.422   0.335  16.288  0.6737 -2.2037 -1.4834
   17DOPE   H8S 2117   2.256   0.367  16.347 -0.9494 -0.0868  0.2895
   17DOPE   C29 2118   2.284   0.375  16.132  0.6019 -0.1738  0.5772
   17DOPE   H9R 2119   2.178   0.399  16.115  0.2551 -0.5355  2.0576
   17DOPE  C210 2120   2.372   0.405  16.036 -0.2574  0.1442  0.0851
   17DOPE  H10R 2121   2.350   0.436  15.933 -0.4550  0.4547  0.2223
   17DOPE  C211 2122   2.519   0.381  16.040 -0.0985  0.7200 -0.8744
   17DOPE  H11R 2123   2.568   0.394  16.138  3.2261 -1.8999 -2.0123
   17DOPE  H11S 2124   2.572   0.463  15.987  3.4332  0.0997  1.4007
   17DOPE  C212 2125   2.561   0.247  15.985 -0.3273  0.1116  0.5754
   17DOPE  H12R 2126   2.519   0.161  16.042  1.6074 -0.4630  1.2200
   17DOPE  H12S 2127   2.670   0.227  15.992  0.2577  2.2162 -1.3633
   17DOPE  C213 2128   2.527   0.223  15.838 -0.5561 -0.4261 -0.1089
   17DOPE  H13R 2129   2.519   0.325  15.794  0.7987  0.1114  0.8046
   17DOPE  H13S 2130   2.423   0.187  15.828  0.1032 -2.3560 -0.4182
   17DOPE  C214 2131   2.647   0.146  15.766 -0.7384  0.3948  0.1811
   17DOPE  H14R 2132   2.745   0.190  15.795  0.8430 -1.9036 -1.2990
   17DOPE  H14S 2133   2.646   0.170  15.657  0.3399  0.2769  0.1299
   17DOPE  C215 2134   2.636  -0.003  15.791 -0.1800 -0.0865  0.2826
   17DOPE  H15R 2135   2.555  -0.049  15.730 -1.7115  1.6674  0.9403
   17DOPE  H15S 2136   2.607  -0.027  15.895  1.1288 -2.1200  0.2502
   17DOPE  C216 2137   2.768  -0.077  15.783 -0.7927  0.8460 -0.8068
   17DOPE  H16R 2138   2.751  -0.183  15.811  1.9297  0.7506  0.8566
   17DOPE  H16S 2139   2.839  -0.028  15.853  0.0571 -1.5560  0.1048
   17DOPE  C217 2140   2.826  -0.088  15.640  0.1890 -0.7088 -0.6990
   17DOPE  H17R 2141   2.866   0.011  15.611 -0.9032 -0.1104 -0.2246
   17DOPE  H17S 2142   2.739  -0.117  15.576  1.4048  0.7620 -3.1615
   17DOPE  C218 2143   2.939  -0.184  15.626  0.8865  0.9495  0.2802
   17DOPE  H18R 2144   2.902  -0.286  15.650  1.0544  0.8664  0.1848
   17DOPE  H18S 2145   3.029  -0.155  15.685  1.9567 -1.8511  0.1514
   17DOPE  H18T 2146   2.983  -0.181  15.524 -0.5183  1.2906 -0.3356
   17DOPE   C33 2147   1.884   0.171  16.326 -0.2534 -0.1119  0.1352
   17DOPE   H3X 2148   1.930   0.077  16.363 -1.6187 -0.6399  0.5793
   17DOPE   H3Y 2149   1.939   0.239  16.394  0.0461  0.3000 -0.5082
   17DOPE   C34 2150   1.924   0.212  16.184  0.6406  0.1912 -0.9508
   17DOPE   H4X 2151   1.863   0.299  16.152  0.2754  0.2870 -0.0159
   17DOPE   H4Y 2152   2.032   0.235  16.171  0.3672  0.0996 -4.0320
   17DOPE   C35 2153   1.905   0.106  16.073  0.8751 -0.5743 -1.0571
   17DOPE   H5X 2154   1.883   0.161  15.979 -0.3034 -0.0388 -0.4879
   17DOPE   H5Y 2155   1.808   0.057  16.096  0.4649  0.7174  0.1331
   17DOPE   C36 2156   2.019   0.007  16.057 -0.2783  0.2458 -0.3409
   17DOPE   H6X 2157   2.046  -0.042  16.152  0.6046 -0.0952 -0.7623
   17DOPE   H6Y 2158   2.108   0.063  16.021 -0.5148 -0.8595 -2.9128
   17DOPE   C37 2159   1.992  -0.099  15.954 -0.0418 -0.4321 -0.2880
   17DOPE   H7X 2160   1.913  -0.160  16.002  0.1694  1.8648  3.3487
   17DOPE   H7Y 2161   1.946  -0.058  15.861  0.1725 -0.5443 -0.4452
   17DOPE   C38 2162   2.116  -0.189  15.934  1.3848  0.1007  0.4473
   17DOPE   H8X 2163   2.202  -0.120  15.924  0.5639  1.2416  0.9943
   17DOPE   H8Y 2164   2.123  -0.245  15.839 -1.5584 -1.1132  0.8282
   17DOPE   C39 2165   2.135  -0.296  16.040 -0.3781 -0.0084 -0.4374
   17DOPE   H9X 2166   2.061  -0.311  16.119  0.9928 -2.5761  0.4787
   17DOPE  C310 2167   2.255  -0.363  16.053  0.2791 -0.1334 -0.3004
   17DOPE  H10X 2168   2.262  -0.437  16.135  0.2313 -0.8530 -0.9377
   17DOPE  C311 2169   2.366  -0.354  15.955  0.6929  0.5172  0.6423
   17DOPE  H11X 2170   2.411  -0.456  15.953 -1.3726 -0.4451 -0.4118
   17DOPE  H11Y 2171   2.327  -0.330  15.853  2.3906  2.3963  0.3719
   17DOPE  C312 2172   2.467  -0.252  15.993 -0.3771  0.6881  0.0161
   17DOPE  H12X 2173   2.421  -0.151  15.997 -0.6258  0.6092 -0.7888
   17DOPE  H12Y 2174   2.547  -0.242  15.917  0.4430  0.8893  0.8917
   17DOPE  C313 2175   2.528  -0.281  16.131 -0.4179 -0.1063 -0.5384
   17DOPE  H13X 2176   2.445  -0.280  16.205 -0.0147  1.6414 -0.0749
   17DOPE  H13Y 2177   2.581  -0.379  16.134  2.9288  1.5877 -0.0924
   17DOPE  C314 2178   2.632  -0.177  16.178 -0.1711 -0.0111  0.2040
   17DOPE  H14X 2179   2.592  -0.077  16.149 -0.5612 -0.5968 -1.3824
   17DOPE  H14Y 2180   2.727  -0.203  16.125  0.6311 -1.6537  2.3183
   17DOPE  C315 2181   2.665  -0.163  16.333  0.9442  0.9809 -0.2448
   17DOPE  H15X 2182   2.576  -0.119  16.382  0.7751 -0.2662  0.5912
   17DOPE  H15Y 2183   2.751  -0.100  16.366  0.6123  0.3117  2.0531
   17DOPE  C316 2184   2.682  -0.308  16.393 -0.7500  0.1293 -0.1205
   17DOPE  H16X 2185   2.754  -0.359  16.325 -0.5883 -1.7695  1.3772
   17DOPE  H16Y 2186   2.591  -0.370  16.377  0.6379 -1.4925 -2.2784
   17DOPE  C317 2187   2.728  -0.314  16.535 -0.1752  0.1646 -0.0693
   17DOPE  H17X 2188   2.836  -0.288  16.546  0.5250 -2.3786 -0.3373
   17DOPE  H17Y 2189   2.682  -0.235  16.598  0.2831  0.7648 -0.4799
   17DOPE  C318 2190   2.696  -0.442  16.601 -0.1726  0.3774  0.3939
   17DOPE  H18X 2191   2.746  -0.522  16.542 -0.4849  0.4805 -0.0187
   17DOPE  H18Y 2192   2.722  -0.441  16.709  1.7286 -0.7668 -0.0115
   17DOPE  H18Z 2193   2.586  -0.458  16.603 -0.0723 -0.2859  0.7981
   18DOPE     N 2194   7.051   4.857  17.457 -0.1458  0.3613  0.1091
   18DOPE   HN1 2195   7.151   4.839  17.435  0.2732  2.5469  0.0130
   18DOPE   HN2 2196   7.049   4.957  17.485  4.5725  0.7393 -0.1079
   18DOPE   HN3 2197   7.021   4.801  17.539 -0.9433 -0.1557 -0.5265
   18DOPE   C12 2198   6.972   4.832  17.328  0.0727 -0.5723 -0.3410
   18DOPE  H12A 2199   6.987   4.914  17.255 -2.5868 -0.0522 -0.3960
   18DOPE  H12B 2200   6.864   4.839  17.353 -0.0951 -0.7851 -0.9997
   18DOPE   C11 2201   7.004   4.699  17.259  0.1889 -0.8540 -0.2423
   18DOPE  H11A 2202   7.112   4.709  17.232  0.7540  0.1449  2.1202
   18DOPE  H11B 2203   6.935   4.695  17.172 -1.7600 -1.9733  1.2927
   18DOPE     P 2204   7.052   4.449  17.336 -0.0062  0.4943  0.3071
   18DOPE   O13 2205   7.021   4.374  17.461  0.4565  0.1764  0.2538
   18DOPE   O14 2206   7.194   4.472  17.301  0.0705 -0.1668  0.4919
   18DOPE   O11 2207   6.979   4.385  17.211  0.4971 -0.2102  0.0577
   18DOPE   O12 2208   6.981   4.589  17.343 -0.4876 -1.2172  0.5795
   18DOPE    C1 2209   6.833   4.392  17.210  0.0124  0.4889 -0.0896
   18DOPE    HA 2210   6.794   4.430  17.307  1.2460 -1.1311  1.1172
   18DOPE    HB 2211   6.807   4.285  17.193  0.8971  0.2696 -0.1070
   18DOPE    C2 2212   6.768   4.459  17.087  0.3185  0.5790 -0.4308
   18DOPE    HS 2213   6.713   4.380  17.031 -2.1785  1.0767  1.1584
   18DOPE   O21 2214   6.862   4.529  17.006  0.2736  0.2716  0.2126
   18DOPE   C21 2215   6.941   4.453  16.926 -0.2183  0.6148 -0.4391
   18DOPE   O22 2216   6.928   4.329  16.918  0.3442  0.1936  0.5800
   18DOPE   C22 2217   7.040   4.551  16.849  0.2180  0.3138 -0.2138
   18DOPE   H2R 2218   7.090   4.620  16.920 -0.5437  1.6590 -0.9306
   18DOPE   H2S 2219   6.980   4.607  16.774  1.6738 -0.7124 -2.2254
   18DOPE    C3 2220   6.664   4.558  17.128  0.6257  0.2340 -0.3419
   18DOPE    HX 2221   6.721   4.647  17.163 -1.8811  1.6124  0.5156
   18DOPE    HY 2222   6.609   4.513  17.214 -1.4809  2.1005 -0.6265
   18DOPE   O31 2223   6.570   4.593  17.023  0.0355 -0.3794  0.0554
   18DOPE   C31 2224   6.601   4.698  16.962 -0.6026  0.1008 -0.6569
   18DOPE   O32 2225   6.692   4.784  16.979  0.7094 -0.0567 -0.2779
   18DOPE   C32 2226   6.520   4.719  16.836  0.0158 -0.2664 -0.1121
   18DOPE   H2X 2227   6.412   4.705  16.855  0.1880 -2.4275 -0.4800
   18DOPE   H2Y 2228   6.542   4.822  16.801  0.3748 -0.3542 -0.1545
   18DOPE   C23 2229   7.129   4.472  16.762 -1.0563 -0.8456 -0.1896
   18DOPE   H3R 2230   7.072   4.434  16.675 -2.8686  0.9731  0.1046
   18DOPE   H3S 2231   7.182   4.386  16.807 -0.1433  0.4162  1.2619
   18DOPE   C24 2232   7.238   4.570  16.724  0.9329  0.1440  0.2243
   18DOPE   H4R 2233   7.289   4.602  16.817 -0.8455 -1.2864  1.7938
   18DOPE   H4S 2234   7.197   4.660  16.674 -0.5001  0.3081  1.6292
   18DOPE   C25 2235   7.335   4.500  16.623  0.2057  0.0253  0.1109
   18DOPE   H5R 2236   7.279   4.461  16.535 -2.1741  1.8004  0.7234
   18DOPE   H5S 2237   7.376   4.412  16.677  1.8524 -0.2593 -1.5054
   18DOPE   C26 2238   7.455   4.589  16.588 -0.0350  0.4396  0.2199
   18DOPE   H6R 2239   7.523   4.528  16.524 -1.0830  0.0101 -0.5085
   18DOPE   H6S 2240   7.509   4.604  16.684  1.2576 -0.8691 -0.2741
   18DOPE   C27 2241   7.421   4.732  16.529 -0.6156 -0.5288 -0.7992
   18DOPE   H7R 2242   7.521   4.778  16.522 -0.6862  0.6505  3.2607
   18DOPE   H7S 2243   7.366   4.787  16.608 -0.9882  0.2428 -1.5854
   18DOPE   C28 2244   7.351   4.739  16.391 -0.2213  0.0473 -0.3297
   18DOPE   H8R 2245   7.258   4.683  16.413  1.2336 -2.4830 -0.3311
   18DOPE   H8S 2246   7.400   4.690  16.304  0.0380  1.9280 -1.3102
   18DOPE   C29 2247   7.332   4.891  16.356  0.0393 -0.0864  0.1657
   18DOPE   H9R 2248   7.281   4.950  16.434 -0.3359 -1.3318  0.9051
   18DOPE  C210 2249   7.395   4.954  16.257  0.9916  0.7085  0.3217
   18DOPE  H10R 2250   7.354   5.052  16.228 -0.6552 -0.3079 -0.9314
   18DOPE  C211 2251   7.500   4.891  16.165 -0.3958 -0.0330 -0.4744
   18DOPE  H11R 2252   7.539   4.794  16.203  1.2721  1.0734  0.8035
   18DOPE  H11S 2253   7.597   4.945  16.170 -0.9386  1.1018 -1.5722
   18DOPE  C212 2254   7.466   4.870  16.018  1.1722 -0.0063  0.2058
   18DOPE  H12R 2255   7.371   4.812  16.013 -0.6293  2.7251  0.6850
   18DOPE  H12S 2256   7.549   4.815  15.969  1.8714 -0.3182  1.6859
   18DOPE  C213 2257   7.442   5.003  15.945  0.6154  0.0300 -0.7793
   18DOPE  H13R 2258   7.517   5.081  15.972  1.2220  0.2263 -2.8698
   18DOPE  H13S 2259   7.337   5.037  15.954  1.0021  0.8362  1.3076
   18DOPE  C214 2260   7.466   4.972  15.796  0.4550  0.7400  0.2710
   18DOPE  H14R 2261   7.573   4.944  15.781  0.2359 -1.3733  2.0821
   18DOPE  H14S 2262   7.456   5.064  15.734  1.6737  0.0489 -1.0336
   18DOPE  C215 2263   7.370   4.869  15.737  0.0572  0.1393 -0.3925
   18DOPE  H15R 2264   7.270   4.909  15.765  0.9929  1.7007  0.8655
   18DOPE  H15S 2265   7.392   4.768  15.778  1.6149  1.9418  3.7596
   18DOPE  C216 2266   7.381   4.859  15.590  0.0610  0.0384  0.1436
   18DOPE  H16R 2267   7.488   4.861  15.559 -0.8954  2.4088 -3.7459
   18DOPE  H16S 2268   7.325   4.938  15.536 -2.0229 -1.2773  0.2570
   18DOPE  C217 2269   7.312   4.734  15.537  0.0258 -0.3155 -0.2351
   18DOPE  H17R 2270   7.201   4.736  15.544  0.0058 -0.6112 -0.4222
   18DOPE  H17S 2271   7.343   4.644  15.595  0.0036  0.0658  0.3798
   18DOPE  C218 2272   7.345   4.714  15.384  0.0726  0.4070 -0.5883
   18DOPE  H18R 2273   7.316   4.806  15.330 -0.1388  0.7325  0.0609
   18DOPE  H18S 2274   7.284   4.629  15.346 -1.9232  1.7345 -0.5470
   18DOPE  H18T 2275   7.451   4.686  15.371  0.2262 -0.3669  1.8407
   18DOPE   C33 2276   6.529   4.614  16.725 -0.1615 -0.1131 -0.5841
   18DOPE   H3X 2277   6.441   4.623  16.657 -1.1589 -2.5870  0.2837
   18DOPE   H3Y 2278   6.519   4.511  16.765  3.1617 -1.2188 -2.2285
   18DOPE   C34 2279   6.663   4.606  16.657  0.1808 -0.4200 -0.8812
   18DOPE   H4X 2280   6.666   4.699  16.596  0.6988  2.3428  3.0086
   18DOPE   H4Y 2281   6.733   4.625  16.740 -2.9024 -2.9091  2.6129
   18DOPE   C35 2282   6.685   4.480  16.582 -0.6147 -0.6894 -0.7613
   18DOPE   H5X 2283   6.619   4.473  16.493 -1.7729 -1.5033  0.1382
   18DOPE   H5Y 2284   6.675   4.387  16.642 -0.2336 -0.4775 -0.3660
   18DOPE   C36 2285   6.837   4.482  16.540 -0.1284  0.6182  0.0080
   18DOPE   H6X 2286   6.889   4.484  16.638 -0.0896  0.5811 -0.0117
   18DOPE   H6Y 2287   6.851   4.578  16.487 -1.7534  1.5824  1.2089
   18DOPE   C37 2288   6.884   4.358  16.456 -0.2967  0.3487 -0.0590
   18DOPE   H7X 2289   6.933   4.285  16.524 -3.5081 -2.1208 -0.1840
   18DOPE   H7Y 2290   6.797   4.311  16.406 -0.4605  1.3057 -0.6921
   18DOPE   C38 2291   6.990   4.397  16.352 -0.0921  0.9775 -0.4410
   18DOPE   H8X 2292   7.042   4.302  16.330 -2.4972 -0.6217  0.4611
   18DOPE   H8Y 2293   7.054   4.471  16.404 -0.3895  1.0961 -0.2375
   18DOPE   C39 2294   6.912   4.448  16.232 -0.4508  0.1457 -0.6094
   18DOPE   H9X 2295   6.857   4.540  16.258 -0.8745 -0.5187  0.9254
   18DOPE  C310 2296   6.912   4.407  16.103 -0.3228  0.0820 -0.6279
   18DOPE  H10X 2297   6.842   4.459  16.037 -0.0913  1.4960  0.1942
   18DOPE  C311 2298   6.998   4.292  16.034  0.1670  0.8223 -0.2577
   18DOPE  H11X 2299   7.082   4.255  16.097 -0.8732  1.2942  1.4878
   18DOPE  H11Y 2300   6.928   4.206  16.027  0.0668  0.8783  0.0046
   18DOPE  C312 2301   7.037   4.324  15.894  0.4641  0.4812  0.2038
   18DOPE  H12X 2302   7.110   4.251  15.853 -0.6731 -0.7233  0.2464
   18DOPE  H12Y 2303   7.080   4.426  15.888  2.6588 -0.4060 -0.2065
   18DOPE  C313 2304   6.909   4.317  15.800  0.1172  0.4987  0.2961
   18DOPE  H13X 2305   6.851   4.231  15.842  3.0809 -1.2673  1.0390
   18DOPE  H13Y 2306   6.847   4.410  15.806  2.5374  2.6923 -4.0403
   18DOPE  C314 2307   6.947   4.298  15.653 -0.5555  0.3949 -0.3789
   18DOPE  H14X 2308   7.023   4.217  15.656 -2.4475 -1.4512  2.0342
   18DOPE  H14Y 2309   6.983   4.391  15.604  2.2735 -0.9167 -1.0209
   18DOPE  C315 2310   6.836   4.234  15.575 -0.1747  0.4161  0.6314
   18DOPE  H15X 2311   6.750   4.305  15.583 -0.0512  0.5845  0.4783
   18DOPE  H15Y 2312   6.815   4.131  15.612 -3.3989 -0.7165 -3.5262
   18DOPE  C316 2313   6.865   4.229  15.426  0.3424 -0.2584 -0.0641
   18DOPE  H16X 2314   6.952   4.161  15.411  1.2090  0.4922  1.3125
   18DOPE  H16Y 2315   6.894   4.331  15.394  0.7592 -0.5475 -0.6178
   18DOPE  C317 2316   6.746   4.186  15.335  1.3805 -0.0564 -0.1975
   18DOPE  H17X 2317   6.691   4.100  15.378 -4.0505  3.1115  0.0428
   18DOPE  H17Y 2318   6.665   4.261  15.339 -0.0768 -1.5825 -0.2044
   18DOPE  C318 2319   6.794   4.154  15.187  0.1736 -0.6541  0.5426
   18DOPE  H18X 2320   6.711   4.128  15.118 -0.9998  1.4303  1.0619
   18DOPE  H18Y 2321   6.856   4.233  15.139 -0.0036 -1.2799 -0.7798
   18DOPE  H18Z 2322   6.865   4.070  15.189 -1.2563 -1.8878  2.3962
   19DOPE     N 2323   7.336   5.643  17.084 -0.0346 -0.6110  0.3426
   19DOPE   HN1 2324   7.429   5.634  17.130 -0.8950  0.0406  2.3449
   19DOPE   HN2 2325   7.313   5.745  17.083 -1.4350 -0.8586  2.0551
   19DOPE   HN3 2326   7.267   5.599  17.148  0.2344 -2.1953 -0.4267
   19DOPE   C12 2327   7.353   5.582  16.945  0.4354  0.0185  0.5244
   19DOPE  H12A 2328   7.382   5.672  16.886 -0.2993  2.4139  3.5508
   19DOPE  H12B 2329   7.246   5.559  16.925  0.5599  0.6998 -1.1161
   19DOPE   C11 2330   7.460   5.473  16.943  0.2026 -0.0346  0.3124
   19DOPE  H11A 2331   7.564   5.510  16.927 -0.2483  1.5419  0.8580
   19DOPE  H11B 2332   7.448   5.419  16.846 -0.5902 -0.2614  0.5336
   19DOPE     P 2333   7.397   5.246  17.070  0.1029  0.2473 -0.0694
   19DOPE   O13 2334   7.291   5.245  17.174  0.3568  0.4694  0.2544
   19DOPE   O14 2335   7.508   5.156  17.092  0.8884 -0.9935 -0.5974
   19DOPE   O11 2336   7.334   5.212  16.928  0.4741 -0.3537  0.6039
   19DOPE   O12 2337   7.449   5.398  17.059  0.2750  0.2261 -0.1024
   19DOPE    C1 2338   7.389   5.112  16.841 -0.2781 -0.3966  0.2651
   19DOPE    HA 2339   7.382   5.013  16.890 -2.2459  0.2840  1.4829
   19DOPE    HB 2340   7.491   5.144  16.810 -0.9567 -0.5456 -2.2839
   19DOPE    C2 2341   7.318   5.108  16.705 -1.0471 -0.5338  0.8939
   19DOPE    HS 2342   7.387   5.042  16.648 -0.1663  1.4752 -0.4585
   19DOPE   O21 2343   7.294   5.229  16.636 -0.4744  0.4938  0.2480
   19DOPE   C21 2344   7.401   5.293  16.600  0.5981 -0.5544  0.3378
   19DOPE   O22 2345   7.520   5.263  16.604 -0.2710  0.9127  0.0710
   19DOPE   C22 2346   7.353   5.429  16.542  0.3225  0.1637 -0.1132
   19DOPE   H2R 2347   7.428   5.503  16.576  0.5860 -1.3399  2.9635
   19DOPE   H2S 2348   7.264   5.447  16.607  0.9169  1.6677  0.3069
   19DOPE    C3 2349   7.187   5.026  16.722 -0.7982 -0.0765 -0.5514
   19DOPE    HX 2350   7.119   5.063  16.801  1.2833  0.8311  0.9328
   19DOPE    HY 2351   7.213   4.921  16.748 -1.5462  0.5918  3.4171
   19DOPE   O31 2352   7.116   5.027  16.590 -0.7821  0.0500  0.4174
   19DOPE   C31 2353   7.021   4.941  16.574  0.0507 -0.3393  0.0237
   19DOPE   O32 2354   6.993   4.859  16.660 -0.4721 -0.3449  0.4242
   19DOPE   C32 2355   6.960   4.964  16.431  0.4165 -0.1352 -0.3223
   19DOPE   H2X 2356   6.897   5.055  16.424  0.2455 -0.2873 -0.7610
   19DOPE   H2Y 2357   7.047   4.986  16.366  1.4145 -0.6334  0.8105
   19DOPE   C23 2358   7.330   5.426  16.385  0.6986  0.2560 -0.0549
   19DOPE   H3R 2359   7.415   5.373  16.337 -0.9722 -2.4109 -0.2409
   19DOPE   H3S 2360   7.334   5.529  16.342  0.9657 -0.1638 -1.0720
   19DOPE   C24 2361   7.199   5.359  16.349  0.4987 -0.5062 -0.3626
   19DOPE   H4R 2362   7.122   5.438  16.364  1.2649  0.0047  1.1312
   19DOPE   H4S 2363   7.189   5.273  16.419  0.3642  1.1988  1.8431
   19DOPE   C25 2364   7.180   5.319  16.200  0.1109 -0.1465 -0.0018
   19DOPE   H5R 2365   7.244   5.233  16.172 -0.2298 -0.0067 -1.2674
   19DOPE   H5S 2366   7.199   5.410  16.140  0.2794  0.3638  0.7999
   19DOPE   C26 2367   7.036   5.263  16.183  0.4085 -0.1687  0.2038
   19DOPE   H6R 2368   7.009   5.192  16.265 -2.2224 -0.9671 -1.2569
   19DOPE   H6S 2369   7.013   5.221  16.083 -2.2263  0.5052  0.4439
   19DOPE   C27 2370   6.927   5.378  16.191  0.7498  0.1440 -0.6654
   19DOPE   H7R 2371   6.845   5.364  16.118 -0.8248  0.5369  0.9421
   19DOPE   H7S 2372   6.973   5.478  16.174  1.3920 -0.2152 -1.0823
   19DOPE   C28 2373   6.850   5.380  16.321  0.1112 -0.0023 -0.1221
   19DOPE   H8R 2374   6.922   5.405  16.403 -0.7747 -0.1157  0.7094
   19DOPE   H8S 2375   6.817   5.277  16.344 -0.9759  0.4469  0.4179
   19DOPE   C29 2376   6.735   5.483  16.305  0.3514 -0.2991 -0.2858
   19DOPE   H9R 2377   6.663   5.463  16.224  0.9305 -3.3746 -0.1687
   19DOPE  C210 2378   6.730   5.605  16.366  0.2405  0.0632  0.0513
   19DOPE  H10R 2379   6.658   5.676  16.323 -1.1518 -0.8909  0.7274
   19DOPE  C211 2380   6.818   5.654  16.482 -0.7687  0.3220  0.2156
   19DOPE  H11R 2381   6.846   5.569  16.548  0.9081  0.3410 -0.4125
   19DOPE  H11S 2382   6.764   5.727  16.546  2.5302  1.4068  2.0143
   19DOPE  C212 2383   6.951   5.711  16.429  0.2218 -0.3714  0.7702
   19DOPE  H12R 2384   6.931   5.809  16.379  0.1371 -1.0228 -0.5036
   19DOPE  H12S 2385   6.984   5.649  16.343 -2.4273  1.2290 -1.5792
   19DOPE  C213 2386   7.059   5.735  16.531 -0.1654  0.1410 -0.4900
   19DOPE  H13R 2387   7.087   5.642  16.585  0.3053  0.3857 -0.3018
   19DOPE  H13S 2388   7.020   5.796  16.615  1.9664  1.0224 -0.0508
   19DOPE  C214 2389   7.189   5.796  16.473  0.1969  0.2278  0.1112
   19DOPE  H14R 2390   7.167   5.897  16.431 -2.5421  1.9924  4.9177
   19DOPE  H14S 2391   7.212   5.732  16.386  0.8539  0.4713  0.0983
   19DOPE  C215 2392   7.298   5.799  16.578 -0.0451 -0.0269  0.2724
   19DOPE  H15R 2393   7.309   5.696  16.616 -2.6184 -0.3645  0.2880
   19DOPE  H15S 2394   7.282   5.861  16.669  1.6086 -0.2554  0.7576
   19DOPE  C216 2395   7.423   5.863  16.520  0.1742  0.1306 -0.2749
   19DOPE  H16R 2396   7.397   5.964  16.483 -1.3818 -1.0005 -2.4905
   19DOPE  H16S 2397   7.463   5.804  16.435  2.2704  1.1563 -0.0561
   19DOPE  C217 2398   7.538   5.873  16.623 -0.0115  0.0066 -0.2966
   19DOPE  H17R 2399   7.489   5.928  16.706 -1.6619 -1.4071 -0.2900
   19DOPE  H17S 2400   7.604   5.950  16.576 -1.8738  0.3669 -2.4719
   19DOPE  C218 2401   7.607   5.743  16.652 -0.2167  0.3110 -0.0608
   19DOPE  H18R 2402   7.685   5.768  16.728 -2.1434  2.8523  1.2128
   19DOPE  H18S 2403   7.666   5.706  16.565  1.5774 -2.2708  2.0718
   19DOPE  H18T 2404   7.538   5.666  16.693 -1.3250  0.7837 -0.9964
   19DOPE   C33 2405   6.880   4.844  16.382  0.4953 -0.4719  0.9010
   19DOPE   H3X 2406   6.783   4.821  16.431 -1.2262  0.9912 -1.5817
   19DOPE   H3Y 2407   6.945   4.755  16.388 -1.7929 -2.3517 -0.3681
   19DOPE   C34 2408   6.843   4.856  16.234 -0.4960 -0.4498 -0.4306
   19DOPE   H4X 2409   6.778   4.774  16.196 -1.0502 -0.4611  0.5229
   19DOPE   H4Y 2410   6.780   4.947  16.225  1.0012  0.5152 -1.8579
   19DOPE   C35 2411   6.962   4.873  16.136 -0.4175 -0.5319 -0.2974
   19DOPE   H5X 2412   7.044   4.799  16.143 -0.7641 -0.9707 -0.8585
   19DOPE   H5Y 2413   7.015   4.970  16.151  1.5654 -1.7073  0.5570
   19DOPE   C36 2414   6.921   4.881  15.985  0.7383 -0.6944 -0.4243
   19DOPE   H6X 2415   6.846   4.962  15.989 -0.5525 -1.8674 -0.0178
   19DOPE   H6Y 2416   6.870   4.787  15.956  1.5989 -0.9874 -1.0360
   19DOPE   C37 2417   7.038   4.931  15.894  0.5554 -0.0629 -0.4555
   19DOPE   H7X 2418   7.095   5.009  15.950 -0.9888 -0.5545  1.9096
   19DOPE   H7Y 2419   7.106   4.847  15.867 -0.4225 -0.9438 -0.2265
   19DOPE   C38 2420   6.967   4.991  15.773 -0.4181  0.4064  0.4731
   19DOPE   H8X 2421   6.878   5.051  15.804 -3.7373 -3.6005 -0.3529
   19DOPE   H8Y 2422   6.927   4.902  15.719 -0.8332 -0.3234  1.9139
   19DOPE   C39 2423   7.064   5.062  15.679  0.6919 -0.1073 -0.5969
   19DOPE   H9X 2424   7.081   4.996  15.593 -0.3421 -0.4352 -0.5711
   19DOPE  C310 2425   7.131   5.175  15.710 -0.7411 -0.1812  0.2511
   19DOPE  H10X 2426   7.180   5.231  15.628  0.8765 -1.2139  0.4709
   19DOPE  C311 2427   7.127   5.247  15.838 -1.1210 -0.2531 -0.1888
   19DOPE  H11X 2428   7.020   5.257  15.865 -0.9428 -0.5385  0.6608
   19DOPE  H11Y 2429   7.192   5.202  15.917  0.1067  0.1398 -0.9401
   19DOPE  C312 2430   7.166   5.398  15.820  0.4237 -0.3937 -0.3484
   19DOPE  H12X 2431   7.131   5.453  15.910 -0.6839  0.2897 -1.1709
   19DOPE  H12Y 2432   7.120   5.453  15.734 -0.0834 -2.8004 -1.7042
   19DOPE  C313 2433   7.320   5.416  15.818 -0.2551 -0.6479  0.0415
   19DOPE  H13X 2434   7.352   5.352  15.903 -2.1239 -1.0527  0.4868
   19DOPE  H13Y 2435   7.360   5.369  15.726  1.1234  0.9517 -0.2433
   19DOPE  C314 2436   7.377   5.554  15.832  0.1112 -0.1788  0.7619
   19DOPE  H14X 2437   7.488   5.556  15.837  0.1407  1.1250  0.2334
   19DOPE  H14Y 2438   7.349   5.605  15.927  0.5374  0.8453  0.3566
   19DOPE  C315 2439   7.333   5.642  15.713  0.1050 -0.0707 -0.7102
   19DOPE  H15X 2440   7.231   5.676  15.742  0.1734  0.1117 -0.6799
   19DOPE  H15Y 2441   7.334   5.577  15.624  1.0854 -1.8973  0.5761
   19DOPE  C316 2442   7.429   5.763  15.692  0.3564  0.0271 -0.1486
   19DOPE  H16X 2443   7.531   5.726  15.714 -0.4275 -0.5910  2.9857
   19DOPE  H16Y 2444   7.421   5.851  15.759 -2.7865  0.1972 -0.5767
   19DOPE  C317 2445   7.417   5.822  15.549  0.6548  0.3754  0.5207
   19DOPE  H17X 2446   7.488   5.907  15.543  0.8329  0.5978  3.9418
   19DOPE  H17Y 2447   7.446   5.752  15.468  0.3894 -0.0706  0.8091
   19DOPE  C318 2448   7.274   5.871  15.527 -0.2556 -0.1959 -0.1302
   19DOPE  H18X 2449   7.273   5.958  15.458 -1.6781 -1.1789 -1.4466
   19DOPE  H18Y 2450   7.199   5.796  15.494 -2.2355  2.3308 -1.7301
   19DOPE  H18Z 2451   7.238   5.917  15.621 -0.9363  0.7842 -0.8431
   20DOPE     N 2452   4.364   1.190  17.443  0.8509 -0.4236  0.3135
   20DOPE   HN1 2453   4.461   1.220  17.420  0.6771  0.4819  0.7132
   20DOPE   HN2 2454   4.297   1.255  17.397 -1.1510 -2.2562  0.4928
   20DOPE   HN3 2455   4.350   1.196  17.546 -3.8417 -1.1341 -0.0562
   20DOPE   C12 2456   4.325   1.050  17.395  0.3297  0.3401  0.7149
   20DOPE  H12A 2457   4.403   0.983  17.439 -1.5978  0.0602  4.0895
   20DOPE  H12B 2458   4.325   1.054  17.284 -1.9560  2.1003  0.7066
   20DOPE   C11 2459   4.184   1.019  17.438  0.4293  0.3826 -0.1213
   20DOPE  H11A 2460   4.168   1.003  17.547 -2.2635 -1.2100 -0.6492
   20DOPE  H11B 2461   4.162   0.920  17.393  0.4910  1.5276 -2.8164
   20DOPE     P 2462   3.946   1.134  17.423 -0.1250 -0.0835 -0.0148
   20DOPE   O13 2463   3.931   1.277  17.454  0.3088  0.0437  0.6379
   20DOPE   O14 2464   3.924   1.030  17.522  0.3983 -0.0335 -0.1698
   20DOPE   O11 2465   3.866   1.103  17.295 -0.4471 -0.0830  0.8144
   20DOPE   O12 2466   4.095   1.116  17.381  0.4441  0.1727 -0.2026
   20DOPE    C1 2467   3.874   0.989  17.209  0.2136  0.4411  0.2988
   20DOPE    HA 2468   3.770   0.985  17.172 -0.2723  2.7744  1.2070
   20DOPE    HB 2469   3.891   0.901  17.274 -2.4218  0.0199  0.5362
   20DOPE    C2 2470   3.981   0.990  17.095 -0.2440 -0.2547 -0.1567
   20DOPE    HS 2471   4.078   0.982  17.148  0.0754  0.7355 -0.5724
   20DOPE   O21 2472   3.977   1.112  17.024  0.1016 -0.2928 -0.1133
   20DOPE   C21 2473   3.868   1.139  16.951 -0.4364  0.1670 -0.2874
   20DOPE   O22 2474   3.762   1.077  16.945 -0.2108 -0.1602 -0.4441
   20DOPE   C22 2475   3.894   1.271  16.880 -0.0708 -0.1432 -0.3115
   20DOPE   H2R 2476   3.963   1.332  16.942  0.6489 -2.3361  1.1682
   20DOPE   H2S 2477   3.802   1.332  16.881  0.8974  1.3766 -0.2976
   20DOPE    C3 2478   3.964   0.859  17.007 -0.1676 -0.1000  0.1219
   20DOPE    HX 2479   3.863   0.854  16.963  0.5079  2.5773 -1.9811
   20DOPE    HY 2480   3.980   0.770  17.071  0.8320 -0.1881 -0.2326
   20DOPE   O31 2481   4.055   0.868  16.896 -0.1872  0.8679  0.3853
   20DOPE   C31 2482   4.180   0.847  16.916  0.2224  0.7565 -0.5376
   20DOPE   O32 2483   4.233   0.827  17.024  0.6467  1.1190  0.0590
   20DOPE   C32 2484   4.246   0.859  16.779  0.1082  0.2788 -0.1939
   20DOPE   H2X 2485   4.187   0.789  16.716 -1.4264  0.5186  0.9204
   20DOPE   H2Y 2486   4.218   0.956  16.732 -0.9903 -0.1895 -0.5334
   20DOPE   C23 2487   3.954   1.261  16.738 -0.3695  0.3777 -0.2852
   20DOPE   H3R 2488   3.957   1.359  16.686 -0.4070  0.1079 -0.8051
   20DOPE   H3S 2489   3.895   1.196  16.670 -0.3859 -1.7044  1.6066
   20DOPE   C24 2490   4.105   1.230  16.764 -0.5346  0.4015  0.3376
   20DOPE   H4R 2491   4.120   1.135  16.820 -1.3443 -1.3733 -2.2379
   20DOPE   H4S 2492   4.131   1.309  16.837 -1.8548 -0.9243  2.3642
   20DOPE   C25 2493   4.201   1.248  16.640 -0.0287 -0.1342  0.0319
   20DOPE   H5R 2494   4.163   1.329  16.574  1.1570 -0.9360 -1.7417
   20DOPE   H5S 2495   4.197   1.159  16.573  1.1369  0.3681 -0.7481
   20DOPE   C26 2496   4.333   1.301  16.690  0.3727 -0.4387 -0.0038
   20DOPE   H6R 2497   4.394   1.216  16.727  2.7748  1.2854  0.2884
   20DOPE   H6S 2498   4.327   1.366  16.780  2.0017 -1.3452  0.8022
   20DOPE   C27 2499   4.408   1.381  16.585 -0.1494 -0.4137 -0.8322
   20DOPE   H7R 2500   4.496   1.413  16.644 -0.5613 -0.8828  0.0510
   20DOPE   H7S 2501   4.342   1.464  16.551 -0.6468 -0.3423  0.2642
   20DOPE   C28 2502   4.443   1.291  16.467 -0.0491 -0.1181 -0.0859
   20DOPE   H8R 2503   4.351   1.262  16.412  0.4489 -0.7483 -0.5994
   20DOPE   H8S 2504   4.496   1.202  16.506  0.3081 -0.0152 -0.3320
   20DOPE   C29 2505   4.521   1.386  16.381 -0.4043 -0.1112  0.0388
   20DOPE   H9R 2506   4.581   1.461  16.435 -0.7584  0.0558  0.2120
   20DOPE  C210 2507   4.497   1.417  16.247  0.1088  0.8078  0.1561
   20DOPE  H10R 2508   4.551   1.503  16.205  0.1995  1.2987  1.2407
   20DOPE  C211 2509   4.405   1.343  16.156  0.6616  0.0452  0.1847
   20DOPE  H11R 2510   4.305   1.390  16.160  0.7925  0.3232  0.2206
   20DOPE  H11S 2511   4.389   1.242  16.200 -2.8916 -1.4795 -3.9419
   20DOPE  C212 2512   4.459   1.332  16.010 -0.2955  0.0520 -0.6721
   20DOPE  H12R 2513   4.405   1.248  15.960  0.1844 -0.5341 -0.2237
   20DOPE  H12S 2514   4.562   1.291  16.013 -0.4617 -0.4757 -1.6811
   20DOPE  C213 2515   4.455   1.459  15.931 -0.6963 -0.5573  0.1976
   20DOPE  H13R 2516   4.461   1.561  15.975  0.4055 -0.8509  0.7458
   20DOPE  H13S 2517   4.358   1.462  15.876 -0.3343  0.4070 -0.4051
   20DOPE  C214 2518   4.560   1.449  15.821 -0.1562 -0.5295  0.4573
   20DOPE  H14R 2519   4.660   1.460  15.868  0.6564  0.1359 -1.3689
   20DOPE  H14S 2520   4.543   1.535  15.753  1.3887 -1.1941 -0.8303
   20DOPE  C215 2521   4.550   1.327  15.731 -0.1456  0.3734  0.5640
   20DOPE  H15R 2522   4.444   1.319  15.697  0.8151 -0.0466 -2.6869
   20DOPE  H15S 2523   4.577   1.238  15.793 -0.7146  0.0391  0.3384
   20DOPE  C216 2524   4.649   1.343  15.610  0.9882  0.1981 -0.1599
   20DOPE  H16R 2525   4.665   1.241  15.568 -1.8222  0.2292 -1.5945
   20DOPE  H16S 2526   4.746   1.386  15.641 -0.4014  2.1878  1.7612
   20DOPE  C217 2527   4.579   1.411  15.490  0.1813 -0.0940 -0.3989
   20DOPE  H17R 2528   4.541   1.510  15.525  2.5893  0.4770  0.8298
   20DOPE  H17S 2529   4.492   1.347  15.465 -0.8246  1.3716 -0.8233
   20DOPE  C218 2530   4.674   1.443  15.365 -0.3336  0.5317  0.0952
   20DOPE  H18R 2531   4.746   1.522  15.395  1.1772 -0.6961 -0.1522
   20DOPE  H18S 2532   4.612   1.466  15.275  2.2767  0.3338 -1.8716
   20DOPE  H18T 2533   4.727   1.348  15.344 -0.1400  0.3776  1.2481
   20DOPE   C33 2534   4.399   0.839  16.783  0.1912 -0.0468  0.0568
   20DOPE   H3X 2535   4.412   0.731  16.805  1.1746 -0.0330 -0.3756
   20DOPE   H3Y 2536   4.448   0.903  16.859  0.7888  0.2654 -0.5727
   20DOPE   C34 2537   4.470   0.866  16.655  0.2474  0.1498 -0.0142
   20DOPE   H4X 2538   4.505   0.970  16.640 -0.9229  0.4301 -0.9658
   20DOPE   H4Y 2539   4.558   0.798  16.654  0.2003  0.0875  0.0562
   20DOPE   C35 2540   4.389   0.830  16.530 -0.1218 -0.1433  0.3632
   20DOPE   H5X 2541   4.301   0.898  16.539 -0.5390 -0.8936  2.6899
   20DOPE   H5Y 2542   4.341   0.732  16.547 -1.0218 -0.0335 -1.3700
   20DOPE   C36 2543   4.460   0.854  16.394 -0.1437  0.1036  0.1079
   20DOPE   H6X 2544   4.524   0.764  16.383  2.7183  2.0760 -0.7508
   20DOPE   H6Y 2545   4.532   0.939  16.400  0.5596 -0.3485 -1.3290
   20DOPE   C37 2546   4.361   0.878  16.288  0.7882  1.1431  0.2229
   20DOPE   H7X 2547   4.298   0.790  16.265  0.6889  1.2492  0.0852
   20DOPE   H7Y 2548   4.295   0.965  16.307 -1.4062 -0.6736  1.2997
   20DOPE   C38 2549   4.448   0.909  16.161  0.1569 -0.7412 -0.3834
   20DOPE   H8X 2550   4.498   0.817  16.124  1.1944 -0.6490  0.7127
   20DOPE   H8Y 2551   4.527   0.983  16.188 -0.6084 -1.0693  3.2638
   20DOPE   C39 2552   4.363   0.979  16.056  0.5293 -0.3866 -0.1004
   20DOPE   H9X 2553   4.315   1.074  16.086 -1.4334 -1.4945  0.4308
   20DOPE  C310 2554   4.322   0.916  15.949  0.8643  0.3216 -0.3119
   20DOPE  H10X 2555   4.255   0.973  15.883 -0.2541  0.3549  0.8314
   20DOPE  C311 2556   4.373   0.782  15.902 -0.2593 -0.1187  0.0447
   20DOPE  H11X 2557   4.363   0.712  15.988 -0.5360  2.3883  2.1831
   20DOPE  H11Y 2558   4.320   0.734  15.817  0.3694 -1.6710  0.4800
   20DOPE  C312 2559   4.518   0.793  15.847 -0.2123 -0.0604  0.1702
   20DOPE  H12X 2560   4.588   0.838  15.920  1.9984 -1.9292 -0.6688
   20DOPE  H12Y 2561   4.532   0.850  15.753  0.4036  0.1067  0.3582
   20DOPE  C313 2562   4.580   0.655  15.817  0.0318 -0.3041  0.1546
   20DOPE  H13X 2563   4.580   0.595  15.911 -1.0076 -0.5424  0.0079
   20DOPE  H13Y 2564   4.524   0.595  15.742  0.9877  0.7540 -1.4776
   20DOPE  C314 2565   4.721   0.661  15.771 -0.1706 -1.1830 -0.7412
   20DOPE  H14X 2566   4.791   0.691  15.852  0.7214 -2.0469 -1.1609
   20DOPE  H14Y 2567   4.732   0.731  15.686 -1.1052 -0.0328  0.0577
   20DOPE  C315 2568   4.768   0.519  15.720 -0.3251  0.0875 -0.0227
   20DOPE  H15X 2569   4.687   0.485  15.652  0.5288 -1.1903 -0.4476
   20DOPE  H15Y 2570   4.768   0.458  15.813  0.5724  1.6421  1.0386
   20DOPE  C316 2571   4.905   0.523  15.651  0.2752  0.0768  0.6590
   20DOPE  H16X 2572   4.898   0.589  15.562  1.3600  0.5506  0.9063
   20DOPE  H16Y 2573   4.935   0.420  15.622 -2.6621 -0.1430 -2.1728
   20DOPE  C317 2574   5.024   0.567  15.741 -0.2655  0.0444 -0.2427
   20DOPE  H17X 2575   5.011   0.667  15.788  2.7214 -0.0944  1.0651
   20DOPE  H17Y 2576   5.011   0.503  15.831  0.1548  0.5430  0.1759
   20DOPE  C318 2577   5.150   0.548  15.661 -0.0400  0.2228 -0.2676
   20DOPE  H18X 2578   5.127   0.562  15.554 -1.9673  0.5111  0.1517
   20DOPE  H18Y 2579   5.220   0.632  15.682 -1.7038  2.1742 -2.0868
   20DOPE  H18Z 2580   5.204   0.452  15.681 -1.1650 -0.4378 -0.3292
   21DOPE     N 2581   1.954   1.591  17.404 -0.0543  0.2247 -0.0846
   21DOPE   HN1 2582   1.958   1.584  17.300  2.8699 -0.4579 -0.0054
   21DOPE   HN2 2583   1.887   1.665  17.433 -0.1178 -0.5514  1.9018
   21DOPE   HN3 2584   2.050   1.621  17.430  0.2876  0.5244 -1.6146
   21DOPE   C12 2585   1.930   1.455  17.464 -0.1039  1.2513 -0.3383
   21DOPE  H12A 2586   1.843   1.418  17.407 -2.0448  2.7751  1.4978
   21DOPE  H12B 2587   1.904   1.469  17.571  0.3266  0.1287 -0.0632
   21DOPE   C11 2588   2.049   1.363  17.459  0.3235  0.6604  0.5389
   21DOPE  H11A 2589   2.097   1.356  17.359  0.4320  1.5021  0.5269
   21DOPE  H11B 2590   2.006   1.261  17.470 -0.8882  0.6944 -2.6409
   21DOPE     P 2591   2.271   1.488  17.548 -0.1327  0.0174 -0.5601
   21DOPE   O13 2592   2.323   1.523  17.685  0.4790  0.1494 -0.1521
   21DOPE   O14 2593   2.210   1.605  17.476 -0.4606  0.3591  0.0052
   21DOPE   O11 2594   2.379   1.420  17.460 -0.1643 -0.2110 -0.4308
   21DOPE   O12 2595   2.153   1.386  17.555  0.1181 -0.3860  0.3624
   21DOPE    C1 2596   2.510   1.466  17.444 -0.5536  0.0464 -0.5332
   21DOPE    HA 2597   2.578   1.420  17.518  0.4963 -1.0029 -2.1005
   21DOPE    HB 2598   2.509   1.575  17.467 -1.4796 -0.3467  1.5401
   21DOPE    C2 2599   2.551   1.454  17.294 -0.3468 -0.2032 -0.0639
   21DOPE    HS 2600   2.646   1.509  17.281  0.2565 -1.1589  0.2102
   21DOPE   O21 2601   2.438   1.495  17.206 -0.2366  0.1612  0.0101
   21DOPE   C21 2602   2.380   1.614  17.212  0.0042  0.8997  0.3288
   21DOPE   O22 2603   2.432   1.714  17.266  0.4224  0.1230 -0.4886
   21DOPE   C22 2604   2.244   1.610  17.143  0.5052 -0.2305 -0.2798
   21DOPE   H2R 2605   2.222   1.716  17.120 -1.6867 -0.7270 -0.7044
   21DOPE   H2S 2606   2.168   1.579  17.218  1.6601 -0.3125  0.8877
   21DOPE    C3 2607   2.580   1.299  17.266  0.2950 -1.1626 -0.2506
   21DOPE    HX 2608   2.491   1.244  17.303 -1.0773  0.0742 -1.5433
   21DOPE    HY 2609   2.675   1.271  17.316  2.5474  0.3910 -3.2895
   21DOPE   O31 2610   2.600   1.278  17.130 -0.0411  0.0315  0.1608
   21DOPE   C31 2611   2.509   1.208  17.058  0.2924  0.1586 -0.0983
   21DOPE   O32 2612   2.414   1.151  17.113 -0.0580  0.1693  0.0509
   21DOPE   C32 2613   2.535   1.206  16.907  0.0366  0.3339  0.7563
   21DOPE   H2X 2614   2.560   1.307  16.869  0.9108 -0.4094 -0.7690
   21DOPE   H2Y 2615   2.632   1.152  16.903  0.1516  0.5605  0.4315
   21DOPE   C23 2616   2.244   1.525  17.018 -0.1510  0.5362 -0.8066
   21DOPE   H3R 2617   2.148   1.528  16.963  1.7029  0.2153 -4.3203
   21DOPE   H3S 2618   2.267   1.418  17.039  0.7746  1.3376  3.1105
   21DOPE   C24 2619   2.362   1.573  16.924 -0.3818  0.1079  0.8578
   21DOPE   H4R 2620   2.358   1.517  16.828 -1.7337  0.3968  0.7256
   21DOPE   H4S 2621   2.463   1.537  16.954 -0.0550  0.2644 -0.0001
   21DOPE   C25 2622   2.371   1.724  16.896  0.8840 -0.1034 -0.2340
   21DOPE   H5R 2623   2.422   1.780  16.978 -0.5065 -1.5093  1.7011
   21DOPE   H5S 2624   2.264   1.752  16.897  0.5560 -1.2588  0.8740
   21DOPE   C26 2625   2.442   1.746  16.758  0.3597 -0.2435  0.6742
   21DOPE   H6R 2626   2.419   1.849  16.723  1.2040  0.7401  2.8199
   21DOPE   H6S 2627   2.393   1.690  16.677 -2.0829  0.7976  1.3376
   21DOPE   C27 2628   2.595   1.732  16.750  0.5471  0.0323  0.4966
   21DOPE   H7R 2629   2.611   1.622  16.745  0.5311 -0.0785  2.2666
   21DOPE   H7S 2630   2.635   1.774  16.844  1.9412 -2.2182  0.9961
   21DOPE   C28 2631   2.658   1.787  16.618  0.0645  0.1014  0.6847
   21DOPE   H8R 2632   2.607   1.747  16.527  0.3814  1.7501 -0.2415
   21DOPE   H8S 2633   2.763   1.753  16.622  0.3208  0.8654  0.4153
   21DOPE   C29 2634   2.670   1.935  16.615 -0.7655 -0.4113  0.0608
   21DOPE   H9R 2635   2.734   1.987  16.687 -1.6373  1.7208 -0.6165
   21DOPE  C210 2636   2.602   2.018  16.534  0.5404  0.5257  0.0431
   21DOPE  H10R 2637   2.634   2.123  16.531  2.0031  0.1937  1.9464
   21DOPE  C211 2638   2.504   1.963  16.424  0.0658  0.7774 -0.0349
   21DOPE  H11R 2639   2.427   2.041  16.402 -0.6467  0.2542  0.5620
   21DOPE  H11S 2640   2.445   1.877  16.462  1.2659  0.5747  1.4409
   21DOPE  C212 2641   2.587   1.918  16.301  0.0993 -0.8070  0.0807
   21DOPE  H12R 2642   2.524   1.850  16.239 -0.7407  0.0304  0.0031
   21DOPE  H12S 2643   2.668   1.849  16.334  0.9439 -0.1230 -0.5164
   21DOPE  C213 2644   2.647   2.031  16.223  0.5764  0.3072  0.1314
   21DOPE  H13R 2645   2.723   2.078  16.289  0.0237 -1.2803  1.9852
   21DOPE  H13S 2646   2.564   2.105  16.211 -0.3002 -0.2129  2.3383
   21DOPE  C214 2647   2.686   1.999  16.077 -0.1035 -0.2088  0.1170
   21DOPE  H14R 2648   2.600   1.949  16.027 -0.3432  1.6112 -1.3740
   21DOPE  H14S 2649   2.770   1.926  16.073 -0.8270 -1.2278  2.1270
   21DOPE  C215 2650   2.730   2.126  15.999 -0.0089  0.6129 -0.0077
   21DOPE  H15R 2651   2.794   2.195  16.058  0.2154  0.1004  0.3530
   21DOPE  H15S 2652   2.631   2.174  15.981 -1.4979 -1.7178  1.3806
   21DOPE  C216 2653   2.804   2.098  15.866 -0.2095  0.3839  0.0907
   21DOPE  H16R 2654   2.737   2.034  15.804  2.2224 -0.2778 -2.0167
   21DOPE  H16S 2655   2.901   2.050  15.893  2.0816  1.7018 -4.6990
   21DOPE  C217 2656   2.838   2.216  15.785 -0.0754  0.1035 -0.8600
   21DOPE  H17R 2657   2.929   2.269  15.822 -0.9641  1.8420 -1.0936
   21DOPE  H17S 2658   2.754   2.288  15.787  0.1694  0.3946  1.0823
   21DOPE  C218 2659   2.875   2.170  15.637 -0.2480  0.3813 -0.6549
   21DOPE  H18R 2660   2.902   2.256  15.572  0.2773 -0.5230 -1.6558
   21DOPE  H18S 2661   2.781   2.124  15.601 -1.4074  1.6011  0.7063
   21DOPE  H18T 2662   2.965   2.106  15.649  0.9235  1.7743 -1.7106
   21DOPE   C33 2663   2.423   1.133  16.821 -0.1179 -0.0203 -1.1008
   21DOPE   H3X 2664   2.334   1.191  16.854  0.5744  0.1887  0.5096
   21DOPE   H3Y 2665   2.410   1.027  16.852 -2.7936  1.0487  2.1126
   21DOPE   C34 2666   2.442   1.139  16.675 -1.3270 -0.5825 -0.2777
   21DOPE   H4X 2667   2.536   1.083  16.653 -0.4731  0.7616 -0.1028
   21DOPE   H4Y 2668   2.352   1.088  16.632 -2.2747  1.9648 -1.5195
   21DOPE   C35 2669   2.430   1.281  16.616 -0.7005 -0.2895 -0.0555
   21DOPE   H5X 2670   2.519   1.346  16.624 -2.2460  2.5883 -3.2984
   21DOPE   H5Y 2671   2.353   1.333  16.677  0.6928 -1.9722  3.3955
   21DOPE   C36 2672   2.405   1.283  16.463 -0.9560  0.1863 -0.6875
   21DOPE   H6X 2673   2.308   1.230  16.462  0.4521 -2.6314  0.4239
   21DOPE   H6Y 2674   2.483   1.226  16.408 -1.2108 -0.4226 -0.4277
   21DOPE   C37 2675   2.391   1.424  16.400  0.7800 -0.0276 -0.1587
   21DOPE   H7X 2676   2.335   1.417  16.304 -0.2260 -2.1929  0.5241
   21DOPE   H7Y 2677   2.322   1.472  16.472  2.0181 -1.7762  2.3168
   21DOPE   C38 2678   2.507   1.529  16.408 -0.0224 -0.1817  0.6238
   21DOPE   H8X 2679   2.554   1.526  16.509  0.9133  2.1956  0.3062
   21DOPE   H8Y 2680   2.472   1.629  16.376 -2.8067 -1.1910  0.3010
   21DOPE   C39 2681   2.608   1.479  16.307  0.4877  0.0164  0.3727
   21DOPE   H9X 2682   2.697   1.441  16.359  2.6495  2.2887 -1.4301
   21DOPE  C310 2683   2.608   1.479  16.171 -0.1893 -0.8131 -0.6038
   21DOPE  H10X 2684   2.680   1.418  16.115 -0.3633 -1.9255  0.3413
   21DOPE  C311 2685   2.505   1.550  16.088  0.1224  0.9846 -0.4200
   21DOPE  H11X 2686   2.427   1.594  16.154  0.9583 -0.6430  1.7672
   21DOPE  H11Y 2687   2.538   1.626  16.014  0.7751 -1.8593 -3.2736
   21DOPE  C312 2688   2.421   1.433  16.013  0.1519 -0.6305  0.4766
   21DOPE  H12X 2689   2.335   1.476  15.960 -1.7755 -3.5412  0.9905
   21DOPE  H12Y 2690   2.376   1.364  16.088 -3.1706  2.1905  1.3058
   21DOPE  C313 2691   2.515   1.363  15.913 -0.0151  0.4461 -0.2004
   21DOPE  H13X 2692   2.604   1.313  15.959 -0.6830 -0.3993  0.2021
   21DOPE  H13Y 2693   2.461   1.282  15.859  1.0515 -0.8321  0.5721
   21DOPE  C314 2694   2.558   1.452  15.805 -0.1673 -0.2119  0.9806
   21DOPE  H14X 2695   2.645   1.510  15.844 -0.1706 -0.8353  1.9207
   21DOPE  H14Y 2696   2.475   1.521  15.778 -1.1363 -1.7077  0.0231
   21DOPE  C315 2697   2.627   1.387  15.682  0.1859 -0.2686 -0.4226
   21DOPE  H15X 2698   2.551   1.313  15.650 -1.8952  1.9922 -1.0075
   21DOPE  H15Y 2699   2.717   1.333  15.719  0.0519 -0.8055 -0.8794
   21DOPE  C316 2700   2.666   1.485  15.573 -0.5390 -0.7190  0.1749
   21DOPE  H16X 2701   2.578   1.552  15.557 -1.6621 -1.6924  1.9290
   21DOPE  H16Y 2702   2.689   1.439  15.474  0.6838  1.5948 -0.6860
   21DOPE  C317 2703   2.793   1.565  15.610 -0.0158 -0.1259  0.2396
   21DOPE  H17X 2704   2.773   1.627  15.699 -1.1107  1.0795 -0.8087
   21DOPE  H17Y 2705   2.861   1.484  15.645  0.3279 -0.3312 -0.8475
   21DOPE  C318 2706   2.835   1.639  15.483  0.5105  0.7234 -0.1182
   21DOPE  H18X 2707   2.750   1.682  15.427  0.0383  2.2186  1.6544
   21DOPE  H18Y 2708   2.900   1.720  15.522  1.0043 -0.0447  0.6949
   21DOPE  H18Z 2709   2.896   1.564  15.428 -0.7560  0.1335 -0.7712
   22DOPE     N 2710   0.351   6.309  16.934 -0.2911  0.0429  0.1245
   22DOPE   HN1 2711   0.335   6.269  17.029 -1.9357 -1.1101 -0.5994
   22DOPE   HN2 2712   0.352   6.220  16.881 -2.4944  0.8776 -1.5004
   22DOPE   HN3 2713   0.443   6.355  16.921  0.1238 -0.9124 -0.4342
   22DOPE   C12 2714   0.237   6.397  16.891 -0.2623  0.1513  0.1933
   22DOPE  H12A 2715   0.216   6.382  16.783 -3.8181 -0.6717  0.8984
   22DOPE  H12B 2716   0.259   6.503  16.915 -0.6187  0.4360 -0.6865
   22DOPE   C11 2717   0.102   6.354  16.957 -0.0729  0.2160 -0.7803
   22DOPE  H11A 2718   0.074   6.251  16.924 -1.0026  0.1637  0.1232
   22DOPE  H11B 2719   0.023   6.418  16.913  0.3194  0.3371 -1.3169
   22DOPE     P 2720  -0.017   6.383  17.182  0.5381 -0.0781 -0.3307
   22DOPE   O13 2721  -0.053   6.529  17.188  0.1378 -0.1414 -0.3985
   22DOPE   O14 2722   0.002   6.318  17.313 -0.1091  0.5972 -0.2590
   22DOPE   O11 2723  -0.129   6.298  17.100 -0.0495 -0.7099  0.0437
   22DOPE   O12 2724   0.110   6.366  17.101  0.8403 -0.5069 -0.6320
   22DOPE    C1 2725  -0.262   6.345  17.089 -0.1388 -0.2626  0.8569
   22DOPE    HA 2726  -0.259   6.455  17.096  3.3025 -0.2759  1.5246
   22DOPE    HB 2727  -0.320   6.314  17.178  1.7181 -0.1536  2.1389
   22DOPE    C2 2728  -0.325   6.309  16.956  0.6742 -0.3106 -0.1261
   22DOPE    HS 2729  -0.322   6.198  16.951  2.3419 -0.2469 -1.6025
   22DOPE   O21 2730  -0.243   6.374  16.861  0.5043 -0.0917 -0.2667
   22DOPE   C21 2731  -0.206   6.285  16.765  0.1203  0.6754  0.2283
   22DOPE   O22 2732  -0.257   6.173  16.752 -0.4979 -0.6558  0.3213
   22DOPE   C22 2733  -0.113   6.350  16.663  0.0954  0.1686 -0.5792
   22DOPE   H2R 2734  -0.010   6.333  16.701  0.5252  1.1446 -1.2711
   22DOPE   H2S 2735  -0.134   6.458  16.654 -1.0608  0.2497  2.0471
   22DOPE    C3 2736  -0.471   6.355  16.946  0.3175 -0.1509  0.7294
   22DOPE    HX 2737  -0.465   6.465  16.964  1.3801  0.1070 -1.0050
   22DOPE    HY 2738  -0.525   6.301  17.026  1.7902 -0.7214  1.3707
   22DOPE   O31 2739  -0.535   6.334  16.819  0.2564 -0.5156 -0.2882
   22DOPE   C31 2740  -0.564   6.205  16.797  0.2285 -0.2301 -0.0964
   22DOPE   O32 2741  -0.560   6.111  16.874 -0.4585  0.0001  0.4999
   22DOPE   C32 2742  -0.626   6.198  16.656 -0.8452 -0.2203 -0.6696
   22DOPE   H2X 2743  -0.674   6.097  16.650  1.4607 -1.7182  3.0107
   22DOPE   H2Y 2744  -0.694   6.285  16.644 -2.4235 -0.8548  2.4725
   22DOPE   C23 2745  -0.119   6.304  16.514 -0.2799  0.3152  0.4583
   22DOPE   H3R 2746  -0.196   6.360  16.458  1.3672  0.0539 -2.2333
   22DOPE   H3S 2747  -0.152   6.199  16.500 -2.4929  1.2392 -2.0991
   22DOPE   C24 2748   0.014   6.339  16.438  0.1038  0.3026 -0.7867
   22DOPE   H4R 2749   0.105   6.314  16.498  1.1347 -0.9123 -2.7507
   22DOPE   H4S 2750   0.018   6.448  16.420  0.4139  0.3227 -0.6192
   22DOPE   C25 2751   0.043   6.264  16.307  0.0193 -0.1234  0.5112
   22DOPE   H5R 2752  -0.052   6.265  16.249  0.5865 -0.1572 -0.4497
   22DOPE   H5S 2753   0.074   6.160  16.329  3.5340  0.7813  0.4033
   22DOPE   C26 2754   0.153   6.339  16.233  0.2627  0.7393  0.4604
   22DOPE   H6R 2755   0.250   6.341  16.286  0.6334  3.8983 -0.1323
   22DOPE   H6S 2756   0.126   6.446  16.235  5.0005  2.1776  3.2584
   22DOPE   C27 2757   0.172   6.279  16.097 -0.2084 -0.0096 -0.0509
   22DOPE   H7R 2758   0.168   6.169  16.106 -0.0346 -0.0369 -0.3041
   22DOPE   H7S 2759   0.273   6.282  16.053 -1.1697 -0.6523 -2.4696
   22DOPE   C28 2760   0.056   6.336  16.007 -0.1833  0.0622 -0.0389
   22DOPE   H8R 2761   0.065   6.446  16.002 -3.5313  0.4268 -1.0014
   22DOPE   H8S 2762  -0.046   6.314  16.045  0.1407 -0.9432  0.2784
   22DOPE   C29 2763   0.056   6.293  15.864  0.7684  0.4416  0.7286
   22DOPE   H9R 2764   0.076   6.371  15.789 -2.8893 -0.8026 -1.8694
   22DOPE  C210 2765   0.040   6.166  15.813  0.1398  0.1260  0.2139
   22DOPE  H10R 2766   0.051   6.149  15.705  1.1147  0.8794  0.1808
   22DOPE  C211 2767   0.004   6.042  15.887  0.1089  0.0528 -0.4541
   22DOPE  H11R 2768  -0.084   5.990  15.841 -1.8117  2.5094  0.1970
   22DOPE  H11S 2769  -0.029   6.062  15.991  1.3377 -2.0147  0.3873
   22DOPE  C212 2770   0.119   5.945  15.907  0.3107 -0.1150 -0.5357
   22DOPE  H12R 2771   0.196   5.996  15.969 -0.0235  2.4254 -2.0670
   22DOPE  H12S 2772   0.168   5.919  15.811 -2.4082  1.0894 -2.3590
   22DOPE  C213 2773   0.077   5.815  15.975  0.3388  0.1961 -0.1342
   22DOPE  H13R 2774  -0.002   5.774  15.907  0.9793  0.5839 -1.1392
   22DOPE  H13S 2775   0.016   5.820  16.068  1.3533 -1.2923  0.6388
   22DOPE  C214 2776   0.182   5.704  15.981 -0.9430  0.1969 -0.0721
   22DOPE  H14R 2777   0.264   5.724  16.054 -1.4974 -3.6976  1.8964
   22DOPE  H14S 2778   0.232   5.703  15.882  0.3873 -3.6738  0.4810
   22DOPE  C215 2779   0.132   5.561  15.979  0.0359 -0.4430 -0.2550
   22DOPE  H15R 2780   0.218   5.496  15.955  0.6184  0.8685 -1.8685
   22DOPE  H15S 2781   0.061   5.547  15.895  0.6277 -0.8460 -0.6889
   22DOPE  C216 2782   0.069   5.512  16.117 -0.3830  0.3067  1.0043
   22DOPE  H16R 2783  -0.000   5.596  16.142  1.0164  1.5310  0.9174
   22DOPE  H16S 2784   0.145   5.497  16.197 -2.1637  2.9133  3.3872
   22DOPE  C217 2785  -0.020   5.390  16.092  0.1351 -0.6580 -1.1381
   22DOPE  H17R 2786  -0.094   5.418  16.013 -0.8281 -0.6436 -0.2460
   22DOPE  H17S 2787  -0.076   5.372  16.186  0.7815 -0.1409 -0.6463
   22DOPE  C218 2788   0.065   5.263  16.065 -0.4798 -1.1173 -0.0652
   22DOPE  H18R 2789   0.148   5.245  16.136 -1.2911 -0.3573  1.1155
   22DOPE  H18S 2790   0.109   5.272  15.963 -1.2571  1.3494 -0.2422
   22DOPE  H18T 2791   0.003   5.171  16.059 -0.5538 -0.9973 -1.4248
   22DOPE   C33 2792  -0.506   6.203  16.554  0.0486 -0.3711  0.1766
   22DOPE   H3X 2793  -0.440   6.114  16.557  1.7877  0.7921 -1.3983
   22DOPE   H3Y 2794  -0.445   6.293  16.578  1.0952 -1.0920  0.3037
   22DOPE   C34 2795  -0.554   6.231  16.405  0.0742  0.1683 -0.2952
   22DOPE   H4X 2796  -0.596   6.140  16.358 -1.2202  0.2364  0.6973
   22DOPE   H4Y 2797  -0.640   6.301  16.412  0.7438  1.1018 -1.1202
   22DOPE   C35 2798  -0.441   6.284  16.317 -0.2949  0.0144 -0.4226
   22DOPE   H5X 2799  -0.352   6.228  16.353 -0.3697  0.2800  0.1768
   22DOPE   H5Y 2800  -0.440   6.394  16.331 -0.3483  0.2490 -2.0890
   22DOPE   C36 2801  -0.456   6.259  16.166 -0.7927  0.2888  0.4972
   22DOPE   H6X 2802  -0.540   6.314  16.117  1.7042  3.0585 -1.0549
   22DOPE   H6Y 2803  -0.468   6.150  16.154 -1.5924  0.5089 -0.9566
   22DOPE   C37 2804  -0.322   6.292  16.088  0.2084 -0.7045 -0.2549
   22DOPE   H7X 2805  -0.264   6.372  16.140 -0.4323  0.4946 -1.3343
   22DOPE   H7Y 2806  -0.259   6.201  16.083  0.7248 -0.3059 -1.1656
   22DOPE   C38 2807  -0.346   6.342  15.942 -0.4444 -0.4705 -0.1665
   22DOPE   H8X 2808  -0.237   6.341  15.919 -0.6360 -1.3418 -1.1076
   22DOPE   H8Y 2809  -0.399   6.440  15.944  0.0074 -0.2224 -0.2337
   22DOPE   C39 2810  -0.426   6.243  15.857  0.5881 -0.7682  0.3598
   22DOPE   H9X 2811  -0.509   6.194  15.910 -0.1020  1.3056  1.3218
   22DOPE  C310 2812  -0.410   6.203  15.731 -0.4052  0.2906  0.4104
   22DOPE  H10X 2813  -0.481   6.124  15.703  2.1069 -1.8663 -0.1970
   22DOPE  C311 2814  -0.309   6.243  15.628 -0.0706  0.0688 -0.7563
   22DOPE  H11X 2815  -0.227   6.301  15.677 -0.2806 -1.5135  1.6433
   22DOPE  H11Y 2816  -0.269   6.156  15.573  0.5387  0.4526 -0.9337
   22DOPE  C312 2817  -0.371   6.345  15.525  0.2783 -0.8921 -0.8424
   22DOPE  H12X 2818  -0.418   6.423  15.588 -1.4586 -1.9518 -0.7909
   22DOPE  H12Y 2819  -0.461   6.306  15.472 -0.1568 -1.7608  0.5029
   22DOPE  C313 2820  -0.274   6.385  15.414 -0.8409  0.4139 -0.3853
   22DOPE  H13X 2821  -0.320   6.478  15.374 -2.3598  0.6078  1.6184
   22DOPE  H13Y 2822  -0.177   6.419  15.456 -2.2229  3.0174  0.9252
   22DOPE  C314 2823  -0.250   6.274  15.318 -0.6733 -0.3203  0.1286
   22DOPE  H14X 2824  -0.339   6.212  15.292 -0.5731 -1.1302  1.6402
   22DOPE  H14Y 2825  -0.176   6.206  15.365  0.0099  0.8148  0.7462
   22DOPE  C315 2826  -0.196   6.325  15.179  0.0311  0.0469 -0.7439
   22DOPE  H15X 2827  -0.165   6.236  15.120  1.3490  1.0674 -1.6453
   22DOPE  H15Y 2828  -0.098   6.376  15.191 -0.3416  0.9814 -1.5806
   22DOPE  C316 2829  -0.289   6.403  15.084 -0.5738  0.3290  0.0998
   22DOPE  H16X 2830  -0.333   6.493  15.131  3.2015  2.2841  0.2704
   22DOPE  H16Y 2831  -0.369   6.336  15.047 -0.2940  1.0931 -2.0489
   22DOPE  C317 2832  -0.222   6.447  14.952 -0.3526  0.2689  0.2913
   22DOPE  H17X 2833  -0.281   6.526  14.900  0.1552 -0.9386 -2.2828
   22DOPE  H17Y 2834  -0.127   6.499  14.975  0.3598  0.9457 -3.4396
   22DOPE  C318 2835  -0.198   6.342  14.840  0.0807  0.7706  0.1283
   22DOPE  H18X 2836  -0.177   6.389  14.741  1.9338 -0.8248 -0.3030
   22DOPE  H18Y 2837  -0.110   6.278  14.861 -0.1454 -0.3677 -2.0305
   22DOPE  H18Z 2838  -0.294   6.288  14.824  1.0106 -1.4599  1.5599
   23DOPE     N 2839   2.740   2.440  17.542 -0.6029 -0.3388  0.6370
   23DOPE   HN1 2840   2.641   2.416  17.520 -0.7211  0.6070  0.0778
   23DOPE   HN2 2841   2.770   2.405  17.635  0.5216 -0.9286  0.0670
   23DOPE   HN3 2842   2.742   2.544  17.536  0.6776 -0.4048 -1.0239
   23DOPE   C12 2843   2.840   2.399  17.434 -0.6230 -0.9517  0.2958
   23DOPE  H12A 2844   2.833   2.473  17.351 -0.7313  0.9470  1.9334
   23DOPE  H12B 2845   2.821   2.292  17.410 -1.2488 -0.9892  0.9158
   23DOPE   C11 2846   2.980   2.412  17.497 -0.1665  0.4031 -0.2211
   23DOPE  H11A 2847   2.989   2.520  17.522 -1.7027  0.3955  0.4538
   23DOPE  H11B 2848   3.054   2.393  17.416  0.2848 -1.1732  0.5424
   23DOPE     P 2849   3.042   2.176  17.613 -0.0218  0.3317  0.3816
   23DOPE   O13 2850   2.936   2.095  17.672 -0.2341 -0.5758 -0.5516
   23DOPE   O14 2851   3.173   2.177  17.680  0.3126 -0.4749  0.7410
   23DOPE   O11 2852   3.059   2.141  17.460  0.2677 -0.1046 -0.4745
   23DOPE   O12 2853   2.999   2.330  17.612 -0.5843 -0.3997 -0.7603
   23DOPE    C1 2854   3.168   2.083  17.396  0.8065 -0.0659  0.1247
   23DOPE    HA 2855   3.131   2.008  17.323  0.0052  0.8156 -0.3993
   23DOPE    HB 2856   3.232   2.034  17.474  1.9902  3.1797  1.3971
   23DOPE    C2 2857   3.271   2.177  17.328  0.4734 -1.1526 -0.2010
   23DOPE    HS 2858   3.312   2.247  17.403  1.9382 -2.1891  0.0259
   23DOPE   O21 2859   3.200   2.256  17.227  0.2497  0.4510  0.1756
   23DOPE   C21 2860   3.255   2.369  17.192 -0.1845 -0.0458 -0.3300
   23DOPE   O22 2861   3.360   2.413  17.234 -0.2299  0.2394  0.3141
   23DOPE   C22 2862   3.172   2.437  17.085  1.0217  0.4363 -0.1173
   23DOPE   H2R 2863   3.175   2.546  17.108  2.2770  0.8701 -2.0688
   23DOPE   H2S 2864   3.075   2.383  17.081  2.4841 -2.4757  0.7978
   23DOPE    C3 2865   3.393   2.093  17.272  1.0908 -0.0087 -0.4365
   23DOPE    HX 2866   3.441   2.048  17.362 -0.4985 -0.4372  0.2201
   23DOPE    HY 2867   3.473   2.150  17.220  1.3554 -0.3303 -0.3863
   23DOPE   O31 2868   3.342   1.984  17.186 -0.3532 -0.2080  0.1708
   23DOPE   C31 2869   3.340   1.996  17.053  0.4370 -0.4588 -0.0412
   23DOPE   O32 2870   3.375   2.099  16.995 -0.0714  0.7544  0.4532
   23DOPE   C32 2871   3.296   1.864  16.985 -0.2001 -0.2924  0.1365
   23DOPE   H2X 2872   3.383   1.795  16.990  1.2020  1.2378 -1.6469
   23DOPE   H2Y 2873   3.224   1.819  17.056  0.3289 -1.2544  0.0826
   23DOPE   C23 2874   3.237   2.420  16.946  0.4274  0.0322 -0.2025
   23DOPE   H3R 2875   3.228   2.315  16.913  0.2164  0.3474 -1.1794
   23DOPE   H3S 2876   3.346   2.440  16.957 -0.0905  2.9422  0.5517
   23DOPE   C24 2877   3.188   2.527  16.846 -0.2675  0.0705 -0.1027
   23DOPE   H4R 2878   3.177   2.625  16.897 -1.8311 -0.1138 -0.0556
   23DOPE   H4S 2879   3.086   2.507  16.809 -0.1706  0.5253 -0.6462
   23DOPE   C25 2880   3.292   2.550  16.731  0.5534 -0.6925 -0.6210
   23DOPE   H5R 2881   3.386   2.566  16.788  0.3681 -0.6156 -0.3295
   23DOPE   H5S 2882   3.262   2.642  16.677 -1.0700  0.5115  2.1189
   23DOPE   C26 2883   3.306   2.427  16.641 -0.4630 -0.7093 -0.2917
   23DOPE   H6R 2884   3.206   2.379  16.635 -0.3699 -0.8399 -0.7877
   23DOPE   H6S 2885   3.372   2.351  16.688  2.2121  1.6480  0.0043
   23DOPE   C27 2886   3.365   2.456  16.503  0.7437  0.0586  0.1934
   23DOPE   H7R 2887   3.464   2.500  16.528 -0.5562  2.1901  2.0291
   23DOPE   H7S 2888   3.301   2.512  16.431  0.4930 -1.7450 -1.0529
   23DOPE   C28 2889   3.400   2.327  16.423  0.1192 -0.0846  0.1221
   23DOPE   H8R 2890   3.385   2.348  16.315  2.1367 -1.9403 -0.5993
   23DOPE   H8S 2891   3.315   2.257  16.440 -1.6303  1.8702 -0.2597
   23DOPE   C29 2892   3.537   2.265  16.430  1.1321  0.4621 -0.4560
   23DOPE   H9R 2893   3.621   2.330  16.402  1.9283 -0.5558 -0.4610
   23DOPE  C210 2894   3.562   2.143  16.484  0.5374 -0.0327  0.0699
   23DOPE  H10R 2895   3.667   2.110  16.489  0.7656  0.5741 -0.7231
   23DOPE  C211 2896   3.457   2.033  16.520 -0.6541  0.4766  0.1597
   23DOPE  H11R 2897   3.350   2.043  16.492 -0.7825  0.7510  0.7279
   23DOPE  H11S 2898   3.457   2.039  16.631 -1.0990 -0.0900  0.1911
   23DOPE  C212 2899   3.501   1.890  16.478  0.5944 -0.2945 -0.1011
   23DOPE  H12R 2900   3.447   1.818  16.542  3.5441 -3.3578 -0.7738
   23DOPE  H12S 2901   3.607   1.891  16.512  0.7345 -1.9516 -0.4107
   23DOPE  C213 2902   3.485   1.865  16.331  0.0250 -0.0949  0.5139
   23DOPE  H13R 2903   3.567   1.908  16.270  0.1511 -1.1612 -0.0811
   23DOPE  H13S 2904   3.393   1.920  16.298 -0.9808 -1.7457  0.4498
   23DOPE  C214 2905   3.466   1.721  16.296  0.3826  0.4503 -0.2053
   23DOPE  H14R 2906   3.378   1.674  16.344  1.2359 -1.9054 -0.8492
   23DOPE  H14S 2907   3.554   1.666  16.334  0.7889  0.7499 -0.6992
   23DOPE  C215 2908   3.453   1.698  16.144 -0.6961 -0.1033 -1.2702
   23DOPE  H15R 2909   3.546   1.741  16.100 -2.2566  3.4303 -1.4589
   23DOPE  H15S 2910   3.371   1.766  16.112 -1.9790  0.1112  2.0674
   23DOPE  C216 2911   3.433   1.551  16.111 -0.1014 -0.0156 -0.6105
   23DOPE  H16R 2912   3.358   1.511  16.183 -0.3107 -0.8868 -1.2919
   23DOPE  H16S 2913   3.520   1.492  16.147  1.5895  0.8858 -2.9896
   23DOPE  C217 2914   3.403   1.542  15.964 -0.1951 -0.0652  0.3863
   23DOPE  H17R 2915   3.482   1.599  15.911 -0.7867  1.2478  0.8603
   23DOPE  H17S 2916   3.313   1.602  15.937  0.7117  0.5001 -1.6435
   23DOPE  C218 2917   3.410   1.400  15.908 -0.1584 -0.5683  0.1194
   23DOPE  H18R 2918   3.394   1.397  15.798 -0.0791  1.6954 -0.0057
   23DOPE  H18S 2919   3.335   1.341  15.965  0.4478 -0.0977  1.4500
   23DOPE  H18T 2920   3.510   1.355  15.924 -0.3887 -1.0102  0.3469
   23DOPE   C33 2921   3.247   1.891  16.841  0.1870 -0.6865 -0.2352
   23DOPE   H3X 2922   3.318   1.959  16.789 -1.8342  1.3364 -0.5218
   23DOPE   H3Y 2923   3.152   1.949  16.842  0.1006 -0.8303  0.0604
   23DOPE   C34 2924   3.217   1.772  16.761  0.0861 -0.2927  0.8036
   23DOPE   H4X 2925   3.310   1.733  16.716  0.5615  0.3624  1.1922
   23DOPE   H4Y 2926   3.161   1.702  16.826 -1.5783 -0.7462 -1.0265
   23DOPE   C35 2927   3.136   1.819  16.630 -0.1796  0.1554 -1.8565
   23DOPE   H5X 2928   3.189   1.909  16.593  0.7359  0.1460 -0.6349
   23DOPE   H5Y 2929   3.043   1.865  16.669  1.6195  1.4770  1.2856
   23DOPE   C36 2930   3.123   1.706  16.522  0.1191 -0.1391  0.1059
   23DOPE   H6X 2931   3.071   1.616  16.562  1.6380 -0.1811  2.1229
   23DOPE   H6Y 2932   3.224   1.671  16.492  0.0580 -0.6688  0.5163
   23DOPE   C37 2933   3.050   1.759  16.406 -0.2043  0.2896  0.1912
   23DOPE   H7X 2934   2.956   1.793  16.456  1.1512  0.9403  2.4404
   23DOPE   H7Y 2935   3.096   1.842  16.348 -1.3713 -0.3184 -1.7127
   23DOPE   C38 2936   3.021   1.650  16.301  0.2240  0.6077  0.0082
   23DOPE   H8X 2937   2.958   1.569  16.343  0.7292  1.3213  2.2929
   23DOPE   H8Y 2938   3.118   1.613  16.261  0.0714 -0.3329  0.4808
   23DOPE   C39 2939   2.953   1.694  16.172  0.1443 -0.1515 -0.2514
   23DOPE   H9X 2940   2.885   1.780  16.187  0.6333 -0.0337  1.5702
   23DOPE  C310 2941   2.961   1.636  16.051 -0.0650  0.3137 -0.4960
   23DOPE  H10X 2942   2.915   1.690  15.967 -1.0385  1.3857  0.6937
   23DOPE  C311 2943   3.044   1.516  16.001  0.1091  0.7140 -0.4182
   23DOPE  H11X 2944   3.102   1.547  15.911 -1.3214  2.8502 -0.6749
   23DOPE  H11Y 2945   3.122   1.500  16.079  0.5114 -1.8315 -1.2755
   23DOPE  C312 2946   2.955   1.387  15.985  0.0758 -0.0635 -0.1768
   23DOPE  H12X 2947   2.862   1.420  15.934 -0.7164 -0.2357  1.0944
   23DOPE  H12Y 2948   2.931   1.328  16.076  0.6388 -2.1709 -1.3325
   23DOPE  C313 2949   3.017   1.265  15.900 -0.6744 -0.5095  0.0543
   23DOPE  H13X 2950   3.047   1.305  15.801 -1.5147  2.4946  0.9088
   23DOPE  H13Y 2951   3.108   1.229  15.953 -0.1637  0.5621 -0.0510
   23DOPE  C314 2952   2.920   1.155  15.897  0.0543  0.6285 -0.1218
   23DOPE  H14X 2953   2.822   1.183  15.853 -0.0487  2.6029  1.2304
   23DOPE  H14Y 2954   2.899   1.121  16.000  1.5292  0.1564  0.0474
   23DOPE  C315 2955   2.966   1.025  15.815  0.2669 -0.0326 -0.4509
   23DOPE  H15X 2956   2.887   0.947  15.814 -0.1965  0.4282 -0.4030
   23DOPE  H15Y 2957   3.058   0.982  15.859  1.8907  2.7499 -0.8775
   23DOPE  C316 2958   3.010   1.053  15.676  0.9180  0.2814  0.3639
   23DOPE  H16X 2959   3.086   1.133  15.665  0.0904  0.8672 -1.6143
   23DOPE  H16Y 2960   2.928   1.093  15.613  0.8130 -0.3216  0.1121
   23DOPE  C317 2961   3.060   0.926  15.609 -0.3146  1.0554  0.7480
   23DOPE  H17X 2962   3.147   0.883  15.662 -0.9057 -0.4843  0.5090
   23DOPE  H17Y 2963   2.974   0.855  15.610 -0.8204  1.6555  0.7565
   23DOPE  C318 2964   3.098   0.943  15.460 -0.2143  0.0329  0.6495
   23DOPE  H18X 2965   3.000   0.961  15.410 -0.2846 -0.1691  0.7122
   23DOPE  H18Y 2966   3.157   1.036  15.448 -1.2201  0.6169  0.0459
   23DOPE  H18Z 2967   3.149   0.851  15.424 -1.7053 -1.4638  2.1679
   24DOPE     N 2968   6.422   6.761  17.591 -0.0674  0.0011  0.2477
   24DOPE   HN1 2969   6.395   6.668  17.629  2.4189  0.4990  3.7379
   24DOPE   HN2 2970   6.523   6.787  17.596 -0.5255  2.0262 -0.1034
   24DOPE   HN3 2971   6.371   6.837  17.641 -0.0732 -0.7551  1.4305
   24DOPE   C12 2972   6.383   6.774  17.443 -0.1695  0.3191  0.5088
   24DOPE  H12A 2973   6.432   6.696  17.381 -0.0220  0.7295  0.1045
   24DOPE  H12B 2974   6.414   6.874  17.407  0.3012 -0.2457 -0.7135
   24DOPE   C11 2975   6.229   6.767  17.427 -0.2304 -0.6356 -0.1779
   24DOPE  H11A 2976   6.204   6.783  17.320 -0.5919  1.9943  0.2269
   24DOPE  H11B 2977   6.183   6.855  17.477  4.1215  2.4684 -0.9977
   24DOPE     P 2978   6.028   6.600  17.458 -0.2420 -0.2416  0.1074
   24DOPE   O13 2979   5.941   6.716  17.488  0.2830  0.1545 -0.2249
   24DOPE   O14 2980   5.993   6.483  17.539 -0.2077 -0.2573 -0.2546
   24DOPE   O11 2981   6.019   6.570  17.304 -0.0047 -0.1622 -0.2587
   24DOPE   O12 2982   6.177   6.643  17.480 -0.4041  0.0402  0.6827
   24DOPE    C1 2983   5.890   6.546  17.240  0.0864 -0.3005 -0.4744
   24DOPE    HA 2984   5.814   6.615  17.283  1.3399  0.1487  1.1341
   24DOPE    HB 2985   5.854   6.445  17.268 -1.5307  0.0427 -1.2063
   24DOPE    C2 2986   5.890   6.567  17.090 -0.1656  0.9956  0.3158
   24DOPE    HS 2987   5.790   6.530  17.061  0.3282 -0.1625  0.0219
   24DOPE   O21 2988   5.997   6.501  17.020  0.5176 -0.2562  0.4492
   24DOPE   C21 2989   5.973   6.375  16.985 -0.3405  0.7426  0.9017
   24DOPE   O22 2990   5.878   6.302  17.003 -0.2265  0.3549 -0.1337
   24DOPE   C22 2991   6.091   6.329  16.898 -0.0706 -0.7624  0.7690
   24DOPE   H2R 2992   6.089   6.218  16.890 -0.0990 -0.6457 -1.6561
   24DOPE   H2S 2993   6.183   6.364  16.950  0.3879  0.6690 -0.9113
   24DOPE    C3 2994   5.892   6.725  17.060  0.1390 -0.0477  0.5953
   24DOPE    HX 2995   5.987   6.771  17.097 -0.4184  1.0093  0.7468
   24DOPE    HY 2996   5.806   6.765  17.117 -0.5591 -1.3101  0.4637
   24DOPE   O31 2997   5.872   6.745  16.917  0.1640  0.2402 -0.3239
   24DOPE   C31 2998   5.826   6.864  16.875  0.2541  0.1354 -0.2197
   24DOPE   O32 2999   5.806   6.963  16.940  0.3451 -0.0378 -0.2003
   24DOPE   C32 3000   5.818   6.860  16.721 -0.5853 -0.1716 -0.3315
   24DOPE   H2X 3001   5.897   6.924  16.676  0.6620 -0.6602  1.0388
   24DOPE   H2Y 3002   5.820   6.756  16.684 -1.2286  0.3358 -1.8458
   24DOPE   C23 3003   6.098   6.390  16.758  0.4610 -0.8652  0.1263
   24DOPE   H3R 3004   6.071   6.498  16.759  1.4464 -0.4889 -3.1482
   24DOPE   H3S 3005   6.021   6.353  16.688 -1.5849  1.8869  0.7574
   24DOPE   C24 3006   6.238   6.379  16.702 -0.0510  0.1920  0.6375
   24DOPE   H4R 3007   6.309   6.436  16.766  0.5080 -0.5703  0.7077
   24DOPE   H4S 3008   6.226   6.431  16.604 -1.7368 -2.2288 -0.5370
   24DOPE   C25 3009   6.292   6.240  16.674  0.5408 -0.1373  0.0092
   24DOPE   H5R 3010   6.240   6.191  16.589  1.2001  0.8228 -0.9640
   24DOPE   H5S 3011   6.271   6.179  16.764  0.9370 -1.4406 -0.7534
   24DOPE   C26 3012   6.446   6.238  16.653 -0.5273  1.1493 -0.8085
   24DOPE   H6R 3013   6.462   6.129  16.664  0.5716  1.2465 -1.3497
   24DOPE   H6S 3014   6.489   6.296  16.737  0.3378 -1.1217  0.3834
   24DOPE   C27 3015   6.493   6.280  16.512 -0.1964  0.2642  0.0191
   24DOPE   H7R 3016   6.463   6.385  16.492 -1.2278 -0.0031  0.1135
   24DOPE   H7S 3017   6.437   6.212  16.445  0.0494 -0.9248  0.9927
   24DOPE   C28 3018   6.645   6.246  16.495  0.1260  0.1406 -0.1944
   24DOPE   H8R 3019   6.661   6.139  16.518  0.1654  0.4164  1.1181
   24DOPE   H8S 3020   6.710   6.301  16.567  0.6827 -0.9094  0.1216
   24DOPE   C29 3021   6.693   6.274  16.352  0.1118 -0.0542 -0.4292
   24DOPE   H9R 3022   6.698   6.379  16.322 -0.7677  0.3402  0.6932
   24DOPE  C210 3023   6.728   6.185  16.264  0.6793  0.5078 -0.0295
   24DOPE  H10R 3024   6.788   6.210  16.174  1.6142 -0.6091  0.2519
   24DOPE  C211 3025   6.711   6.035  16.286  0.0690  0.1917 -0.5504
   24DOPE  H11R 3026   6.604   6.020  16.313 -0.6384  2.0176 -2.1260
   24DOPE  H11S 3027   6.781   6.001  16.366  1.0890  1.2131 -0.9784
   24DOPE  C212 3028   6.750   5.961  16.162  0.0405  0.1005  0.3197
   24DOPE  H12R 3029   6.695   5.998  16.073 -0.3884 -0.1842  0.4618
   24DOPE  H12S 3030   6.716   5.855  16.170 -0.4082  0.1955 -0.2182
   24DOPE  C213 3031   6.903   5.961  16.132 -0.9925 -0.1754  0.7188
   24DOPE  H13R 3032   6.963   5.924  16.217  2.1029  1.7455 -0.4379
   24DOPE  H13S 3033   6.948   6.060  16.110 -0.7466 -0.6273 -0.9931
   24DOPE  C214 3034   6.950   5.868  16.015  0.1316 -0.0833 -0.2114
   24DOPE  H14R 3035   6.886   5.885  15.926  1.1838 -0.0660 -0.9893
   24DOPE  H14S 3036   6.935   5.764  16.049  1.0106 -1.2014 -2.9807
   24DOPE  C215 3037   7.096   5.883  15.973  0.0384  0.4263 -0.2243
   24DOPE  H15R 3038   7.122   5.974  15.915  0.0150  1.2090  0.9665
   24DOPE  H15S 3039   7.123   5.800  15.903 -0.9959  0.9067 -1.2204
   24DOPE  C216 3040   7.190   5.875  16.093 -0.9120 -0.1977  0.0003
   24DOPE  H16R 3041   7.191   5.771  16.133  1.6474 -0.0532  0.5019
   24DOPE  H16S 3042   7.167   5.952  16.169 -1.7496 -1.2882  0.8879
   24DOPE  C217 3043   7.336   5.897  16.043 -0.3286  0.3126 -0.2110
   24DOPE  H17R 3044   7.351   5.994  15.992 -0.2554  0.8152  0.7439
   24DOPE  H17S 3045   7.367   5.823  15.966  1.2377  0.3309  0.3667
   24DOPE  C218 3046   7.444   5.885  16.151 -0.4697 -0.3581  0.3345
   24DOPE  H18R 3047   7.541   5.934  16.124 -0.8113 -0.4696 -1.2199
   24DOPE  H18S 3048   7.459   5.778  16.178 -0.8002  0.5415  4.6457
   24DOPE  H18T 3049   7.407   5.933  16.243 -1.6052  1.6804 -1.1146
   24DOPE   C33 3050   5.690   6.935  16.678  0.0316  0.3164 -0.2301
   24DOPE   H3X 3051   5.685   7.036  16.726  1.1793  0.0354  0.5310
   24DOPE   H3Y 3052   5.600   6.883  16.717  0.3178  0.2354  0.3401
   24DOPE   C34 3053   5.674   6.961  16.525  0.0121  0.4246  0.1664
   24DOPE   H4X 3054   5.591   7.034  16.514 -0.4443  0.5161  3.3218
   24DOPE   H4Y 3055   5.763   7.008  16.479  0.1649 -1.5015 -1.6504
   24DOPE   C35 3056   5.649   6.829  16.444  0.0859 -0.0818 -0.6613
   24DOPE   H5X 3057   5.547   6.801  16.477  0.6109  0.3008  1.4316
   24DOPE   H5Y 3058   5.714   6.758  16.500  0.2518  1.8129  1.7348
   24DOPE   C36 3059   5.681   6.835  16.299 -0.6365 -0.0040  0.2126
   24DOPE   H6X 3060   5.684   6.741  16.241  0.8239  1.2980 -1.9932
   24DOPE   H6Y 3061   5.786   6.863  16.276 -0.6922 -0.4899 -0.6556
   24DOPE   C37 3062   5.581   6.920  16.220  0.3605  0.3070  0.1778
   24DOPE   H7X 3063   5.482   6.872  16.235  1.5230 -1.8460  1.4604
   24DOPE   H7Y 3064   5.559   7.018  16.265 -2.7315  0.0505 -0.5451
   24DOPE   C38 3065   5.592   6.935  16.069 -0.1560  0.7185 -0.1556
   24DOPE   H8X 3066   5.494   6.971  16.031  1.3334  1.6014 -3.5548
   24DOPE   H8Y 3067   5.594   6.830  16.033 -1.5910  1.0030 -1.1363
   24DOPE   C39 3068   5.707   7.012  16.015 -0.1032 -0.1124 -0.1844
   24DOPE   H9X 3069   5.801   7.014  16.072  0.8103 -2.4795 -1.4933
   24DOPE  C310 3070   5.727   7.048  15.884  0.0855  0.3972 -1.0788
   24DOPE  H10X 3071   5.820   7.102  15.862  1.5891 -0.2225  2.9859
   24DOPE  C311 3072   5.627   7.051  15.771  0.2339 -0.6794  0.2184
   24DOPE  H11X 3073   5.526   7.027  15.810  0.1987 -0.7467  0.0876
   24DOPE  H11Y 3074   5.632   7.158  15.743  0.8999 -0.9703 -0.8480
   24DOPE  C312 3075   5.657   6.973  15.642 -0.3603  0.3542  0.2835
   24DOPE  H12X 3076   5.706   6.880  15.679 -4.1345 -1.7414  0.4908
   24DOPE  H12Y 3077   5.735   7.032  15.588  0.0870 -0.9023 -0.4971
   24DOPE  C313 3078   5.535   6.941  15.551  0.3746  0.0712 -0.5273
   24DOPE  H13X 3079   5.442   6.919  15.607 -0.1435  1.5379 -0.7590
   24DOPE  H13Y 3080   5.524   7.030  15.484 -1.4998 -0.1252 -0.5473
   24DOPE  C314 3081   5.564   6.827  15.452  0.3693 -0.5036  0.0129
   24DOPE  H14X 3082   5.629   6.753  15.502  0.1719  0.7799  2.3138
   24DOPE  H14Y 3083   5.628   6.870  15.372 -0.7964 -0.1010 -0.7360
   24DOPE  C315 3084   5.435   6.769  15.388  0.8193 -0.4523  0.5142
   24DOPE  H15X 3085   5.357   6.847  15.375  0.1500 -0.8961  1.6682
   24DOPE  H15Y 3086   5.386   6.696  15.458 -1.5867  0.3956 -0.1741
   24DOPE  C316 3087   5.468   6.681  15.261 -0.0160 -0.4295 -0.4071
   24DOPE  H16X 3088   5.512   6.586  15.300  1.1127 -0.0825 -0.8118
   24DOPE  H16Y 3089   5.545   6.732  15.199  0.1414 -2.5261 -2.0642
   24DOPE  C317 3090   5.338   6.663  15.184  0.3468 -0.3038 -0.2005
   24DOPE  H17X 3091   5.284   6.759  15.164  0.2373 -0.3834 -0.2836
   24DOPE  H17Y 3092   5.360   6.618  15.086  0.2076  1.2274 -0.9754
   24DOPE  C318 3093   5.235   6.574  15.254  0.0948 -0.6392  0.4511
   24DOPE  H18X 3094   5.136   6.554  15.207 -0.3857  0.0274  1.1650
   24DOPE  H18Y 3095   5.272   6.470  15.270 -0.9599 -0.7179  2.6410
   24DOPE  H18Z 3096   5.214   6.616  15.354 -1.6072 -0.2569 -0.0285
   25DOPE     N 3097   6.939   6.834  17.861  0.8703  0.3138  0.3743
   25DOPE   HN1 3098   6.900   6.813  17.955  0.1323 -0.2575 -0.0544
   25DOPE   HN2 3099   7.041   6.855  17.851  0.8687  0.3270  0.3886
   25DOPE   HN3 3100   6.891   6.922  17.835  0.6146  0.1298  0.2234
   25DOPE   C12 3101   6.899   6.726  17.768 -0.3406 -0.4921 -0.1334
   25DOPE  H12A 3102   6.789   6.726  17.760 -0.3625 -2.5688 -0.6038
   25DOPE  H12B 3103   6.928   6.625  17.805 -1.3888 -1.0293 -0.7572
   25DOPE   C11 3104   6.950   6.759  17.631  0.1910 -0.1573  0.5583
   25DOPE  H11A 3105   6.913   6.680  17.562  2.7480 -1.0953  0.1377
   25DOPE  H11B 3106   7.061   6.753  17.624  0.1295 -1.4501  0.5166
   25DOPE     P 3107   6.786   6.903  17.494  0.3776 -0.1210  0.0809
   25DOPE   O13 3108   6.759   7.046  17.484  0.4746 -0.0589 -0.3532
   25DOPE   O14 3109   6.675   6.817  17.540  0.1092  0.1639  0.3105
   25DOPE   O11 3110   6.828   6.860  17.351  0.2299  0.1969 -0.2516
   25DOPE   O12 3111   6.911   6.887  17.584  0.2252  0.4646 -0.2391
   25DOPE    C1 3112   6.950   6.878  17.294 -0.0051  0.5685 -0.0567
   25DOPE    HA 3113   6.955   6.804  17.211 -3.4866  1.9305 -1.6371
   25DOPE    HB 3114   7.037   6.868  17.362 -0.0556  1.8116  0.1999
   25DOPE    C2 3115   6.968   7.018  17.229  0.4186  0.3167  0.0696
   25DOPE    HS 3116   6.953   7.086  17.315  1.2099 -0.1517  0.5857
   25DOPE   O21 3117   6.866   7.030  17.132  0.8257  0.1886 -0.4299
   25DOPE   C21 3118   6.839   7.154  17.093 -0.6261  0.0082  0.4295
   25DOPE   O22 3119   6.893   7.257  17.136 -0.5913  0.0940 -0.1781
   25DOPE   C22 3120   6.773   7.147  16.968  0.4140  0.2871  0.3183
   25DOPE   H2R 3121   6.792   7.057  16.904  1.7135  2.1381 -2.0663
   25DOPE   H2S 3122   6.809   7.233  16.907 -2.7948  1.3109 -0.3206
   25DOPE    C3 3123   7.112   7.031  17.172 -0.0549  0.3003  0.1873
   25DOPE    HX 3124   7.181   7.020  17.259 -0.8035  0.1376  0.7749
   25DOPE    HY 3125   7.115   7.129  17.120 -0.8112  0.5859  0.6594
   25DOPE   O31 3126   7.144   6.918  17.089 -0.0882  0.1283 -0.3997
   25DOPE   C31 3127   7.271   6.908  17.060  0.4770 -0.3636 -0.3854
   25DOPE   O32 3128   7.349   7.001  17.059 -0.5378  0.0807 -0.6514
   25DOPE   C32 3129   7.307   6.761  17.034 -0.1094 -0.4254 -0.3002
   25DOPE   H2X 3130   7.375   6.736  17.118  0.6905 -1.3069 -1.1860
   25DOPE   H2Y 3131   7.225   6.687  17.045 -1.2661  1.0692  1.9176
   25DOPE   C23 3132   6.612   7.153  16.968 -0.4436 -0.0630 -0.2202
   25DOPE   H3R 3133   6.584   7.242  17.028 -1.4283  0.2474 -1.1124
   25DOPE   H3S 3134   6.568   7.063  17.016 -0.1433  0.2421  0.6469
   25DOPE   C24 3135   6.560   7.156  16.825  0.0976  0.0565  0.1142
   25DOPE   H4R 3136   6.451   7.153  16.842  0.0445 -2.2460 -0.3549
   25DOPE   H4S 3137   6.600   7.059  16.788  1.5071 -0.2680  2.2687
   25DOPE   C25 3138   6.600   7.274  16.739  0.1107 -1.0168  1.6420
   25DOPE   H5R 3139   6.708   7.266  16.714 -0.3601 -2.1844 -0.2611
   25DOPE   H5S 3140   6.590   7.372  16.790  0.4722  0.7525 -1.4490
   25DOPE   C26 3141   6.528   7.290  16.603 -0.6330 -0.0149 -0.3272
   25DOPE   H6R 3142   6.419   7.290  16.627 -0.0019  0.1668  3.1394
   25DOPE   H6S 3143   6.555   7.209  16.533 -1.2542  0.2652 -0.9074
   25DOPE   C27 3144   6.565   7.428  16.531  0.0699 -0.1234 -0.4346
   25DOPE   H7R 3145   6.675   7.410  16.526  0.3354  0.7630  1.5083
   25DOPE   H7S 3146   6.551   7.521  16.589  1.4270  0.0647 -0.3753
   25DOPE   C28 3147   6.522   7.427  16.380  0.1460  0.4720 -0.2151
   25DOPE   H8R 3148   6.411   7.433  16.389  0.2816 -0.2777  3.4089
   25DOPE   H8S 3149   6.543   7.329  16.332  0.0124  1.1797 -1.8029
   25DOPE   C29 3150   6.585   7.543  16.304 -0.1274 -0.4308 -0.4901
   25DOPE   H9R 3151   6.624   7.618  16.375 -2.8896  0.4101  0.2591
   25DOPE  C210 3152   6.621   7.545  16.178  0.0668 -0.1471  0.5795
   25DOPE  H10R 3153   6.677   7.631  16.139  0.7788 -0.4088  1.0135
   25DOPE  C211 3154   6.597   7.432  16.079  0.4392  0.2779  0.4707
   25DOPE  H11R 3155   6.522   7.358  16.116  0.2899  0.1629 -0.0489
   25DOPE  H11S 3156   6.688   7.370  16.061  0.5648  0.4346  0.5707
   25DOPE  C212 3157   6.547   7.480  15.935 -0.6984 -0.4218  0.5308
   25DOPE  H12R 3158   6.622   7.552  15.895 -0.0698  0.2055  2.7039
   25DOPE  H12S 3159   6.448   7.530  15.929 -0.6169 -0.3391 -0.3030
   25DOPE  C213 3160   6.549   7.367  15.825  0.9734  0.1393 -0.1728
   25DOPE  H13R 3161   6.515   7.284  15.891  1.1890  1.0012  1.0619
   25DOPE  H13S 3162   6.648   7.357  15.777  0.0150 -1.4292 -1.9777
   25DOPE  C214 3163   6.463   7.398  15.704  0.4760 -0.2804 -0.4025
   25DOPE  H14R 3164   6.497   7.498  15.669 -1.6438  1.5539  2.3428
   25DOPE  H14S 3165   6.356   7.415  15.730  1.2568  2.3497  1.5022
   25DOPE  C215 3166   6.464   7.280  15.606  0.2590  0.5194 -0.2149
   25DOPE  H15R 3167   6.426   7.182  15.643  1.1356 -0.0028 -0.6544
   25DOPE  H15S 3168   6.570   7.266  15.573 -0.4274 -0.4836 -2.1550
   25DOPE  C216 3169   6.390   7.313  15.474  0.2554  1.0667 -0.0438
   25DOPE  H16R 3170   6.430   7.404  15.424  2.4029 -0.0211 -0.4255
   25DOPE  H16S 3171   6.283   7.323  15.498  0.1976  0.4729 -0.0500
   25DOPE  C217 3172   6.411   7.194  15.370 -1.2485 -0.3138 -0.8787
   25DOPE  H17R 3173   6.401   7.104  15.433  0.1660  1.0014  1.3394
   25DOPE  H17S 3174   6.518   7.209  15.344 -0.2247  0.1190  2.9884
   25DOPE  C218 3175   6.308   7.206  15.263  0.3834  0.3620 -0.0583
   25DOPE  H18R 3176   6.212   7.245  15.304 -1.0381  0.9949 -3.6736
   25DOPE  H18S 3177   6.288   7.107  15.215 -0.4856  0.8449 -0.7153
   25DOPE  H18T 3178   6.324   7.281  15.184 -0.2908  3.1891  2.3207
   25DOPE   C33 3179   7.386   6.737  16.900  0.2106  0.4359  0.1038
   25DOPE   H3X 3180   7.418   6.631  16.899 -1.5293 -0.1274 -0.8005
   25DOPE   H3Y 3181   7.480   6.795  16.888  1.1485 -0.6190  2.0345
   25DOPE   C34 3182   7.293   6.756  16.773  0.2135 -0.0592 -0.7085
   25DOPE   H4X 3183   7.194   6.706  16.773 -0.5655  1.4116  0.0847
   25DOPE   H4Y 3184   7.268   6.864  16.769 -1.2608 -0.3724 -0.6866
   25DOPE   C35 3185   7.371   6.715  16.644  0.4367  0.4199 -0.1129
   25DOPE   H5X 3186   7.387   6.606  16.653 -0.3875  0.0738 -2.2448
   25DOPE   H5Y 3187   7.466   6.773  16.634  2.2805 -2.4400 -0.2045
   25DOPE   C36 3188   7.296   6.744  16.516 -0.0839 -0.3179 -0.0548
   25DOPE   H6X 3189   7.292   6.853  16.494 -3.4239 -0.2274  0.3855
   25DOPE   H6Y 3190   7.192   6.704  16.524  0.1583 -1.0189 -0.3420
   25DOPE   C37 3191   7.351   6.676  16.395 -0.0568  0.2922 -0.7022
   25DOPE   H7X 3192   7.444   6.726  16.360  0.3761  0.5168  0.6738
   25DOPE   H7Y 3193   7.367   6.579  16.446 -1.9527  0.1370 -0.3341
   25DOPE   C38 3194   7.245   6.671  16.280  0.5178  0.4077  0.0016
   25DOPE   H8X 3195   7.162   6.606  16.316  1.1175 -0.0864  0.5185
   25DOPE   H8Y 3196   7.293   6.623  16.192 -0.9837 -0.8253 -0.1781
   25DOPE   C39 3197   7.197   6.806  16.235  0.2263  0.3230  0.8248
   25DOPE   H9X 3198   7.255   6.888  16.280  1.8390 -0.3220  0.0080
   25DOPE  C310 3199   7.111   6.821  16.134  0.3008 -0.1825 -0.0393
   25DOPE  H10X 3200   7.087   6.919  16.089  0.4444  0.5420  1.4269
   25DOPE  C311 3201   7.036   6.708  16.066  0.2760  0.3710  0.2738
   25DOPE  H11X 3202   7.069   6.606  16.096  1.0999  0.2782 -0.8898
   25DOPE  H11Y 3203   6.929   6.701  16.096 -0.2755 -0.1375 -1.6726
   25DOPE  C312 3204   7.037   6.720  15.918  0.2837  0.0530  0.4001
   25DOPE  H12X 3205   7.141   6.727  15.879 -0.5272  0.0650 -1.8988
   25DOPE  H12Y 3206   6.968   6.791  15.867 -0.7147 -0.2092  1.3485
   25DOPE  C313 3207   7.000   6.592  15.840  0.5079 -0.8064  0.1392
   25DOPE  H13X 3208   6.997   6.621  15.733 -3.4957  0.6248  0.4889
   25DOPE  H13Y 3209   7.079   6.517  15.862  0.4010 -1.3621 -1.2495
   25DOPE  C314 3210   6.866   6.539  15.884 -0.6194 -0.6080  0.0497
   25DOPE  H14X 3211   6.791   6.621  15.878  1.1767  0.9694 -2.2638
   25DOPE  H14Y 3212   6.877   6.500  15.988  0.1551  0.0083  0.2077
   25DOPE  C315 3213   6.810   6.426  15.791 -0.2347 -1.0068 -0.0127
   25DOPE  H15X 3214   6.790   6.465  15.689 -0.6574 -1.9516 -0.3015
   25DOPE  H15Y 3215   6.723   6.382  15.844  0.5728 -2.7980 -0.1258
   25DOPE  C316 3216   6.900   6.308  15.769 -0.4958 -0.5576 -0.1398
   25DOPE  H16X 3217   6.938   6.277  15.868  0.3220  2.1877  0.5066
   25DOPE  H16Y 3218   6.989   6.351  15.718 -1.8612  1.8339 -0.6879
   25DOPE  C317 3219   6.829   6.196  15.699  0.5912  0.1594  0.4664
   25DOPE  H17X 3220   6.735   6.179  15.756 -0.2383  0.4895 -0.7649
   25DOPE  H17Y 3221   6.806   6.235  15.598 -1.8501 -0.3567  0.7734
   25DOPE  C318 3222   6.897   6.065  15.686 -0.1125  0.5185  0.6983
   25DOPE  H18X 3223   6.840   5.996  15.620  2.0778  0.3250 -1.1256
   25DOPE  H18Y 3224   6.998   6.070  15.640 -0.7103  0.9762 -0.6176
   25DOPE  H18Z 3225   6.909   6.013  15.783 -0.8199  0.4775  0.7664
   26DOPE     N 3226   0.289   0.159  17.598  0.4030 -0.8454  0.2512
   26DOPE   HN1 3227   0.270   0.175  17.699 -1.4453 -1.9989  0.1343
   26DOPE   HN2 3228   0.390   0.172  17.578  0.0585  1.3073 -0.3296
   26DOPE   HN3 3229   0.243   0.220  17.528  0.7606 -0.5857  0.2393
   26DOPE   C12 3230   0.232   0.012  17.577  0.0738 -0.7207  0.7268
   26DOPE  H12A 3231   0.127   0.020  17.540  0.3075 -1.0406 -0.0261
   26DOPE  H12B 3232   0.245  -0.047  17.671 -0.7137 -1.2056  0.5392
   26DOPE   C11 3233   0.307  -0.064  17.463  0.0080 -0.0527 -0.1117
   26DOPE  H11A 3234   0.255  -0.162  17.458 -1.6836  0.5856  2.9812
   26DOPE  H11B 3235   0.411  -0.086  17.498  0.1595  0.6585 -0.0999
   26DOPE     P 3236   0.298  -0.048  17.201  0.3796 -0.1171  0.0438
   26DOPE   O13 3237   0.389  -0.165  17.180  0.1953 -0.4694 -0.2962
   26DOPE   O14 3238   0.313   0.064  17.104  0.4522  0.7099 -0.3753
   26DOPE   O11 3239   0.149  -0.102  17.203 -0.7124 -0.0613  0.1324
   26DOPE   O12 3240   0.311   0.013  17.344 -0.1247  0.1264 -0.3892
   26DOPE    C1 3241   0.037  -0.022  17.250 -0.3929  0.2868 -0.9310
   26DOPE    HA 3242   0.073   0.054  17.321 -0.6610 -1.4153  1.1111
   26DOPE    HB 3243  -0.033  -0.073  17.319 -0.1242  2.2392  0.8703
   26DOPE    C2 3244  -0.053   0.020  17.126 -0.1787 -0.0688 -0.1354
   26DOPE    HS 3245  -0.134  -0.054  17.109 -0.4626  0.6886 -2.3501
   26DOPE   O21 3246   0.023   0.033  17.003  0.3071  0.4663  0.5077
   26DOPE   C21 3247   0.034  -0.070  16.926 -0.0367 -0.3990  0.3829
   26DOPE   O22 3248  -0.004  -0.184  16.957  0.0189 -0.1649  0.3473
   26DOPE   C22 3249   0.106  -0.043  16.796  0.5604  0.1634 -0.2956
   26DOPE   H2R 3250   0.213  -0.020  16.817  0.2458  0.1163  1.4595
   26DOPE   H2S 3251   0.062   0.052  16.760 -2.0287 -0.3773  1.2516
   26DOPE    C3 3252  -0.119   0.158  17.158 -0.4691  0.5338 -0.8075
   26DOPE    HX 3253  -0.045   0.240  17.172  2.3650 -1.7789 -1.3816
   26DOPE    HY 3254  -0.165   0.143  17.258  0.1803  0.7813 -0.4641
   26DOPE   O31 3255  -0.214   0.174  17.048  0.2549  0.2735 -0.4082
   26DOPE   C31 3256  -0.168   0.271  16.965  0.3919 -0.4398  0.1055
   26DOPE   O32 3257  -0.053   0.304  16.954  0.4198 -0.2866 -0.1443
   26DOPE   C32 3258  -0.271   0.325  16.867  0.6363 -0.1710 -0.4928
   26DOPE   H2X 3259  -0.316   0.410  16.922 -0.4615 -1.3018  0.4090
   26DOPE   H2Y 3260  -0.220   0.367  16.777 -0.3937  0.7585 -0.6648
   26DOPE   C23 3261   0.106  -0.164  16.702 -0.1579  0.1418 -0.0628
   26DOPE   H3R 3262   0.008  -0.210  16.677  0.2614 -1.1254  0.5360
   26DOPE   H3S 3263   0.163  -0.240  16.759 -3.5570  0.0322  3.6316
   26DOPE   C24 3264   0.182  -0.132  16.579  0.1882  0.3537 -0.3847
   26DOPE   H4R 3265   0.288  -0.110  16.602 -0.3815  3.4280 -0.2949
   26DOPE   H4S 3266   0.146  -0.038  16.533 -1.4336  1.3972  2.7006
   26DOPE   C25 3267   0.184  -0.245  16.475  0.3250  0.0063  0.1117
   26DOPE   H5R 3268   0.087  -0.257  16.422  1.0615 -2.0947 -0.8733
   26DOPE   H5S 3269   0.212  -0.348  16.508  3.5326 -0.4388 -3.2938
   26DOPE   C26 3270   0.296  -0.224  16.372  0.1418 -1.0027  0.4405
   26DOPE   H6R 3271   0.393  -0.189  16.412  0.0270 -0.7784  0.5208
   26DOPE   H6S 3272   0.258  -0.150  16.299 -1.0505 -0.3205  1.6940
   26DOPE   C27 3273   0.338  -0.355  16.292  0.3885  0.1259 -0.4313
   26DOPE   H7R 3274   0.389  -0.415  16.370 -0.6083 -0.0560  0.0951
   26DOPE   H7S 3275   0.412  -0.326  16.214  0.1440 -0.0197 -0.7178
   26DOPE   C28 3276   0.221  -0.435  16.225 -0.4195  0.1818  0.1365
   26DOPE   H8R 3277   0.154  -0.481  16.300  0.7246 -0.3074  0.9004
   26DOPE   H8S 3278   0.265  -0.531  16.190 -1.8658  0.1628 -1.7879
   26DOPE   C29 3279   0.143  -0.365  16.118  0.3496 -0.0399  0.0796
   26DOPE   H9R 3280   0.056  -0.306  16.149  0.7582 -0.8188  3.1192
   26DOPE  C210 3281   0.185  -0.371  15.990 -0.0327 -0.1624 -0.1554
   26DOPE  H10R 3282   0.105  -0.340  15.920 -1.6511 -2.4494  0.5496
   26DOPE  C211 3283   0.304  -0.441  15.934  0.2402 -0.0704  0.1779
   26DOPE  H11R 3284   0.352  -0.511  16.006 -0.6140 -0.6054  0.2394
   26DOPE  H11S 3285   0.384  -0.372  15.900  0.7988 -1.3362 -1.2507
   26DOPE  C212 3286   0.259  -0.526  15.818  0.1731 -0.2373  0.4415
   26DOPE  H12R 3287   0.200  -0.458  15.754 -1.3070 -1.4445  0.4679
   26DOPE  H12S 3288   0.182  -0.599  15.853  0.5279 -0.1873  1.3663
   26DOPE  C213 3289   0.375  -0.594  15.742  0.3965  0.5472 -0.2044
   26DOPE  H13R 3290   0.441  -0.650  15.812  0.4425  1.1290  0.2208
   26DOPE  H13S 3291   0.437  -0.510  15.705 -1.1690  1.4238 -0.9487
   26DOPE  C214 3292   0.336  -0.701  15.641 -0.0498 -0.5658 -0.1824
   26DOPE  H14R 3293   0.428  -0.747  15.598  0.8006 -2.8633  3.6583
   26DOPE  H14S 3294   0.272  -0.655  15.563  0.4978  0.0949 -0.2508
   26DOPE  C215 3295   0.255  -0.809  15.706  0.2282 -0.1276  0.2238
   26DOPE  H15R 3296   0.157  -0.765  15.732 -0.3202 -0.4508 -1.1990
   26DOPE  H15S 3297   0.299  -0.832  15.805 -1.3158 -0.6825  0.8091
   26DOPE  C216 3298   0.228  -0.926  15.609 -0.6661 -0.9362 -0.8880
   26DOPE  H16R 3299   0.328  -0.968  15.584 -0.3397  0.1968 -1.6053
   26DOPE  H16S 3300   0.194  -0.891  15.509  3.2105  1.5141 -1.5723
   26DOPE  C217 3301   0.134  -1.041  15.655  0.4049 -0.3504 -0.0609
   26DOPE  H17R 3302   0.057  -0.999  15.723 -0.6011  0.3619 -1.5704
   26DOPE  H17S 3303   0.200  -1.107  15.715 -0.3378 -0.4572  0.6460
   26DOPE  C218 3304   0.065  -1.121  15.543  0.0319  0.0522  0.3496
   26DOPE  H18R 3305   0.142  -1.144  15.466  0.9057  1.6783  0.6951
   26DOPE  H18S 3306  -0.016  -1.061  15.495  2.0494  1.0763 -2.0293
   26DOPE  H18T 3307   0.026  -1.218  15.580  0.9396 -0.1827  0.7323
   26DOPE   C33 3308  -0.376   0.216  16.835 -0.2626  0.3222 -0.1827
   26DOPE   H3X 3309  -0.459   0.267  16.781  0.1771  1.5614  0.2916
   26DOPE   H3Y 3310  -0.429   0.191  16.929 -0.6425  3.9141  0.6773
   26DOPE   C34 3311  -0.321   0.095  16.767 -0.1625 -0.7609 -0.1835
   26DOPE   H4X 3312  -0.243   0.044  16.828 -1.4450 -1.2867  1.0705
   26DOPE   H4Y 3313  -0.398   0.018  16.751  0.0824 -0.9988 -0.2315
   26DOPE   C35 3314  -0.251   0.118  16.629  1.2184  0.2453  0.1091
   26DOPE   H5X 3315  -0.157   0.174  16.648  0.8177  0.9441  0.0810
   26DOPE   H5Y 3316  -0.312   0.185  16.565  2.4848 -0.0559 -1.4711
   26DOPE   C36 3317  -0.243  -0.010  16.541 -0.3555  0.2791 -0.3547
   26DOPE   H6X 3318  -0.343  -0.056  16.521 -0.0469 -1.3310  1.4550
   26DOPE   H6Y 3319  -0.189  -0.095  16.588  0.2667  0.6097 -0.4629
   26DOPE   C37 3320  -0.172   0.014  16.407 -0.8043 -0.0820  0.7032
   26DOPE   H7X 3321  -0.234   0.081  16.342 -0.3388  0.9054  1.2598
   26DOPE   H7Y 3322  -0.074   0.065  16.412 -0.1288 -1.0819 -1.1765
   26DOPE   C38 3323  -0.168  -0.113  16.324 -0.0473  0.0071  0.8805
   26DOPE   H8X 3324  -0.272  -0.143  16.304 -0.0573  0.7527 -0.2708
   26DOPE   H8Y 3325  -0.121  -0.188  16.391  0.7983 -0.9546 -0.7286
   26DOPE   C39 3326  -0.091  -0.082  16.198 -0.2563 -0.3345 -0.5149
   26DOPE   H9X 3327   0.018  -0.085  16.210 -0.3202  1.2073  0.6262
   26DOPE  C310 3328  -0.146  -0.057  16.082  0.5108 -0.0319 -0.3917
   26DOPE  H10X 3329  -0.074  -0.031  16.003  0.2852  0.6252 -0.3871
   26DOPE  C311 3330  -0.289  -0.023  16.056 -0.6500 -0.4456 -0.2883
   26DOPE  H11X 3331  -0.325  -0.069  15.962 -0.6873  1.9326 -1.5088
   26DOPE  H11Y 3332  -0.358  -0.044  16.141  0.1812  0.8332  0.7364
   26DOPE  C312 3333  -0.302   0.132  16.007  0.6412  0.0248  0.4218
   26DOPE  H12X 3334  -0.274   0.119  15.901  0.6897 -1.3698  0.5750
   26DOPE  H12Y 3335  -0.239   0.204  16.063  0.5646  1.4376 -1.2322
   26DOPE  C313 3336  -0.451   0.172  15.999 -0.1302 -0.3284 -0.0954
   26DOPE  H13X 3337  -0.448   0.281  15.977  1.1499  0.2668  2.6216
   26DOPE  H13Y 3338  -0.499   0.122  15.912 -1.6549  0.8284  0.0450
   26DOPE  C314 3339  -0.531   0.158  16.130  0.2436  0.1448 -0.3075
   26DOPE  H14X 3340  -0.529   0.053  16.166  2.8448 -0.2927 -1.4944
   26DOPE  H14Y 3341  -0.639   0.170  16.111 -0.0038 -0.4438  0.6307
   26DOPE  C315 3342  -0.483   0.253  16.243 -0.4544  0.2793 -0.1626
   26DOPE  H15X 3343  -0.499   0.362  16.224  2.8701  1.3155  2.0576
   26DOPE  H15Y 3344  -0.373   0.239  16.248 -0.3039  0.5487 -2.0725
   26DOPE  C316 3345  -0.536   0.216  16.375 -0.9180  0.4713 -0.0608
   26DOPE  H16X 3346  -0.496   0.119  16.414 -0.7546  0.1980 -0.8955
   26DOPE  H16Y 3347  -0.644   0.198  16.356 -0.5192 -1.1036 -1.0256
   26DOPE  C317 3348  -0.528   0.320  16.489  0.2865  0.6884  0.0115
   26DOPE  H17X 3349  -0.582   0.270  16.572 -1.8963 -0.1947 -1.8444
   26DOPE  H17Y 3350  -0.428   0.354  16.524  0.2361 -0.6524  1.5425
   26DOPE  C318 3351  -0.613   0.450  16.465  0.7752 -0.2898 -0.3175
   26DOPE  H18X 3352  -0.568   0.511  16.385  2.1711 -0.9822 -0.0844
   26DOPE  H18Y 3353  -0.717   0.421  16.438  0.8500 -2.3281  1.2439
   26DOPE  H18Z 3354  -0.619   0.510  16.558 -3.6863 -2.0677  0.8201
   27DOPE     N 3355   4.311   7.026  17.532  0.2236  0.3324 -0.7710
   27DOPE   HN1 3356   4.252   6.998  17.612  0.1035 -0.1389 -1.0228
   27DOPE   HN2 3357   4.273   7.111  17.485  0.3156  0.6053 -0.3483
   27DOPE   HN3 3358   4.303   6.945  17.467 -4.0922  0.6365 -0.8934
   27DOPE   C12 3359   4.457   7.043  17.568 -0.7319 -0.4245  0.5433
   27DOPE  H12A 3360   4.481   6.958  17.636 -0.5976 -0.3876  0.5438
   27DOPE  H12B 3361   4.459   7.139  17.625 -0.0645 -1.1735  1.8467
   27DOPE   C11 3362   4.551   7.042  17.443  0.0972  0.2097 -0.4061
   27DOPE  H11A 3363   4.539   6.939  17.404  0.3654 -0.3791  0.9754
   27DOPE  H11B 3364   4.660   7.044  17.465 -0.2919  1.7935  1.7542
   27DOPE     P 3365   4.580   7.274  17.350  0.5842 -0.0180  0.1042
   27DOPE   O13 3366   4.647   7.290  17.483 -0.1972  0.0699 -0.2056
   27DOPE   O14 3367   4.477   7.373  17.315 -0.4648 -0.1889 -0.0359
   27DOPE   O11 3368   4.693   7.279  17.237 -0.3621 -0.2069 -0.3331
   27DOPE   O12 3369   4.511   7.133  17.342  0.5282 -0.2925 -0.2294
   27DOPE    C1 3370   4.743   7.163  17.160 -0.5358 -0.5463 -0.1484
   27DOPE    HA 3371   4.747   7.193  17.053 -2.3247  0.5251  0.0513
   27DOPE    HB 3372   4.668   7.081  17.160 -0.0469 -1.0041 -0.7478
   27DOPE    C2 3373   4.886   7.121  17.198 -0.0402  0.3421  0.3184
   27DOPE    HS 3374   4.889   7.099  17.307 -1.0507  0.4157  0.3742
   27DOPE   O21 3375   4.975   7.236  17.171 -0.4724 -0.5229  0.1922
   27DOPE   C21 3376   5.102   7.218  17.208 -0.0777  0.1860 -0.0909
   27DOPE   O22 3377   5.141   7.116  17.262 -1.0322 -0.3539 -1.2351
   27DOPE   C22 3378   5.188   7.343  17.189 -0.0249 -0.0653 -0.6694
   27DOPE   H2R 3379   5.215   7.372  17.293  1.7286 -1.3833 -0.7114
   27DOPE   H2S 3380   5.122   7.425  17.152  0.0357 -0.5556 -1.9057
   27DOPE    C3 3381   4.925   6.991  17.120  0.0391  0.5916 -0.6713
   27DOPE    HX 3382   4.861   6.912  17.165 -1.0829  2.1595  0.6172
   27DOPE    HY 3383   5.028   6.962  17.148 -0.4385  0.0136  0.5863
   27DOPE   O31 3384   4.895   6.994  16.975 -0.0226  0.0780  0.2295
   27DOPE   C31 3385   4.999   7.035  16.909  0.7740  0.0448  0.4568
   27DOPE   O32 3386   5.115   7.035  16.935 -0.2038  0.0312 -0.4391
   27DOPE   C32 3387   4.950   7.067  16.767  0.2810 -0.5151 -0.4156
   27DOPE   H2X 3388   4.918   6.974  16.715 -2.7533 -0.4385  1.1021
   27DOPE   H2Y 3389   4.856   7.123  16.784  0.1983 -0.9189  0.5386
   27DOPE   C23 3390   5.328   7.319  17.133 -0.3660  0.3583 -0.5096
   27DOPE   H3R 3391   5.380   7.223  17.155  2.2724  1.5224 -1.2419
   27DOPE   H3S 3392   5.402   7.396  17.164  1.5457 -1.3482 -0.5783
   27DOPE   C24 3393   5.320   7.324  16.975 -0.3025  0.4804  0.4317
   27DOPE   H4R 3394   5.291   7.429  16.952 -0.8941 -0.1027 -1.8296
   27DOPE   H4S 3395   5.254   7.248  16.926  0.2542 -0.1175  0.5904
   27DOPE   C25 3396   5.451   7.286  16.914 -0.1611  0.1198  0.0426
   27DOPE   H5R 3397   5.468   7.178  16.933 -1.7272  0.0915  1.5740
   27DOPE   H5S 3398   5.530   7.341  16.971 -0.3850  0.7236 -0.2211
   27DOPE   C26 3399   5.473   7.328  16.770  0.4622 -0.3659  0.3673
   27DOPE   H6R 3400   5.375   7.304  16.724 -0.1609  0.7235  1.0731
   27DOPE   H6S 3401   5.552   7.265  16.724  0.7408 -0.7060  1.2897
   27DOPE   C27 3402   5.505   7.480  16.755 -0.6815 -0.3712 -0.6354
   27DOPE   H7R 3403   5.590   7.513  16.818 -0.7434 -1.9039  0.3221
   27DOPE   H7S 3404   5.412   7.530  16.789  0.2581  0.6654  0.5039
   27DOPE   C28 3405   5.531   7.515  16.599 -0.3713  0.9327  0.2814
   27DOPE   H8R 3406   5.438   7.481  16.550 -0.8769 -1.4771  2.7268
   27DOPE   H8S 3407   5.612   7.446  16.567 -2.8675 -2.1604  0.2515
   27DOPE   C29 3408   5.554   7.663  16.576 -0.7886  0.3913  0.6979
   27DOPE   H9R 3409   5.480   7.732  16.618 -0.4535  2.1369 -1.4389
   27DOPE  C210 3410   5.658   7.714  16.519 -0.2856  0.3954  0.1963
   27DOPE  H10R 3411   5.673   7.823  16.521 -0.8213  0.4716  0.3343
   27DOPE  C211 3412   5.767   7.646  16.446  0.1511  0.3032 -0.0644
   27DOPE  H11R 3413   5.762   7.536  16.453 -0.9600  0.4414  2.7275
   27DOPE  H11S 3414   5.859   7.675  16.502  0.3567 -0.1485 -0.1697
   27DOPE  C212 3415   5.778   7.677  16.301 -0.0068 -0.2295 -0.1907
   27DOPE  H12R 3416   5.866   7.617  16.270 -0.3993 -2.2017  2.1921
   27DOPE  H12S 3417   5.804   7.785  16.299  0.0088 -0.2307 -0.0629
   27DOPE  C213 3418   5.656   7.659  16.215  0.2366  0.1941  0.0389
   27DOPE  H13R 3419   5.569   7.718  16.249 -0.7813  1.1022 -3.7214
   27DOPE  H13S 3420   5.622   7.553  16.213  1.4387 -0.1986 -1.9796
   27DOPE  C214 3421   5.674   7.718  16.074  0.2269  0.8221  0.4906
   27DOPE  H14R 3422   5.756   7.664  16.021 -1.7462 -0.4431 -1.4380
   27DOPE  H14S 3423   5.700   7.826  16.077 -2.2191  1.4894 -0.2822
   27DOPE  C215 3424   5.551   7.692  15.987  0.0970 -0.1679  0.5106
   27DOPE  H15R 3425   5.470   7.745  16.042 -0.1745  1.0327 -0.9496
   27DOPE  H15S 3426   5.516   7.587  15.982  0.1952 -0.2402  1.2262
   27DOPE  C216 3427   5.562   7.748  15.839 -0.1798 -0.1784 -0.0030
   27DOPE  H16R 3428   5.651   7.703  15.790 -1.3471 -1.3955 -1.0924
   27DOPE  H16S 3429   5.583   7.857  15.846  1.1317 -0.4092 -0.0186
   27DOPE  C217 3430   5.448   7.722  15.743  0.1761 -1.0838 -0.7936
   27DOPE  H17R 3431   5.354   7.760  15.787  0.8041  0.8013 -0.9703
   27DOPE  H17S 3432   5.440   7.611  15.736 -1.8700 -0.9107 -1.9130
   27DOPE  C218 3433   5.446   7.792  15.602  0.2161 -0.5005 -0.0650
   27DOPE  H18R 3434   5.542   7.768  15.552  0.6496 -0.2832  0.6535
   27DOPE  H18S 3435   5.435   7.902  15.617  1.5570 -0.2793 -0.5315
   27DOPE  H18T 3436   5.369   7.752  15.533  0.7633  0.5133 -1.3136
   27DOPE   C33 3437   5.062   7.137  16.691  0.6232 -0.3956  0.3546
   27DOPE   H3X 3438   5.155   7.076  16.687  1.5478  0.8460  1.7443
   27DOPE   H3Y 3439   5.095   7.230  16.743 -0.9934 -0.0266  0.7640
   27DOPE   C34 3440   5.011   7.172  16.553 -0.0544 -0.0890 -0.3505
   27DOPE   H4X 3441   4.996   7.073  16.505  1.2118 -1.1892  1.4239
   27DOPE   H4Y 3442   4.915   7.228  16.545  1.2036  2.3464  0.3942
   27DOPE   C35 3443   5.119   7.249  16.475 -0.1295 -0.4712  0.8304
   27DOPE   H5X 3444   5.132   7.345  16.531 -2.1802 -1.3095  2.8723
   27DOPE   H5Y 3445   5.073   7.266  16.375 -0.0838  0.4719  0.9530
   27DOPE   C36 3446   5.261   7.191  16.460  0.1771  0.6194 -0.2171
   27DOPE   H6X 3447   5.247   7.086  16.426 -0.4205  0.7507 -0.3732
   27DOPE   H6Y 3448   5.309   7.183  16.560  1.2352 -1.9312 -0.8460
   27DOPE   C37 3449   5.348   7.270  16.362  0.1559  0.4461  0.5221
   27DOPE   H7X 3450   5.347   7.379  16.386 -2.0808  0.7231 -0.5678
   27DOPE   H7Y 3451   5.449   7.231  16.383  0.0044  0.7036  1.8451
   27DOPE   C38 3452   5.319   7.239  16.217  0.1748  0.2544 -0.4556
   27DOPE   H8X 3453   5.213   7.270  16.201  0.6795  1.6760 -1.1390
   27DOPE   H8Y 3454   5.334   7.130  16.205 -0.6762 -0.3697  2.8799
   27DOPE   C39 3455   5.410   7.304  16.119 -0.8320  0.1521  0.0152
   27DOPE   H9X 3456   5.499   7.347  16.168  0.5016 -2.2623 -0.1019
   27DOPE  C310 3457   5.379   7.326  15.990  0.1402 -0.4241 -0.0690
   27DOPE  H10X 3458   5.458   7.368  15.925  0.0507 -1.7810 -1.0858
   27DOPE  C311 3459   5.263   7.267  15.910 -0.4907  0.7150  0.1757
   27DOPE  H11X 3460   5.296   7.206  15.823 -1.4338  1.8341 -1.0114
   27DOPE  H11Y 3461   5.205   7.201  15.979  0.7731 -0.5063  0.1225
   27DOPE  C312 3462   5.166   7.368  15.839 -0.3815  0.9059 -0.0374
   27DOPE  H12X 3463   5.228   7.426  15.768  1.1553  0.8667  1.2183
   27DOPE  H12Y 3464   5.130   7.436  15.920 -2.1728 -1.0539  0.8989
   27DOPE  C313 3465   5.055   7.294  15.765  0.4764  0.1660  0.5266
   27DOPE  H13X 3466   5.000   7.225  15.833  0.5493  0.1630  0.5827
   27DOPE  H13Y 3467   4.979   7.372  15.739  1.2421  0.4196 -1.0751
   27DOPE  C314 3468   5.104   7.214  15.641 -0.1437 -0.3930 -0.0031
   27DOPE  H14X 3469   5.163   7.123  15.663 -2.0668 -1.8963 -0.7977
   27DOPE  H14Y 3470   5.151   7.289  15.573 -2.1368  2.0011  1.0814
   27DOPE  C315 3471   4.981   7.157  15.564  0.0541  0.0758  0.4722
   27DOPE  H15X 3472   4.944   7.215  15.477  0.0925  0.0339  0.4277
   27DOPE  H15Y 3473   4.897   7.148  15.635 -0.6742  0.9643 -0.2638
   27DOPE  C316 3474   5.006   7.020  15.498 -0.1992 -0.0178  0.3753
   27DOPE  H16X 3475   4.907   6.974  15.476 -0.1174 -0.3365  0.6670
   27DOPE  H16Y 3476   5.052   6.945  15.566  2.4223  1.8146  0.7792
   27DOPE  C317 3477   5.086   7.028  15.365 -0.4105  0.1120 -0.3327
   27DOPE  H17X 3478   5.062   7.124  15.315  0.8739  1.1204  0.9208
   27DOPE  H17Y 3479   5.194   7.024  15.388 -0.1127 -2.2763 -1.7747
   27DOPE  C318 3480   5.061   6.908  15.276 -0.0717  0.4850 -0.1537
   27DOPE  H18X 3481   4.959   6.925  15.235 -0.9540 -0.2574  1.6245
   27DOPE  H18Y 3482   5.143   6.907  15.202  0.7735  0.3321  0.7648
   27DOPE  H18Z 3483   5.074   6.813  15.333 -0.8004  2.1589  3.0661
   28DOPE     N 3484   5.698   7.201  17.879 -0.3514 -0.0057  0.6577
   28DOPE   HN1 3485   5.757   7.125  17.838 -1.6401  0.1475 -1.6898
   28DOPE   HN2 3486   5.757   7.269  17.931 -0.7229 -0.0307  1.1186
   28DOPE   HN3 3487   5.616   7.157  17.925 -0.7721  0.2596  0.1797
   28DOPE   C12 3488   5.643   7.261  17.748  0.3026  0.6844 -0.3381
   28DOPE  H12A 3489   5.569   7.341  17.772  1.0944  0.8551  1.7306
   28DOPE  H12B 3490   5.595   7.173  17.699 -1.1372 -0.1598  2.3777
   28DOPE   C11 3491   5.751   7.331  17.654  0.0381  0.2969  0.6418
   28DOPE  H11A 3492   5.701   7.329  17.555 -1.1674 -3.1645  1.1858
   28DOPE  H11B 3493   5.843   7.269  17.646 -0.2038  0.0937 -0.7327
   28DOPE     P 3494   5.707   7.594  17.647 -0.1007 -0.3984 -0.1268
   28DOPE   O13 3495   5.778   7.706  17.701 -0.3547 -0.0683 -0.7794
   28DOPE   O14 3496   5.565   7.574  17.687 -0.3821  0.1189  0.4189
   28DOPE   O11 3497   5.711   7.585  17.486 -0.2197  0.5289 -0.1715
   28DOPE   O12 3498   5.783   7.467  17.698 -0.4295  0.2668 -0.0582
   28DOPE    C1 3499   5.837   7.610  17.430  0.1962  0.1472 -0.1797
   28DOPE    HA 3500   5.899   7.525  17.464 -1.4546 -0.6930  0.8305
   28DOPE    HB 3501   5.876   7.713  17.449 -0.0338  0.2792 -0.4192
   28DOPE    C2 3502   5.836   7.595  17.270 -0.1221 -0.3732  0.5148
   28DOPE    HS 3503   5.942   7.604  17.238 -0.3534  1.1621  0.1304
   28DOPE   O21 3504   5.759   7.693  17.209  0.3021 -0.1699  0.3548
   28DOPE   C21 3505   5.805   7.816  17.209  0.0959  0.4994 -0.9650
   28DOPE   O22 3506   5.918   7.843  17.252  0.6450 -0.3405 -0.3651
   28DOPE   C22 3507   5.716   7.913  17.145 -0.1939 -0.3910  0.0353
   28DOPE   H2R 3508   5.693   8.000  17.211  2.6278  1.0531 -0.7178
   28DOPE   H2S 3509   5.618   7.863  17.126 -0.2017 -0.8426  1.2055
   28DOPE    C3 3510   5.779   7.455  17.229  0.1515 -0.5872  0.5971
   28DOPE    HX 3511   5.678   7.456  17.276 -0.9303 -1.1408 -1.6050
   28DOPE    HY 3512   5.834   7.369  17.273 -0.3820 -2.5092 -2.2160
   28DOPE   O31 3513   5.758   7.431  17.087 -0.0299 -0.0332 -0.1056
   28DOPE   C31 3514   5.863   7.421  17.007  0.6594  0.3810 -0.5714
   28DOPE   O32 3515   5.981   7.445  17.034 -0.4707  0.6022 -0.1702
   28DOPE   C32 3516   5.823   7.347  16.880  0.1431 -0.1728  0.5347
   28DOPE   H2X 3517   5.748   7.266  16.897 -2.0076  1.2619 -1.4728
   28DOPE   H2Y 3518   5.770   7.419  16.814  2.7484  1.0367 -0.3662
   28DOPE   C23 3519   5.766   7.965  17.000 -0.2224 -0.4157 -0.6205
   28DOPE   H3R 3520   5.866   8.013  17.007 -0.8418  1.0097 -0.9995
   28DOPE   H3S 3521   5.700   8.043  16.956  0.2896 -0.2037 -1.0173
   28DOPE   C24 3522   5.781   7.856  16.893 -0.6044 -0.0165 -0.0178
   28DOPE   H4R 3523   5.679   7.816  16.875 -0.5095 -0.9795  1.4923
   28DOPE   H4S 3524   5.830   7.764  16.930 -0.9880 -1.0938 -2.0236
   28DOPE   C25 3525   5.856   7.904  16.770  0.6482 -0.0816  0.8024
   28DOPE   H5R 3526   5.855   7.817  16.701  4.1687  0.2258  0.1620
   28DOPE   H5S 3527   5.965   7.926  16.775  1.0494 -1.0212 -2.0688
   28DOPE   C26 3528   5.799   8.032  16.698  0.3186  0.1382  0.3479
   28DOPE   H6R 3529   5.799   8.123  16.762 -0.1841  0.4145 -0.0374
   28DOPE   H6S 3530   5.697   8.000  16.670  0.5299 -0.2674  0.0342
   28DOPE   C27 3531   5.884   8.061  16.570 -0.4315 -0.5662  0.0895
   28DOPE   H7R 3532   5.908   7.962  16.526 -0.9559 -1.0591  0.8770
   28DOPE   H7S 3533   5.978   8.115  16.596  1.2837 -3.4680  0.3205
   28DOPE   C28 3534   5.809   8.159  16.470  0.1475  0.4304  0.1037
   28DOPE   H8R 3535   5.887   8.215  16.414  1.5786  0.0262  1.6091
   28DOPE   H8S 3536   5.761   8.235  16.535 -0.3402  1.3979 -1.3326
   28DOPE   C29 3537   5.717   8.098  16.372  0.2135  0.1126  0.0759
   28DOPE   H9R 3538   5.633   8.043  16.418  0.4227 -0.3709 -0.1054
   28DOPE  C210 3539   5.731   8.094  16.240 -0.0195 -0.4816  0.6539
   28DOPE  H10R 3540   5.641   8.067  16.182 -0.6300 -0.4709  1.5799
   28DOPE  C211 3541   5.848   8.149  16.159  0.1468  0.5114 -0.3102
   28DOPE  H11R 3542   5.909   8.222  16.216  1.6841 -3.5662  3.9936
   28DOPE  H11S 3543   5.829   8.197  16.061  1.3897  1.1685 -0.2336
   28DOPE  C212 3544   5.942   8.033  16.138 -0.6942  0.9674  0.6823
   28DOPE  H12R 3545   5.889   7.942  16.101 -1.5087  1.6969  0.0369
   28DOPE  H12S 3546   5.988   8.013  16.238  0.8690  1.6527  0.1347
   28DOPE  C213 3547   6.061   8.063  16.038 -0.0081  1.1054 -0.3394
   28DOPE  H13R 3548   6.115   7.966  16.041  0.7105  1.5091  1.7156
   28DOPE  H13S 3549   6.126   8.142  16.081  0.6503  1.1492 -1.3792
   28DOPE  C214 3550   6.023   8.095  15.898  0.0311  0.2628  0.3528
   28DOPE  H14R 3551   6.117   8.113  15.842  0.2711 -1.8272  0.0024
   28DOPE  H14S 3552   5.960   8.184  15.877  0.0036  0.1365 -0.1098
   28DOPE  C215 3553   5.956   7.977  15.818 -0.5328 -0.1425  0.9796
   28DOPE  H15R 3554   5.856   7.969  15.867 -0.1023  0.6871  2.0387
   28DOPE  H15S 3555   6.001   7.876  15.829  0.4513  0.3850  2.0122
   28DOPE  C216 3556   5.932   8.015  15.665 -0.8533 -0.6830  0.0973
   28DOPE  H16R 3557   6.028   8.017  15.610 -1.5732 -0.0751 -1.1559
   28DOPE  H16S 3558   5.899   8.118  15.640 -1.5848 -0.2227  2.6113
   28DOPE  C217 3559   5.830   7.912  15.604 -0.2871  0.0120  0.0399
   28DOPE  H17R 3560   5.731   7.924  15.652  0.0247  2.0241  0.2502
   28DOPE  H17S 3561   5.864   7.813  15.642 -1.5488  0.1362  1.5944
   28DOPE  C218 3562   5.817   7.921  15.449 -0.2635 -1.0487 -0.4019
   28DOPE  H18R 3563   5.732   7.854  15.422 -0.6214 -1.0009  0.5805
   28DOPE  H18S 3564   5.903   7.885  15.389  0.2249 -0.3515 -0.1320
   28DOPE  H18T 3565   5.796   8.028  15.427  2.1156 -0.0152  1.8509
   28DOPE   C33 3566   5.943   7.296  16.796 -0.0027 -0.9630 -0.1888
   28DOPE   H3X 3567   5.906   7.234  16.712  0.1818 -3.2498  1.3504
   28DOPE   H3Y 3568   6.003   7.231  16.864 -0.8870  0.9610  2.6280
   28DOPE   C34 3569   6.024   7.411  16.725  0.3460  0.3943 -0.1018
   28DOPE   H4X 3570   5.953   7.467  16.661 -1.4052 -0.8655  0.6596
   28DOPE   H4Y 3571   6.059   7.485  16.800 -4.5933  1.4766  1.4969
   28DOPE   C35 3572   6.135   7.357  16.635  0.3949  0.0092 -0.1666
   28DOPE   H5X 3573   6.208   7.305  16.701 -0.4825 -0.6706  0.2910
   28DOPE   H5Y 3574   6.199   7.438  16.593 -0.7001  2.6835  2.9041
   28DOPE   C36 3575   6.093   7.259  16.520  0.2838  0.2364 -0.0272
   28DOPE   H6X 3576   6.017   7.313  16.460 -1.2192 -1.0637  0.6280
   28DOPE   H6Y 3577   6.039   7.170  16.559 -1.6363  1.6521  0.6696
   28DOPE   C37 3578   6.213   7.214  16.437  0.4001 -0.7195  0.1022
   28DOPE   H7X 3579   6.232   7.305  16.377 -0.4511 -0.7024 -0.1525
   28DOPE   H7Y 3580   6.294   7.185  16.508  0.3605  0.3832  0.6233
   28DOPE   C38 3581   6.190   7.097  16.335  0.0558 -0.1416 -0.6251
   28DOPE   H8X 3582   6.148   7.007  16.384 -0.4115 -0.2434 -1.1944
   28DOPE   H8Y 3583   6.286   7.072  16.283  0.8727 -0.1644  0.8462
   28DOPE   C39 3584   6.082   7.137  16.234 -1.0507 -0.2978 -0.1851
   28DOPE   H9X 3585   5.977   7.133  16.266 -1.2750  0.1557 -0.8461
   28DOPE  C310 3586   6.097   7.166  16.104 -0.2383 -0.0400  0.4833
   28DOPE  H10X 3587   6.012   7.188  16.038  0.5217 -1.2345 -0.9443
   28DOPE  C311 3588   6.225   7.191  16.035 -0.2081  0.0388  0.1414
   28DOPE  H11X 3589   6.217   7.283  15.974 -0.8935  0.1736  0.4293
   28DOPE  H11Y 3590   6.304   7.208  16.112  0.4585  0.4882 -0.6340
   28DOPE  C312 3591   6.276   7.076  15.936  0.1072  0.2541  0.2759
   28DOPE  H12X 3592   6.299   6.980  15.986  1.0034  0.3185  0.0041
   28DOPE  H12Y 3593   6.379   7.107  15.910  0.6494 -1.4215  0.3461
   28DOPE  C313 3594   6.183   7.055  15.812  0.2381  0.3786 -0.6620
   28DOPE  H13X 3595   6.083   7.025  15.847  0.3967 -1.3177 -1.5452
   28DOPE  H13Y 3596   6.183   7.157  15.767 -0.9731  0.7225  0.0961
   28DOPE  C314 3597   6.232   6.963  15.698  0.0845  0.0091  1.1802
   28DOPE  H14X 3598   6.234   6.854  15.716 -3.1996 -0.6305 -1.3555
   28DOPE  H14Y 3599   6.336   6.994  15.674 -0.7592  2.8722  0.8259
   28DOPE  C315 3600   6.132   6.974  15.578  0.5322 -0.6915 -0.1657
   28DOPE  H15X 3601   6.156   7.076  15.540  1.3149 -1.1979 -1.0316
   28DOPE  H15Y 3602   6.027   6.965  15.614  0.4508 -2.4722 -0.7525
   28DOPE  C316 3603   6.164   6.882  15.456 -0.1880  0.3218  0.0487
   28DOPE  H16X 3604   6.176   6.777  15.490  0.3288 -0.0115 -1.1096
   28DOPE  H16Y 3605   6.257   6.925  15.412  0.0079 -0.9123 -0.7825
   28DOPE  C317 3606   6.060   6.893  15.343 -0.2146 -0.1959  0.2901
   28DOPE  H17X 3607   6.049   7.000  15.313 -1.1057 -0.7359 -1.5130
   28DOPE  H17Y 3608   6.089   6.832  15.254 -2.4052 -0.1233 -0.5262
   28DOPE  C318 3609   5.920   6.843  15.384  0.3690  0.6699 -0.2336
   28DOPE  H18X 3610   5.839   6.874  15.315 -2.1055  0.2698  2.3219
   28DOPE  H18Y 3611   5.908   6.734  15.394 -2.0705  1.0693  2.2576
   28DOPE  H18Z 3612   5.884   6.890  15.478 -1.4927 -0.5592 -0.2770
   29DOPE     N 3613   6.870   2.371  17.073  0.0679 -0.2595 -0.2496
   29DOPE   HN1 3614   6.891   2.318  17.159  0.3190  0.4500  0.1362
   29DOPE   HN2 3615   6.857   2.473  17.086 -1.5829 -0.4385 -0.2740
   29DOPE   HN3 3616   6.778   2.329  17.048  0.2781  0.4825 -2.5931
   29DOPE   C12 3617   6.991   2.358  16.990 -0.1968  0.1388  0.9674
   29DOPE  H12A 3618   7.071   2.421  17.034 -1.7992  2.6691  0.4877
   29DOPE  H12B 3619   6.978   2.410  16.893  1.2015  0.2406  0.8212
   29DOPE   C11 3620   7.043   2.213  16.971  0.5689  0.3638  0.3578
   29DOPE  H11A 3621   7.137   2.210  16.911 -1.0583 -0.7435 -2.2951
   29DOPE  H11B 3622   6.975   2.147  16.914 -1.3136  1.8293  0.8063
   29DOPE     P 3623   7.182   2.159  17.195 -0.1370 -0.1819 -0.1804
   29DOPE   O13 3624   7.141   2.115  17.327  0.1558  0.4355  0.0399
   29DOPE   O14 3625   7.236   2.294  17.184  0.4833  0.3391 -0.2483
   29DOPE   O11 3626   7.292   2.053  17.141  0.4040  0.2537 -0.3665
   29DOPE   O12 3627   7.055   2.146  17.099 -0.2188 -0.6373 -0.0239
   29DOPE    C1 3628   7.251   1.927  17.082 -0.2527 -0.6581 -0.5334
   29DOPE    HA 3629   7.229   1.949  16.975 -0.7991  2.7931  0.1645
   29DOPE    HB 3630   7.159   1.888  17.131 -0.2049  0.0142  0.0949
   29DOPE    C2 3631   7.362   1.820  17.105 -0.1525 -0.0674  0.6423
   29DOPE    HS 3632   7.353   1.787  17.211 -4.6994 -1.6509  0.0199
   29DOPE   O21 3633   7.486   1.882  17.071 -0.4500 -0.1120 -0.0827
   29DOPE   C21 3634   7.589   1.828  17.131 -0.0526 -0.4990  0.4930
   29DOPE   O22 3635   7.582   1.727  17.200 -0.4802  0.0062  0.1335
   29DOPE   C22 3636   7.715   1.905  17.106  0.5575 -0.3105  0.1089
   29DOPE   H2R 3637   7.787   1.890  17.189 -0.9849 -0.4251  1.4743
   29DOPE   H2S 3638   7.688   2.010  17.081  0.5698 -0.6336 -1.3155
   29DOPE    C3 3639   7.327   1.694  17.026 -0.5852 -0.3012  0.0364
   29DOPE    HX 3640   7.223   1.667  17.055 -0.4136  1.5746  2.7478
   29DOPE    HY 3641   7.400   1.618  17.060 -0.8016  0.1116  1.4794
   29DOPE   O31 3642   7.332   1.722  16.885 -0.0680 -0.0357  0.4541
   29DOPE   C31 3643   7.432   1.673  16.811 -0.1696 -0.3096 -0.3082
   29DOPE   O32 3644   7.521   1.597  16.854  0.6121 -0.5217 -0.3772
   29DOPE   C32 3645   7.436   1.730  16.668  0.4055  0.2260 -0.8435
   29DOPE   H2X 3646   7.349   1.680  16.620 -1.4533 -0.7937  3.0971
   29DOPE   H2Y 3647   7.413   1.839  16.669  1.4740  0.4652  0.8720
   29DOPE   C23 3648   7.787   1.852  16.978  0.0537  0.1924  0.0195
   29DOPE   H3R 3649   7.727   1.847  16.884 -0.2197  0.8080  0.1579
   29DOPE   H3S 3650   7.824   1.751  17.003 -1.8639 -0.6160 -0.2094
   29DOPE   C24 3651   7.905   1.946  16.946 -0.1903  0.0102 -0.2830
   29DOPE   H4R 3652   7.960   1.973  17.039 -0.3944  2.0864 -0.7254
   29DOPE   H4S 3653   7.870   2.039  16.897  2.5088  1.7677  0.9094
   29DOPE   C25 3654   8.017   1.888  16.855  0.0128  0.0344  0.2313
   29DOPE   H5R 3655   8.073   1.812  16.913 -0.1723  0.0870  0.4770
   29DOPE   H5S 3656   8.084   1.971  16.825 -1.5427  0.8840 -1.0851
   29DOPE   C26 3657   7.957   1.830  16.721  0.5574 -0.3325 -0.0136
   29DOPE   H6R 3658   7.882   1.900  16.678  0.5631  0.4634  1.2392
   29DOPE   H6S 3659   7.904   1.735  16.744 -1.3138  0.2676 -1.5126
   29DOPE   C27 3660   8.067   1.802  16.617 -0.1208  0.1554  0.0497
   29DOPE   H7R 3661   8.125   1.720  16.665 -1.2633 -0.1685  0.9050
   29DOPE   H7S 3662   8.138   1.885  16.597 -0.6163 -0.0195 -2.9059
   29DOPE   C28 3663   8.012   1.757  16.481  0.6892  0.2753  0.3592
   29DOPE   H8R 3664   7.949   1.840  16.443 -0.1399  0.2481  1.6251
   29DOPE   H8S 3665   7.938   1.677  16.502  1.5872 -0.3889  1.1272
   29DOPE   C29 3666   8.098   1.711  16.363 -0.0470  0.1863 -0.0168
   29DOPE   H9R 3667   8.168   1.629  16.387  0.3663 -0.2374 -2.4044
   29DOPE  C210 3668   8.116   1.777  16.242  0.3969 -0.0843 -0.9831
   29DOPE  H10R 3669   8.165   1.724  16.159 -0.7142  0.5329 -2.0675
   29DOPE  C211 3670   8.043   1.905  16.196 -0.2119 -0.1768 -0.0337
   29DOPE  H11R 3671   8.108   1.995  16.199 -1.2604  0.5934  1.3407
   29DOPE  H11S 3672   7.954   1.916  16.262 -0.0515 -2.4348  0.6544
   29DOPE  C212 3673   7.991   1.878  16.055 -0.3942  0.6829 -0.3870
   29DOPE  H12R 3674   7.899   1.937  16.036 -0.6831  0.4774  0.3154
   29DOPE  H12S 3675   7.968   1.771  16.037 -0.0855  0.7174 -0.9866
   29DOPE  C213 3676   8.091   1.924  15.947 -0.1680  0.1327 -0.2110
   29DOPE  H13R 3677   8.183   1.865  15.967  1.1165  2.0633 -0.1358
   29DOPE  H13S 3678   8.131   2.026  15.967  3.0538 -1.0927  0.1845
   29DOPE  C214 3679   8.025   1.926  15.809  0.3985 -0.6827  0.6584
   29DOPE  H14R 3680   7.952   2.008  15.795  0.5760 -0.9798 -2.9768
   29DOPE  H14S 3681   7.977   1.826  15.801 -0.6390 -0.3487  2.3326
   29DOPE  C215 3682   8.132   1.958  15.703  0.3114  0.3239  0.5955
   29DOPE  H15R 3683   8.217   1.888  15.719 -0.5068 -0.3441  2.1301
   29DOPE  H15S 3684   8.174   2.061  15.710 -0.0869  0.4058  2.0513
   29DOPE  C216 3685   8.078   1.942  15.559  0.4380  0.1400 -0.1134
   29DOPE  H16R 3686   7.987   2.006  15.560  1.0782  1.0728 -0.5021
   29DOPE  H16S 3687   8.049   1.836  15.544 -0.3271  0.1991  0.8736
   29DOPE  C217 3688   8.168   1.988  15.439  0.4730  0.6865  0.2420
   29DOPE  H17R 3689   8.107   1.973  15.347 -0.0945 -0.8069  0.8353
   29DOPE  H17S 3690   8.253   1.920  15.421  2.0646  2.4558  0.7929
   29DOPE  C218 3691   8.203   2.141  15.449 -0.0805 -0.2509  0.1671
   29DOPE  H18R 3692   8.245   2.180  15.354 -1.0913  0.0558 -0.1673
   29DOPE  H18S 3693   8.276   2.166  15.529  0.5374 -0.4444 -0.3311
   29DOPE  H18T 3694   8.106   2.195  15.455  1.5027  3.2252 -2.1986
   29DOPE   C33 3695   7.562   1.703  16.583  0.4548  0.0285 -0.1099
   29DOPE   H3X 3696   7.582   1.595  16.602  1.6110  0.4847  1.4671
   29DOPE   H3Y 3697   7.640   1.775  16.616  1.6485 -0.5091 -1.6297
   29DOPE   C34 3698   7.528   1.732  16.433  0.5892  0.4784 -0.0818
   29DOPE   H4X 3699   7.432   1.687  16.399 -0.6700  2.2243  0.9998
   29DOPE   H4Y 3700   7.512   1.842  16.431 -0.3016  0.3927  1.3148
   29DOPE   C35 3701   7.640   1.702  16.326  0.2826  0.3258 -0.1944
   29DOPE   H5X 3702   7.731   1.766  16.334  0.6021 -0.2944  1.4013
   29DOPE   H5Y 3703   7.605   1.725  16.222  1.0867 -0.2531 -0.6027
   29DOPE   C36 3704   7.671   1.556  16.319  0.0037 -0.1061  0.0322
   29DOPE   H6X 3705   7.573   1.505  16.303 -0.2152 -0.6561  2.6924
   29DOPE   H6Y 3706   7.720   1.521  16.412  3.3282 -0.7173 -1.7888
   29DOPE   C37 3707   7.770   1.521  16.207 -0.1605 -0.5702  0.4575
   29DOPE   H7X 3708   7.858   1.587  16.227 -1.2332  0.6831  1.2174
   29DOPE   H7Y 3709   7.789   1.413  16.221  0.9856 -0.4805 -0.2558
   29DOPE   C38 3710   7.715   1.552  16.066  0.4861  0.3060  0.0546
   29DOPE   H8X 3711   7.684   1.658  16.061 -1.2756  0.2408  4.9055
   29DOPE   H8Y 3712   7.621   1.496  16.047 -0.7064  2.5818 -1.1773
   29DOPE   C39 3713   7.810   1.525  15.953  0.6838 -0.0013  0.0907
   29DOPE   H9X 3714   7.910   1.563  15.976  0.1830  0.0589  2.4105
   29DOPE  C310 3715   7.785   1.455  15.841  0.9397 -0.6049  0.2668
   29DOPE  H10X 3716   7.864   1.438  15.766  0.3488 -1.8384 -0.1010
   29DOPE  C311 3717   7.660   1.373  15.807 -0.1165 -0.5231 -0.5291
   29DOPE  H11X 3718   7.696   1.269  15.792 -3.0255 -1.5379 -1.1353
   29DOPE  H11Y 3719   7.598   1.364  15.899  0.7067 -0.5070  0.0421
   29DOPE  C312 3720   7.569   1.433  15.698 -0.0547 -0.0226 -0.1530
   29DOPE  H12X 3721   7.625   1.456  15.605  0.2986  0.5862  0.2033
   29DOPE  H12Y 3722   7.525   1.528  15.736 -0.2982 -0.1248 -0.1764
   29DOPE  C313 3723   7.449   1.347  15.650 -0.5022  0.3430 -0.2051
   29DOPE  H13X 3724   7.488   1.244  15.656  1.8571  1.1825 -0.1597
   29DOPE  H13Y 3725   7.364   1.351  15.722 -1.5937  0.1560 -1.4358
   29DOPE  C314 3726   7.406   1.372  15.506  0.2319 -0.3012  1.4724
   29DOPE  H14X 3727   7.492   1.391  15.437 -0.1631 -1.7354  0.5217
   29DOPE  H14Y 3728   7.349   1.467  15.512  0.4704 -0.1927  2.0338
   29DOPE  C315 3729   7.330   1.265  15.432 -0.4181  0.0884  0.1248
   29DOPE  H15X 3730   7.389   1.175  15.462  0.9162  1.5017  2.0079
   29DOPE  H15Y 3731   7.339   1.279  15.323  0.3760  1.9907  0.3971
   29DOPE  C316 3732   7.180   1.240  15.470 -0.1845 -0.4498 -1.0975
   29DOPE  H16X 3733   7.122   1.322  15.424 -0.1579 -0.6280 -1.4493
   29DOPE  H16Y 3734   7.160   1.239  15.579  3.2397 -0.9635 -0.3562
   29DOPE  C317 3735   7.131   1.108  15.413  0.1412 -0.3121  0.3538
   29DOPE  H17X 3736   7.207   1.078  15.338  1.7158  1.7964  1.0121
   29DOPE  H17Y 3737   7.142   1.032  15.493 -0.8008 -0.1898  0.6123
   29DOPE  C318 3738   6.988   1.123  15.359  0.1444  0.0380  0.2917
   29DOPE  H18X 3739   6.956   1.022  15.326 -1.2520  0.3451  0.5983
   29DOPE  H18Y 3740   6.914   1.158  15.435  0.5820  0.2957  0.5986
   29DOPE  H18Z 3741   6.972   1.185  15.269 -1.0998 -1.0309 -0.2536
   30DOPE     N 3742   6.249   0.266  17.506  0.0174  0.6375 -0.1069
   30DOPE   HN1 3743   6.265   0.239  17.605  2.7787  1.3107 -0.2694
   30DOPE   HN2 3744   6.175   0.338  17.498 -0.5041  0.1370  0.1853
   30DOPE   HN3 3745   6.221   0.192  17.439  1.9606  1.3243 -1.7884
   30DOPE   C12 3746   6.368   0.343  17.465 -0.1652 -0.0897 -0.3093
   30DOPE  H12A 3747   6.349   0.357  17.357 -1.4874 -0.1938 -0.1138
   30DOPE  H12B 3748   6.468   0.295  17.471  0.0545  0.2095 -1.4346
   30DOPE   C11 3749   6.349   0.469  17.552 -1.0916 -0.1159 -0.3583
   30DOPE  H11A 3750   6.431   0.542  17.535 -1.3899  0.7559  1.6496
   30DOPE  H11B 3751   6.358   0.437  17.658 -0.8896 -2.2825 -0.9871
   30DOPE     P 3752   6.197   0.649  17.459 -0.1030  0.1944 -0.0276
   30DOPE   O13 3753   6.261   0.769  17.520  0.5287 -0.4589  0.5156
   30DOPE   O14 3754   6.052   0.641  17.441 -0.1374  0.7158 -0.6090
   30DOPE   O11 3755   6.266   0.602  17.327 -0.7185  0.5087  1.1098
   30DOPE   O12 3756   6.221   0.530  17.551  0.3782  0.0434 -0.6642
   30DOPE    C1 3757   6.356   0.684  17.252 -0.8377 -0.1556 -0.1284
   30DOPE    HA 3758   6.417   0.611  17.195 -2.4151 -0.0574 -2.0248
   30DOPE    HB 3759   6.427   0.739  17.318 -0.8037  0.8719 -1.0136
   30DOPE    C2 3760   6.288   0.782  17.149 -0.3148 -0.2820 -0.3419
   30DOPE    HS 3761   6.236   0.846  17.223  0.4025 -0.6047  0.4549
   30DOPE   O21 3762   6.190   0.713  17.064  0.0961 -0.2520 -0.3671
   30DOPE   C21 3763   6.106   0.793  16.998  0.3183  0.0779 -0.9179
   30DOPE   O22 3764   6.100   0.914  17.021 -0.1804  0.1384 -0.0941
   30DOPE   C22 3765   6.026   0.713  16.903 -0.2315  0.7666  0.4816
   30DOPE   H2R 3766   5.958   0.650  16.964  0.4136  0.0269  0.4437
   30DOPE   H2S 3767   6.095   0.646  16.848 -0.1459 -1.2163  2.8665
   30DOPE    C3 3768   6.393   0.861  17.064  0.1115  0.3154  0.1226
   30DOPE    HX 3769   6.463   0.915  17.131 -0.7538 -0.6436  1.8598
   30DOPE    HY 3770   6.335   0.937  17.009  2.3325  1.5141 -0.7005
   30DOPE   O31 3771   6.468   0.766  16.985 -0.0736 -0.2862  0.0515
   30DOPE   C31 3772   6.471   0.800  16.858  0.5451  0.5758 -0.7938
   30DOPE   O32 3773   6.416   0.894  16.808  0.4040 -0.1657 -0.6530
   30DOPE   C32 3774   6.551   0.700  16.774 -1.0006  0.3628 -0.5066
   30DOPE   H2X 3775   6.561   0.750  16.675 -0.3616  0.4946 -0.3855
   30DOPE   H2Y 3776   6.646   0.701  16.833 -1.8200 -0.7666  0.8996
   30DOPE   C23 3777   5.943   0.786  16.791  0.3803 -0.5421  0.2774
   30DOPE   H3R 3778   5.869   0.857  16.832  0.6275  0.9285 -1.6754
   30DOPE   H3S 3779   5.875   0.709  16.749 -0.3244  0.4673 -0.4561
   30DOPE   C24 3780   6.019   0.872  16.686  0.1257 -0.1874  0.4908
   30DOPE   H4R 3781   6.075   0.953  16.739 -0.1727  0.4921 -0.2091
   30DOPE   H4S 3782   5.941   0.923  16.626 -0.9560  0.2508  2.1926
   30DOPE   C25 3783   6.120   0.788  16.606  0.1722  0.3073  0.5750
   30DOPE   H5R 3784   6.058   0.715  16.549  0.2248  1.7220 -1.3982
   30DOPE   H5S 3785   6.184   0.728  16.674  2.3422  2.3086  0.4208
   30DOPE   C26 3786   6.208   0.867  16.506 -0.0851  0.1401 -0.6334
   30DOPE   H6R 3787   6.238   0.957  16.562 -1.2239  0.3841 -0.3847
   30DOPE   H6S 3788   6.156   0.906  16.416 -0.6097 -1.5423 -1.0963
   30DOPE   C27 3789   6.332   0.792  16.447 -0.1161  0.3144  0.0556
   30DOPE   H7R 3790   6.388   0.737  16.525  1.4733 -0.9992 -1.9315
   30DOPE   H7S 3791   6.407   0.857  16.396  1.4652 -0.9319  0.7275
   30DOPE   C28 3792   6.298   0.670  16.354  0.0224  0.0311  0.5417
   30DOPE   H8R 3793   6.223   0.607  16.406  0.5333 -0.1085  1.1249
   30DOPE   H8S 3794   6.383   0.598  16.348 -0.1860 -0.1960  0.3331
   30DOPE   C29 3795   6.242   0.712  16.217 -0.2749  0.3681  0.6026
   30DOPE   H9R 3796   6.181   0.803  16.210  0.7020  0.9597 -0.8463
   30DOPE  C210 3797   6.284   0.670  16.091 -0.0720  0.8935 -0.5997
   30DOPE  H10R 3798   6.241   0.716  16.001 -0.3548  0.3192 -0.7609
   30DOPE  C211 3799   6.383   0.557  16.073  0.3663 -0.0733 -0.0535
   30DOPE  H11R 3800   6.338   0.499  15.990 -0.5539 -1.7584  1.5500
   30DOPE  H11S 3801   6.400   0.509  16.171  0.1097 -0.2089 -0.0759
   30DOPE  C212 3802   6.533   0.592  16.042 -0.3898 -0.9676 -0.5140
   30DOPE  H12R 3803   6.550   0.633  15.941  2.1660 -0.1460  0.1718
   30DOPE  H12S 3804   6.593   0.498  16.039 -1.6691 -1.7766 -1.9784
   30DOPE  C213 3805   6.602   0.690  16.135  0.7203 -0.5974  0.2452
   30DOPE  H13R 3806   6.602   0.654  16.240 -0.5360 -0.4326  0.3182
   30DOPE  H13S 3807   6.544   0.785  16.132 -1.2189 -1.7427 -0.8215
   30DOPE  C214 3808   6.746   0.722  16.106 -0.5270 -0.6442  0.0636
   30DOPE  H14R 3809   6.783   0.805  16.170  0.6786 -0.4584 -0.8474
   30DOPE  H14S 3810   6.759   0.747  15.999  0.3105  0.3860  0.3915
   30DOPE  C215 3811   6.831   0.595  16.133 -0.4943 -0.2726  0.1256
   30DOPE  H15R 3812   6.790   0.512  16.071 -0.3702 -0.0736 -0.2264
   30DOPE  H15S 3813   6.819   0.562  16.238 -1.8462 -4.1441 -1.0493
   30DOPE  C216 3814   6.984   0.607  16.114 -1.0264  0.0814  0.3099
   30DOPE  H16R 3815   7.011   0.502  16.139 -1.8630 -0.8350 -2.2710
   30DOPE  H16S 3816   7.032   0.676  16.186  3.1104 -2.5792  0.4756
   30DOPE  C217 3817   7.023   0.631  15.976 -0.0166 -0.6756 -0.2830
   30DOPE  H17R 3818   6.989   0.734  15.956  1.7042  0.4531  2.1264
   30DOPE  H17S 3819   6.975   0.557  15.908  1.0927 -0.8731 -0.8793
   30DOPE  C218 3820   7.176   0.620  15.953 -0.7792 -0.5549  0.0934
   30DOPE  H18R 3821   7.239   0.692  16.010 -0.3116 -0.4359 -0.5657
   30DOPE  H18S 3822   7.193   0.635  15.844 -0.5599 -0.5924  0.1204
   30DOPE  H18T 3823   7.216   0.518  15.973  0.1879  0.2293  2.5309
   30DOPE   C33 3824   6.497   0.552  16.766 -0.4482  0.5732 -0.3227
   30DOPE   H3X 3825   6.397   0.546  16.717  0.0937  0.3083 -1.4144
   30DOPE   H3Y 3826   6.484   0.517  16.871 -1.3946 -0.0196 -0.6254
   30DOPE   C34 3827   6.586   0.455  16.695 -0.6923  0.3819  0.1964
   30DOPE   H4X 3828   6.692   0.483  16.712 -0.7732 -1.1163  4.1960
   30DOPE   H4Y 3829   6.585   0.349  16.727  1.7274 -0.2627 -1.6217
   30DOPE   C35 3830   6.577   0.450  16.536 -0.5363 -0.7668 -0.6013
   30DOPE   H5X 3831   6.601   0.545  16.484 -0.8878 -2.0264 -3.2235
   30DOPE   H5Y 3832   6.471   0.429  16.509 -1.0150 -0.4181  0.9197
   30DOPE   C36 3833   6.660   0.341  16.473 -0.1058  0.4221  0.2497
   30DOPE   H6X 3834   6.646   0.242  16.522 -0.4060 -0.2221 -1.0901
   30DOPE   H6Y 3835   6.767   0.369  16.482 -0.2340  1.1874 -0.5802
   30DOPE   C37 3836   6.633   0.329  16.319 -0.2188  0.0359 -0.0041
   30DOPE   H7X 3837   6.523   0.338  16.307 -0.1773  0.5836 -0.0042
   30DOPE   H7Y 3838   6.679   0.415  16.265  0.8386 -0.2706  0.3763
   30DOPE   C38 3839   6.664   0.199  16.250 -0.2163  0.2165  1.0237
   30DOPE   H8X 3840   6.566   0.160  16.218  0.3182 -1.4388  1.2709
   30DOPE   H8Y 3841   6.707   0.128  16.324 -0.1442 -2.0408 -1.0717
   30DOPE   C39 3842   6.778   0.217  16.153 -0.0577 -0.5279 -1.5133
   30DOPE   H9X 3843   6.872   0.250  16.199 -1.4683  0.8451  0.5869
   30DOPE  C310 3844   6.764   0.194  16.017 -0.4141  0.2466 -0.5768
   30DOPE  H10X 3845   6.859   0.200  15.961  0.1815  0.5951  0.4293
   30DOPE  C311 3846   6.644   0.142  15.942  0.0537 -0.0516  0.5945
   30DOPE  H11X 3847   6.676   0.074  15.860 -1.2215  0.3015 -0.2249
   30DOPE  H11Y 3848   6.580   0.082  16.010 -0.1511 -3.1317 -2.0835
   30DOPE  C312 3849   6.546   0.251  15.894 -0.5185 -0.0391 -0.2525
   30DOPE  H12X 3850   6.526   0.326  15.973  2.3323  0.3611  0.1985
   30DOPE  H12Y 3851   6.454   0.193  15.869 -1.9399  1.6939  0.7275
   30DOPE  C313 3852   6.588   0.313  15.758  0.4315  0.5008  0.3299
   30DOPE  H13X 3853   6.681   0.375  15.757  0.0585  1.0830  1.2211
   30DOPE  H13Y 3854   6.609   0.232  15.684 -1.2618  0.8657 -0.5991
   30DOPE  C314 3855   6.473   0.394  15.696 -0.2756 -0.4671  0.4942
   30DOPE  H14X 3856   6.509   0.436  15.600 -0.3271  1.0739  1.1207
   30DOPE  H14Y 3857   6.440   0.479  15.760 -4.7595 -0.3703 -1.5588
   30DOPE  C315 3858   6.338   0.313  15.672 -0.3929 -0.2454 -0.3573
   30DOPE  H15X 3859   6.272   0.380  15.612 -1.3510  0.5773  1.5470
   30DOPE  H15Y 3860   6.282   0.278  15.761 -2.4632 -0.5195 -1.6815
   30DOPE  C316 3861   6.362   0.200  15.568  0.3302  0.4012  0.7785
   30DOPE  H16X 3862   6.426   0.118  15.606  2.9345  1.1807 -1.5393
   30DOPE  H16Y 3863   6.413   0.235  15.475  0.5139  0.7374  1.0034
   30DOPE  C317 3864   6.237   0.128  15.523 -0.1357 -0.1801  0.5682
   30DOPE  H17X 3865   6.181   0.101  15.615 -2.5983 -0.5892 -0.9432
   30DOPE  H17Y 3866   6.179   0.204  15.466  1.8468  0.7219 -0.3358
   30DOPE  C318 3867   6.260   0.003  15.437  0.0851 -0.0022 -0.3355
   30DOPE  H18X 3868   6.165  -0.026  15.387  0.4020 -0.7020 -0.5408
   30DOPE  H18Y 3869   6.331   0.015  15.352 -1.4771  0.2718 -1.6473
   30DOPE  H18Z 3870   6.296  -0.084  15.495 -2.4339 -1.2505 -0.5310
   31DOPE     N 3871   4.689   3.478  13.579  0.8943 -0.2155 -0.0581
   31DOPE   HN1 3872   4.758   3.413  13.622 -0.3771 -1.1020  0.7110
   31DOPE   HN2 3873   4.621   3.433  13.516 -0.7706  0.5911  1.0805
   31DOPE   HN3 3874   4.741   3.552  13.528  1.8251 -0.7873  0.0402
   31DOPE   C12 3875   4.596   3.545  13.677  0.4454  0.0446  0.6011
   31DOPE  H12A 3876   4.540   3.624  13.623  1.4382 -0.9782 -2.1409
   31DOPE  H12B 3877   4.647   3.585  13.767  0.6057 -0.4431  0.7322
   31DOPE   C11 3878   4.495   3.436  13.732 -0.5721  0.4178 -0.1386
   31DOPE  H11A 3879   4.417   3.495  13.785 -1.0484 -0.9500  0.7458
   31DOPE  H11B 3880   4.552   3.368  13.798 -1.4348  0.5112  0.7198
   31DOPE     P 3881   4.324   3.402  13.536  0.0259 -0.1157  0.2475
   31DOPE   O13 3882   4.282   3.280  13.453  0.2449 -0.8832 -0.7710
   31DOPE   O14 3883   4.356   3.523  13.459  0.2539 -0.5682  0.3618
   31DOPE   O11 3884   4.211   3.440  13.646  0.4153  0.3111  0.3428
   31DOPE   O12 3885   4.449   3.364  13.623 -0.1172  0.3313  0.1696
   31DOPE    C1 3886   4.167   3.339  13.733 -0.3689 -0.1342  0.2977
   31DOPE    HA 3887   4.243   3.265  13.768 -1.0021 -1.5894 -1.2895
   31DOPE    HB 3888   4.094   3.275  13.680  0.3447  0.1454 -1.0770
   31DOPE    C2 3889   4.094   3.394  13.857 -0.3638 -0.0138 -0.2496
   31DOPE    HS 3890   4.028   3.476  13.823  0.5681  0.5881 -0.6329
   31DOPE   O21 3891   4.197   3.429  13.948  0.9204  0.6379 -0.4803
   31DOPE   C21 3892   4.223   3.566  13.964  0.3491  0.2408 -0.2663
   31DOPE   O22 3893   4.180   3.653  13.891 -0.0495 -0.2406 -0.2615
   31DOPE   C22 3894   4.294   3.591  14.096  0.2978 -0.6063 -0.1961
   31DOPE   H2R 3895   4.297   3.702  14.102 -0.7742 -0.5309 -0.6349
   31DOPE   H2S 3896   4.396   3.549  14.089  2.0690  2.8678  2.1155
   31DOPE    C3 3897   4.002   3.288  13.913 -0.2085  0.6093 -0.1422
   31DOPE    HX 3898   4.060   3.205  13.958 -0.6301  0.5804  0.3678
   31DOPE    HY 3899   3.940   3.239  13.835  0.1211  0.6944 -0.4619
   31DOPE   O31 3900   3.917   3.332  14.013  0.3394  0.3657 -1.0897
   31DOPE   C31 3901   3.810   3.398  13.966  0.0723  0.2723 -0.0867
   31DOPE   O32 3902   3.783   3.409  13.848  0.1607  0.2436 -0.1468
   31DOPE   C32 3903   3.718   3.436  14.079 -0.3889 -0.4562 -0.7778
   31DOPE   H2X 3904   3.767   3.523  14.129 -1.7727  0.3885 -0.8540
   31DOPE   H2Y 3905   3.621   3.476  14.044 -1.0525 -1.2932  0.0621
   31DOPE   C23 3906   4.222   3.537  14.218 -0.1100  0.2096 -0.5932
   31DOPE   H3R 3907   4.284   3.554  14.308 -0.4672 -0.4279 -0.2196
   31DOPE   H3S 3908   4.200   3.429  14.203 -0.7291  0.2451  0.0252
   31DOPE   C24 3909   4.088   3.610  14.233 -0.8998 -0.1531 -0.3132
   31DOPE   H4R 3910   4.009   3.561  14.170 -1.0017 -0.2848 -0.0849
   31DOPE   H4S 3911   4.103   3.718  14.212 -0.2665 -0.4141 -1.2939
   31DOPE   C25 3912   4.040   3.602  14.377 -0.2177 -0.4526 -0.3129
   31DOPE   H5R 3913   4.124   3.645  14.434  1.5875 -1.5052 -2.0554
   31DOPE   H5S 3914   4.035   3.496  14.410 -1.2472  0.0655  1.3776
   31DOPE   C26 3915   3.913   3.689  14.397  0.2988 -0.4366 -0.2874
   31DOPE   H6R 3916   3.827   3.634  14.353 -0.7657 -0.4193  1.6365
   31DOPE   H6S 3917   3.931   3.784  14.342  3.2754 -0.6659  0.1153
   31DOPE   C27 3918   3.893   3.736  14.550 -0.5460 -0.3562  0.6255
   31DOPE   H7R 3919   3.830   3.828  14.546 -0.0838  0.0069  1.6337
   31DOPE   H7S 3920   3.989   3.772  14.592 -2.1450  0.7783  3.6213
   31DOPE   C28 3921   3.838   3.628  14.634  0.2230 -0.6265  0.2084
   31DOPE   H8R 3922   3.906   3.541  14.649  0.7152 -0.1048  1.0360
   31DOPE   H8S 3923   3.748   3.579  14.589 -0.6611  0.2213  1.0194
   31DOPE   C29 3924   3.794   3.685  14.767  0.3558 -0.1623 -0.3005
   31DOPE   H9R 3925   3.881   3.709  14.830  0.9248 -2.8111  0.0287
   31DOPE  C210 3926   3.673   3.701  14.825  0.1662  0.2203  0.0903
   31DOPE  H10R 3927   3.662   3.749  14.923 -0.6927 -1.1608  0.6974
   31DOPE  C211 3928   3.543   3.662  14.761 -0.3854  0.1514 -0.5738
   31DOPE  H11R 3929   3.555   3.649  14.651 -1.8760  0.0647 -0.7407
   31DOPE  H11S 3930   3.480   3.753  14.763  0.0835  0.4845 -0.7562
   31DOPE  C212 3931   3.487   3.532  14.821  0.1874 -0.2596  0.5949
   31DOPE  H12R 3932   3.567   3.466  14.861  1.6280  1.2176  0.2580
   31DOPE  H12S 3933   3.428   3.488  14.738  1.0079 -0.0826 -0.0920
   31DOPE  C213 3934   3.383   3.564  14.928 -0.0031 -0.1466 -0.0014
   31DOPE  H13R 3935   3.313   3.635  14.878  0.9997 -0.4501 -1.9473
   31DOPE  H13S 3936   3.430   3.605  15.019  0.0382 -0.7325  0.2462
   31DOPE  C214 3937   3.297   3.447  14.967  0.4732  0.2764  0.1386
   31DOPE  H14R 3938   3.357   3.374  15.024  2.2669  0.4080 -1.4921
   31DOPE  H14S 3939   3.263   3.386  14.880 -1.9283 -0.1100  1.2537
   31DOPE  C215 3940   3.174   3.480  15.053  0.3204 -0.5434  0.4630
   31DOPE  H15R 3941   3.101   3.537  14.991  2.4666 -0.1890 -1.9289
   31DOPE  H15S 3942   3.209   3.553  15.129  2.0891 -0.7490 -0.1065
   31DOPE  C216 3943   3.108   3.366  15.123 -0.2046 -0.2111 -0.1152
   31DOPE  H16R 3944   3.180   3.318  15.192  3.0430  2.4288 -1.3576
   31DOPE  H16S 3945   3.074   3.292  15.048 -0.1063 -0.6481  0.2682
   31DOPE  C217 3946   2.991   3.417  15.211 -0.3239  0.6996  0.3408
   31DOPE  H17R 3947   2.928   3.483  15.147  1.2481  1.7113 -0.2043
   31DOPE  H17S 3948   3.039   3.482  15.286  1.6408 -0.0254 -0.2204
   31DOPE  C218 3949   2.900   3.312  15.271 -0.4460 -0.5098  0.0847
   31DOPE  H18R 3950   2.943   3.267  15.364 -0.2850  1.4471  1.0026
   31DOPE  H18S 3951   2.873   3.232  15.199 -2.1832  1.4838 -1.5883
   31DOPE  H18T 3952   2.806   3.359  15.307  0.6255  1.5603  0.3446
   31DOPE   C33 3953   3.697   3.326  14.187 -0.3978 -0.0200 -0.1049
   31DOPE   H3X 3954   3.793   3.275  14.214  0.8066  1.5771 -1.1788
   31DOPE   H3Y 3955   3.627   3.250  14.146  1.4972 -2.2629  0.5319
   31DOPE   C34 3956   3.628   3.369  14.320 -0.2210  0.0517 -0.6820
   31DOPE   H4X 3957   3.623   3.291  14.399  0.8462 -0.2494 -0.8993
   31DOPE   H4Y 3958   3.692   3.451  14.359  2.8506 -3.0103  1.2483
   31DOPE   C35 3959   3.485   3.412  14.290 -0.1466  0.1718  0.5611
   31DOPE   H5X 3960   3.432   3.330  14.238 -2.0235  1.9802 -0.5691
   31DOPE   H5Y 3961   3.486   3.496  14.218  0.2961  1.1957  1.7121
   31DOPE   C36 3962   3.420   3.468  14.416 -0.3937 -0.4034 -0.0375
   31DOPE   H6X 3963   3.485   3.550  14.452 -2.5979  0.9123  1.1737
   31DOPE   H6Y 3964   3.409   3.386  14.491 -1.6236 -2.7723 -2.6318
   31DOPE   C37 3965   3.284   3.539  14.395  0.2730  0.4145  0.7247
   31DOPE   H7X 3966   3.316   3.628  14.336 -2.3955  1.6437  0.9774
   31DOPE   H7Y 3967   3.222   3.485  14.321 -1.8010  3.5541 -0.0197
   31DOPE   C38 3968   3.215   3.552  14.526  0.5720 -0.1307  0.0505
   31DOPE   H8X 3969   3.137   3.629  14.511 -1.7702 -2.6081 -1.3333
   31DOPE   H8Y 3970   3.281   3.598  14.603  0.3041  1.2113 -0.5094
   31DOPE   C39 3971   3.157   3.425  14.588 -0.0201  0.4644  0.5052
   31DOPE   H9X 3972   3.226   3.340  14.595  1.7102  1.7206 -0.4318
   31DOPE  C310 3973   3.040   3.415  14.649  0.2144  0.3911  0.1664
   31DOPE  H10X 3974   3.014   3.327  14.709  0.3256  0.4213  0.2597
   31DOPE  C311 3975   2.943   3.529  14.663 -0.0451  0.4067 -0.1893
   31DOPE  H11X 3976   2.982   3.596  14.743 -2.4167  0.2152  1.2391
   31DOPE  H11Y 3977   2.941   3.584  14.567 -0.3018  0.3106 -0.2409
   31DOPE  C312 3978   2.804   3.490  14.711  0.7183  0.1401  0.4623
   31DOPE  H12X 3979   2.759   3.420  14.637  2.6149 -0.9713  0.2793
   31DOPE  H12Y 3980   2.753   3.586  14.690  1.5657  0.3143 -0.9185
   31DOPE  C313 3981   2.796   3.459  14.867  0.0617  0.0072 -0.5948
   31DOPE  H13X 3982   2.833   3.355  14.875 -1.1506 -0.3700  0.6852
   31DOPE  H13Y 3983   2.866   3.520  14.927  0.8174 -2.3732  1.1109
   31DOPE  C314 3984   2.652   3.483  14.928  0.1663 -0.4004  0.1404
   31DOPE  H14X 3985   2.587   3.406  14.882 -0.6039 -0.0433  0.6058
   31DOPE  H14Y 3986   2.618   3.586  14.903  2.9703  0.6463  0.2798
   31DOPE  C315 3987   2.652   3.465  15.087 -0.0255  0.9303  0.6034
   31DOPE  H15X 3988   2.720   3.536  15.139  0.2857 -0.0017  1.4964
   31DOPE  H15Y 3989   2.682   3.359  15.106 -2.8920 -0.4507 -1.7492
   31DOPE  C316 3990   2.516   3.469  15.145 -0.3138  1.7954 -0.8477
   31DOPE  H16X 3991   2.461   3.376  15.121  0.3043  1.2361 -0.1520
   31DOPE  H16Y 3992   2.450   3.558  15.133 -2.2774  1.0539  2.9217
   31DOPE  C317 3993   2.527   3.466  15.305 -0.0507 -0.1674  0.3528
   31DOPE  H17X 3994   2.575   3.372  15.338 -1.2971 -1.4351 -1.2575
   31DOPE  H17Y 3995   2.583   3.560  15.328 -1.5187  1.3459 -1.8353
   31DOPE  C318 3996   2.387   3.469  15.375 -0.3221  0.0641  0.2457
   31DOPE  H18X 3997   2.339   3.557  15.327  2.4483  1.3738 -0.2925
   31DOPE  H18Y 3998   2.324   3.378  15.363 -0.4976  0.2205 -0.0239
   31DOPE  H18Z 3999   2.397   3.491  15.484 -1.0942  0.5871  0.2256
   32DOPE     N 4000   4.975   4.933  12.984  0.5876  0.0080  0.1962
   32DOPE   HN1 4001   5.078   4.926  12.992  0.5754 -2.8003 -0.8065
   32DOPE   HN2 4002   4.957   4.970  12.889  0.6666 -1.2922 -0.3476
   32DOPE   HN3 4003   4.933   4.989  13.061 -1.4522  0.5003 -1.1852
   32DOPE   C12 4004   4.923   4.788  12.998 -0.4670  0.3618  0.3132
   32DOPE  H12A 4005   4.991   4.722  12.940 -0.9655  0.0307  0.1027
   32DOPE  H12B 4006   4.820   4.775  12.958 -0.1513 -0.5000 -0.2414
   32DOPE   C11 4007   4.932   4.736  13.139 -0.1985 -0.3353 -0.6908
   32DOPE  H11A 4008   4.907   4.627  13.139  0.4305 -0.5192  1.2249
   32DOPE  H11B 4009   4.854   4.785  13.200  0.0680 -1.8843  0.9890
   32DOPE     P 4010   5.169   4.660  13.221 -0.5148  0.3027 -0.0807
   32DOPE   O13 4011   5.301   4.723  13.245 -0.8095  0.5479 -0.3125
   32DOPE   O14 4012   5.164   4.553  13.118 -0.1745 -0.0908 -0.0018
   32DOPE   O11 4013   5.125   4.590  13.357 -0.1534 -0.0548  0.0053
   32DOPE   O12 4014   5.061   4.769  13.189  0.7028  0.1265  0.7416
   32DOPE    C1 4015   5.056   4.661  13.454  0.2898  0.0380  0.7854
   32DOPE    HA 4016   5.006   4.592  13.526 -1.8497 -1.1757 -1.7012
   32DOPE    HB 4017   4.972   4.721  13.414 -0.8488 -1.4012  0.9516
   32DOPE    C2 4018   5.149   4.747  13.539  0.1006 -0.2140  0.3074
   32DOPE    HS 4019   5.180   4.836  13.480 -2.2464  0.6013  0.1998
   32DOPE   O21 4020   5.256   4.672  13.587 -0.5049  0.1542 -0.2836
   32DOPE   C21 4021   5.363   4.742  13.612 -0.2501 -0.0222 -0.1720
   32DOPE   O22 4022   5.384   4.859  13.585 -0.3932 -0.2959 -0.2749
   32DOPE   C22 4023   5.459   4.661  13.699  0.1570  0.3105 -0.4198
   32DOPE   H2R 4024   5.562   4.682  13.661 -0.8822  1.6058 -2.7204
   32DOPE   H2S 4025   5.434   4.558  13.668 -2.8297  0.5783  0.8061
   32DOPE    C3 4026   5.073   4.817  13.669  0.1569 -0.0109  0.4742
   32DOPE    HX 4027   4.968   4.837  13.639  0.4018 -2.7204 -2.7829
   32DOPE    HY 4028   5.124   4.915  13.678  0.6380 -0.2076 -0.0618
   32DOPE   O31 4029   5.098   4.744  13.792  0.0095 -0.5197 -0.4517
   32DOPE   C31 4030   5.006   4.650  13.814  0.2879  0.0335  0.5618
   32DOPE   O32 4031   4.900   4.648  13.749  0.2620  0.0982  0.0251
   32DOPE   C32 4032   5.046   4.556  13.925 -0.2717  0.9438  0.1329
   32DOPE   H2X 4033   5.141   4.588  13.973  0.3321  1.6668 -1.4836
   32DOPE   H2Y 4034   4.966   4.559  14.002 -0.8292 -1.5741 -0.2704
   32DOPE   C23 4035   5.440   4.663  13.851  0.1773 -0.0410  1.0665
   32DOPE   H3R 4036   5.510   4.584  13.885 -0.4995 -0.3394  1.8006
   32DOPE   H3S 4037   5.339   4.626  13.875 -0.7658  3.3713  3.1880
   32DOPE   C24 4038   5.462   4.798  13.915  0.1608 -0.1855 -0.2671
   32DOPE   H4R 4039   5.381   4.864  13.877  1.3150  0.2022 -2.2098
   32DOPE   H4S 4040   5.563   4.841  13.895  0.0409  0.8860  1.2617
   32DOPE   C25 4041   5.436   4.789  14.073 -0.1747  0.7831  0.6756
   32DOPE   H5R 4042   5.508   4.716  14.116 -0.0523  0.1477 -0.5405
   32DOPE   H5S 4043   5.332   4.755  14.092  0.0582  0.1520  0.8446
   32DOPE   C26 4044   5.431   4.938  14.123 -0.0626 -0.4235  0.1044
   32DOPE   H6R 4045   5.372   5.007  14.059  1.6837  1.0352  0.0041
   32DOPE   H6S 4046   5.538   4.965  14.121 -0.0394 -0.5049  0.2464
   32DOPE   C27 4047   5.369   4.954  14.261  0.1127  0.1191  0.2784
   32DOPE   H7R 4048   5.405   4.899  14.351  1.3828  1.8217  0.8838
   32DOPE   H7S 4049   5.262   4.925  14.258  0.1209  0.1783 -0.6551
   32DOPE   C28 4050   5.374   5.107  14.295 -0.6014  0.0425  0.0523
   32DOPE   H8R 4051   5.338   5.167  14.209  1.7338  1.1944 -0.1915
   32DOPE   H8S 4052   5.480   5.133  14.318 -0.5089 -0.5231  0.2991
   32DOPE   C29 4053   5.293   5.153  14.408 -0.3822 -0.1322 -0.7658
   32DOPE   H9R 4054   5.225   5.076  14.447 -1.2730  1.6844  1.6200
   32DOPE  C210 4055   5.309   5.250  14.495  0.6186  0.2644 -0.5739
   32DOPE  H10R 4056   5.242   5.248  14.582  1.4958 -0.5810  0.1081
   32DOPE  C211 4057   5.408   5.362  14.507 -0.1003 -0.9381  0.4033
   32DOPE  H11R 4058   5.358   5.461  14.503  2.0243  0.1547 -1.4894
   32DOPE  H11S 4059   5.471   5.357  14.415 -0.3204 -0.7137  0.2398
   32DOPE  C212 4060   5.486   5.337  14.632 -0.6023  0.3535  0.1373
   32DOPE  H12R 4061   5.583   5.391  14.642 -0.9515  0.8708  0.8346
   32DOPE  H12S 4062   5.520   5.232  14.630  0.5109  0.7120 -1.4208
   32DOPE  C213 4063   5.416   5.381  14.756 -0.1504  0.4129 -0.6559
   32DOPE  H13R 4064   5.307   5.361  14.755 -0.2257  0.6694  0.4857
   32DOPE  H13S 4065   5.417   5.492  14.760  1.1302  0.4072  2.4309
   32DOPE  C214 4066   5.489   5.330  14.887 -0.0215  0.0496 -1.0425
   32DOPE  H14R 4067   5.579   5.393  14.905 -2.6710  3.7135  1.0300
   32DOPE  H14S 4068   5.504   5.220  14.887 -3.1498 -0.5577  1.4279
   32DOPE  C215 4069   5.392   5.348  15.004  0.1744 -0.5258  0.1444
   32DOPE  H15R 4070   5.303   5.285  14.982  0.2109  0.0467 -1.8149
   32DOPE  H15S 4071   5.353   5.452  15.013  0.5078 -0.4053  0.2258
   32DOPE  C216 4072   5.468   5.303  15.136  0.4327  0.4795 -0.1929
   32DOPE  H16R 4073   5.557   5.369  15.147  1.0619 -0.4267  0.2576
   32DOPE  H16S 4074   5.503   5.198  15.133  1.1823  0.6888  0.7406
   32DOPE  C217 4075   5.366   5.328  15.253  0.2515 -0.5476 -0.6487
   32DOPE  H17R 4076   5.272   5.270  15.239  0.7741 -1.6036  0.0822
   32DOPE  H17S 4077   5.333   5.433  15.241 -3.8260 -1.8227 -2.4896
   32DOPE  C218 4078   5.411   5.306  15.390  0.0703 -0.5880 -0.1905
   32DOPE  H18R 4079   5.345   5.341  15.473  2.2992  1.7735  0.7413
   32DOPE  H18S 4080   5.512   5.350  15.402  0.2465 -1.2230  0.7839
   32DOPE  H18T 4081   5.415   5.197  15.406 -0.2195 -0.8032 -1.4674
   32DOPE   C33 4082   5.050   4.411  13.884  0.5325 -0.0959 -0.1428
   32DOPE   H3X 4083   5.134   4.378  13.820 -0.2951  0.7636 -1.7403
   32DOPE   H3Y 4084   4.952   4.390  13.835  0.6477 -1.9624  0.3676
   32DOPE   C34 4085   5.047   4.306  14.001  0.0227 -0.4114 -0.2375
   32DOPE   H4X 4086   5.083   4.214  13.949 -1.5187  0.0715 -2.2791
   32DOPE   H4Y 4087   5.129   4.323  14.074  0.0335 -0.6006 -0.2043
   32DOPE   C35 4088   4.903   4.253  14.030  0.7698 -0.5118 -0.5029
   32DOPE   H5X 4089   4.852   4.232  13.934 -0.9346 -3.8591  0.9386
   32DOPE   H5Y 4090   4.845   4.334  14.078  1.3849 -0.9323  1.0112
   32DOPE   C36 4091   4.904   4.120  14.110 -0.0697 -0.2096  0.1716
   32DOPE   H6X 4092   4.954   4.045  14.046  2.9179 -0.3061  2.3783
   32DOPE   H6Y 4093   4.800   4.096  14.138  0.3154 -0.2020  1.6988
   32DOPE   C37 4094   4.969   4.118  14.246 -0.3047 -0.3571  0.3484
   32DOPE   H7X 4095   4.943   4.022  14.294 -1.5746 -0.1948  0.0311
   32DOPE   H7Y 4096   5.079   4.126  14.230 -0.2290 -2.4523 -0.4117
   32DOPE   C38 4097   4.934   4.240  14.333 -0.0872  0.6537 -0.5174
   32DOPE   H8X 4098   4.965   4.326  14.269  1.1627  0.6610  0.0534
   32DOPE   H8Y 4099   5.007   4.247  14.417 -1.0777  1.1315  0.3247
   32DOPE   C39 4100   4.786   4.251  14.376  0.1137  0.1726 -0.4161
   32DOPE   H9X 4101   4.726   4.295  14.294  0.4872  3.3399  0.8653
   32DOPE  C310 4102   4.737   4.259  14.503  0.2209 -0.5663  0.6038
   32DOPE  H10X 4103   4.627   4.253  14.505  0.0202  1.6552 -0.9869
   32DOPE  C311 4104   4.807   4.238  14.635 -0.5918 -1.1041 -0.2292
   32DOPE  H11X 4105   4.765   4.152  14.692  0.6496 -2.4597 -1.2754
   32DOPE  H11Y 4106   4.912   4.205  14.621 -0.9702 -1.9796 -1.1764
   32DOPE  C312 4107   4.813   4.362  14.725 -0.3247  0.3540  0.0473
   32DOPE  H12X 4108   4.870   4.336  14.817 -0.3847 -0.1820 -0.0654
   32DOPE  H12Y 4109   4.716   4.386  14.773 -1.0583 -1.5529 -0.3724
   32DOPE  C313 4110   4.879   4.487  14.664  0.6306 -0.7522 -0.1426
   32DOPE  H13X 4111   4.982   4.465  14.628  0.2823 -0.8697 -1.0864
   32DOPE  H13Y 4112   4.823   4.516  14.573 -0.8308 -0.9766  0.6526
   32DOPE  C314 4113   4.898   4.602  14.769 -0.2191  0.8504 -0.6302
   32DOPE  H14X 4114   4.806   4.617  14.829  1.4573  1.0463  2.0565
   32DOPE  H14Y 4115   4.925   4.697  14.719  1.0945 -0.1885 -1.9961
   32DOPE  C315 4116   5.004   4.572  14.885  0.0076 -0.2497  0.0729
   32DOPE  H15X 4117   5.103   4.553  14.839  0.5269 -2.2600  1.8526
   32DOPE  H15Y 4118   4.957   4.484  14.934 -1.6119  0.6372  0.1904
   32DOPE  C316 4119   5.003   4.691  14.992 -0.5645  0.7309  0.0582
   32DOPE  H16X 4120   4.900   4.709  15.030 -1.3948 -0.1668 -1.6637
   32DOPE  H16Y 4121   5.038   4.788  14.949 -0.5951  0.9719  0.5708
   32DOPE  C317 4122   5.092   4.652  15.110  0.3452 -0.0884 -0.1294
   32DOPE  H17X 4123   5.058   4.566  15.172  2.3154 -1.0666 -0.3204
   32DOPE  H17Y 4124   5.196   4.628  15.078 -0.0165 -0.3000 -1.1667
   32DOPE  C318 4125   5.107   4.773  15.207  0.1502  0.0374  0.3563
   32DOPE  H18X 4126   5.002   4.779  15.243 -0.7858 -2.6731 -1.5866
   32DOPE  H18Y 4127   5.182   4.749  15.285  1.2040  2.0351  0.0141
   32DOPE  H18Z 4128   5.141   4.856  15.143  0.3040  0.7592  1.3468
   33DOPE     N 4129   4.217   3.133  12.812 -0.1064 -0.1722 -0.0527
   33DOPE   HN1 4130   4.185   3.217  12.760  2.0086  0.5913 -0.2120
   33DOPE   HN2 4131   4.191   3.157  12.910 -0.3103  0.2326 -0.2030
   33DOPE   HN3 4132   4.320   3.122  12.812 -0.2037 -2.2387  2.4388
   33DOPE   C12 4133   4.154   3.000  12.760  0.2762 -0.8030  0.1921
   33DOPE  H12A 4134   4.238   2.928  12.749  0.2885 -1.1116  1.9755
   33DOPE  H12B 4135   4.108   3.026  12.662 -0.6362  3.0415  1.4845
   33DOPE   C11 4136   4.041   2.950  12.853 -0.5374 -0.0296 -0.6888
   33DOPE  H11A 4137   4.089   2.874  12.919 -1.0048 -0.0112 -0.3247
   33DOPE  H11B 4138   3.963   2.892  12.800 -0.1902 -1.1342 -0.0158
   33DOPE     P 4139   4.004   3.088  13.070 -0.1751  0.3352  0.1426
   33DOPE   O13 4140   3.880   3.154  13.113 -0.3011 -0.4370 -0.3710
   33DOPE   O14 4141   4.138   3.151  13.081 -0.2864 -0.5673 -0.0175
   33DOPE   O11 4142   4.019   2.944  13.134  0.4837  0.4836 -0.0781
   33DOPE   O12 4143   3.977   3.053  12.923  0.4918 -0.3065 -0.4820
   33DOPE    C1 4144   3.906   2.866  13.188 -0.1022 -0.3912  0.2871
   33DOPE    HA 4145   3.926   2.757  13.182  0.4864 -0.2497 -0.5380
   33DOPE    HB 4146   3.818   2.880  13.122 -0.0173  2.1261  0.5941
   33DOPE    C2 4147   3.861   2.913  13.337  0.3471  0.5161 -0.2746
   33DOPE    HS 4148   3.853   3.023  13.347 -1.4277  0.4287 -0.3916
   33DOPE   O21 4149   3.972   2.860  13.415  0.4600 -0.1907 -0.4229
   33DOPE   C21 4150   3.990   2.934  13.525 -0.3381  0.6102  0.0596
   33DOPE   O22 4151   3.951   3.044  13.544  0.0678  0.0151  0.5450
   33DOPE   C22 4152   4.082   2.860  13.623 -0.2544  0.1212  0.6908
   33DOPE   H2R 4153   4.147   2.943  13.661  0.1641 -1.0365  2.6668
   33DOPE   H2S 4154   4.154   2.792  13.572 -0.8946 -0.0614  0.0264
   33DOPE    C3 4155   3.728   2.845  13.379  0.0492 -0.3825 -0.9028
   33DOPE    HX 4156   3.735   2.736  13.360 -0.9886 -0.8860  1.2452
   33DOPE    HY 4157   3.649   2.886  13.313 -0.8335 -0.5970 -0.0043
   33DOPE   O31 4158   3.696   2.869  13.518  0.2109  0.3972 -0.3684
   33DOPE   C31 4159   3.621   2.974  13.538 -0.6979  0.3097 -0.4799
   33DOPE   O32 4160   3.576   3.046  13.454 -0.2337  0.8548 -0.5448
   33DOPE   C32 4161   3.608   2.996  13.692  0.9638 -0.2673 -0.4305
   33DOPE   H2X 4162   3.579   2.893  13.723 -1.6247  0.7305  0.8272
   33DOPE   H2Y 4163   3.715   3.011  13.720  0.8093 -0.3590  0.2373
   33DOPE   C23 4164   4.013   2.795  13.746 -0.8061 -0.3861 -0.0319
   33DOPE   H3R 4165   4.078   2.727  13.806 -1.6624 -0.2767  1.0470
   33DOPE   H3S 4166   3.917   2.744  13.724 -2.0389 -0.2850  4.2041
   33DOPE   C24 4167   3.967   2.901  13.853 -0.8837  0.3216 -0.5391
   33DOPE   H4R 4168   3.895   2.971  13.804 -2.5143 -2.8232 -3.0068
   33DOPE   H4S 4169   4.053   2.961  13.889 -0.7265 -0.8697  1.2038
   33DOPE   C25 4170   3.909   2.835  13.985  0.5933 -0.0866  0.6886
   33DOPE   H5R 4171   3.985   2.756  14.004 -0.4605 -1.1420  0.5937
   33DOPE   H5S 4172   3.806   2.797  13.966  0.0097  0.6180  2.2169
   33DOPE   C26 4173   3.926   2.923  14.107 -0.1513 -0.7190 -0.2669
   33DOPE   H6R 4174   3.864   3.015  14.099 -2.4949 -1.5295  4.8258
   33DOPE   H6S 4175   4.031   2.959  14.111 -0.0517 -0.9080 -1.0374
   33DOPE   C27 4176   3.872   2.861  14.237 -0.0489 -0.9138 -0.3815
   33DOPE   H7R 4177   3.926   2.768  14.266 -0.4015 -0.8888  0.3833
   33DOPE   H7S 4178   3.770   2.820  14.218 -0.7678  1.2033 -1.3449
   33DOPE   C28 4179   3.843   2.962  14.349  0.2682 -0.3573  0.5976
   33DOPE   H8R 4180   3.799   2.909  14.436 -1.2421 -1.8795 -0.9950
   33DOPE   H8S 4181   3.761   3.023  14.305  0.5194 -0.0703  0.5234
   33DOPE   C29 4182   3.969   3.048  14.372 -1.1849 -1.0783 -0.4598
   33DOPE   H9R 4183   4.033   3.058  14.283 -1.7570 -0.8229 -0.8440
   33DOPE  C210 4184   4.006   3.094  14.496 -0.0248  0.5749 -0.0783
   33DOPE  H10R 4185   4.100   3.148  14.511 -0.0593  1.2144 -1.8870
   33DOPE  C211 4186   3.927   3.078  14.625  0.2006 -0.0263 -0.1827
   33DOPE  H11R 4187   3.951   2.981  14.672 -2.2495 -0.7494 -0.2926
   33DOPE  H11S 4188   3.818   3.078  14.609  0.0206  1.1312  0.8290
   33DOPE  C212 4189   3.967   3.188  14.732 -0.4693  0.3995  0.8021
   33DOPE  H12R 4190   3.944   3.287  14.688 -2.3843 -0.4738 -0.3086
   33DOPE  H12S 4191   4.076   3.183  14.749 -0.0474  0.2784 -1.5422
   33DOPE  C213 4192   3.911   3.151  14.874  0.0849  0.4316 -0.2637
   33DOPE  H13R 4193   3.944   3.046  14.890 -1.4687 -0.2330 -1.0954
   33DOPE  H13S 4194   3.800   3.149  14.881  0.0861  3.2791  3.3814
   33DOPE  C214 4195   3.954   3.246  14.988  0.0458  0.0551  0.2269
   33DOPE  H14R 4196   4.043   3.306  14.959  1.4453 -1.0652  1.9658
   33DOPE  H14S 4197   3.981   3.179  15.072  2.7480 -2.8591 -2.6530
   33DOPE  C215 4198   3.840   3.339  15.037 -0.2869 -0.2960 -0.0108
   33DOPE  H15R 4199   3.783   3.369  14.946 -1.4741 -1.9346  0.1513
   33DOPE  H15S 4200   3.892   3.429  15.076 -1.0807 -0.7578  2.2059
   33DOPE  C216 4201   3.736   3.285  15.128  0.2490 -0.3889 -0.0717
   33DOPE  H16R 4202   3.791   3.228  15.206 -0.0647  1.1814  1.3480
   33DOPE  H16S 4203   3.659   3.224  15.077 -1.5794  0.9640  0.9539
   33DOPE  C217 4204   3.650   3.404  15.198 -0.2292 -0.0542 -0.4767
   33DOPE  H17R 4205   3.585   3.444  15.118  1.0396  0.2130 -1.4060
   33DOPE  H17S 4206   3.721   3.486  15.220 -0.1375  0.0298 -1.0569
   33DOPE  C218 4207   3.567   3.368  15.322 -0.1224 -0.5773  0.3368
   33DOPE  H18R 4208   3.475   3.319  15.284 -1.2236  0.5604  1.4028
   33DOPE  H18S 4209   3.533   3.453  15.386 -0.3802 -0.8374  0.5493
   33DOPE  H18T 4210   3.614   3.298  15.394 -0.8962 -0.9060  0.5352
   33DOPE   C33 4211   3.515   3.104  13.744 -0.6349 -0.1318  0.7704
   33DOPE   H3X 4212   3.447   3.137  13.662 -1.3452  2.5411  2.3215
   33DOPE   H3Y 4213   3.574   3.193  13.772  1.3178 -1.4124  0.8718
   33DOPE   C34 4214   3.419   3.068  13.862 -0.8799  0.5742 -0.1422
   33DOPE   H4X 4215   3.364   3.157  13.900 -1.3216  0.4375 -0.4544
   33DOPE   H4Y 4216   3.348   2.990  13.829 -2.6785  2.4320 -0.8897
   33DOPE   C35 4217   3.495   3.012  13.988 -0.2473 -0.2307 -0.2193
   33DOPE   H5X 4218   3.581   3.071  14.026 -0.2535 -0.4032  0.0672
   33DOPE   H5Y 4219   3.545   2.915  13.966  0.8963  0.1218  0.7389
   33DOPE   C36 4220   3.403   2.996  14.109 -0.0187  0.2926  0.0418
   33DOPE   H6X 4221   3.335   2.912  14.084  0.5918 -0.8973  2.1342
   33DOPE   H6Y 4222   3.330   3.078  14.128 -2.0975 -2.0666  3.2627
   33DOPE   C37 4223   3.468   2.971  14.247  0.1541  0.5221  0.0898
   33DOPE   H7X 4224   3.518   2.872  14.247 -1.2009 -0.2510  2.8772
   33DOPE   H7Y 4225   3.552   3.044  14.247  1.7901 -1.2513  0.0436
   33DOPE   C38 4226   3.370   2.995  14.370  0.6201 -0.0492 -0.5410
   33DOPE   H8X 4227   3.333   2.892  14.390  2.5838 -0.4828  1.1970
   33DOPE   H8Y 4228   3.286   3.048  14.320  0.5803 -0.5767 -1.0518
   33DOPE   C39 4229   3.413   3.073  14.494 -0.2309 -0.7136  0.7668
   33DOPE   H9X 4230   3.363   3.171  14.502 -0.3575 -0.8697  2.2649
   33DOPE  C310 4231   3.456   3.026  14.610  0.0015 -0.3073 -0.7652
   33DOPE  H10X 4232   3.469   3.106  14.684  1.2951  1.5085 -2.8492
   33DOPE  C311 4233   3.476   2.881  14.640 -0.1701  0.0658  0.4274
   33DOPE  H11X 4234   3.400   2.848  14.715 -0.8975  0.9109  0.0889
   33DOPE  H11Y 4235   3.482   2.815  14.552  0.0523 -1.4893  1.5653
   33DOPE  C312 4236   3.602   2.849  14.707 -0.1458 -0.2845  0.4554
   33DOPE  H12X 4237   3.693   2.860  14.643 -0.2650 -0.5692  0.2351
   33DOPE  H12Y 4238   3.592   2.746  14.745  0.4673 -1.1641 -1.6255
   33DOPE  C313 4239   3.630   2.925  14.837 -0.4787 -0.6037  0.0298
   33DOPE  H13X 4240   3.643   3.035  14.823 -0.3609 -0.7702 -1.2648
   33DOPE  H13Y 4241   3.539   2.907  14.899 -0.6079 -0.0979 -0.0091
   33DOPE  C314 4242   3.749   2.851  14.903 -0.4122 -0.6140  0.1756
   33DOPE  H14X 4243   3.843   2.875  14.850 -0.4061 -0.7415  0.1282
   33DOPE  H14Y 4244   3.728   2.742  14.902  0.8682 -0.8951 -2.4204
   33DOPE  C315 4245   3.768   2.876  15.051 -0.3567  0.8035 -0.0811
   33DOPE  H15X 4246   3.674   2.840  15.097  0.2306  0.0603  0.5849
   33DOPE  H15Y 4247   3.771   2.985  15.074 -2.5335  0.4653  2.2928
   33DOPE  C316 4248   3.886   2.792  15.115  0.4182 -0.4923  0.6352
   33DOPE  H16X 4249   3.983   2.827  15.075  0.9437 -1.6314  0.8908
   33DOPE  H16Y 4250   3.871   2.685  15.091 -0.2226 -0.0008 -1.3801
   33DOPE  C317 4251   3.887   2.808  15.266 -0.0956  0.0778  0.3539
   33DOPE  H17X 4252   3.790   2.775  15.308  0.8788  0.3999  3.0864
   33DOPE  H17Y 4253   3.959   2.739  15.315  0.1332  0.4675  0.5752
   33DOPE  C318 4254   3.910   2.948  15.312  0.0641 -0.0722 -0.1140
   33DOPE  H18X 4255   3.924   2.958  15.422 -0.2312  2.1921 -0.2310
   33DOPE  H18Y 4256   4.005   2.992  15.274 -1.6588  2.5938 -1.6413
   33DOPE  H18Z 4257   3.832   3.021  15.281  0.0923  1.0609  2.2320
   34DOPE     N 4258   3.254   4.584  12.976 -0.4429 -0.2628 -0.3269
   34DOPE   HN1 4259   3.323   4.657  12.999  0.0772  0.1384 -2.8473
   34DOPE   HN2 4260   3.304   4.506  12.928 -1.8966 -2.2462  1.1480
   34DOPE   HN3 4261   3.186   4.628  12.910 -1.6739 -1.0453  0.3745
   34DOPE   C12 4262   3.164   4.533  13.094 -0.3117  0.0651 -0.3697
   34DOPE  H12A 4263   3.099   4.459  13.045  0.9799 -1.7908  0.5819
   34DOPE  H12B 4264   3.112   4.627  13.124 -0.7342 -0.4881  0.7134
   34DOPE   C11 4265   3.240   4.482  13.215 -0.0409 -0.9330 -0.0682
   34DOPE  H11A 4266   3.278   4.379  13.194 -1.3302 -1.0921 -1.8694
   34DOPE  H11B 4267   3.155   4.466  13.284 -0.6498  2.2376  0.0401
   34DOPE     P 4268   3.295   4.689  13.361  0.2635 -0.0853 -0.3010
   34DOPE   O13 4269   3.272   4.799  13.267 -1.0832 -0.4039 -0.9197
   34DOPE   O14 4270   3.402   4.699  13.457 -0.1547  0.1375 -0.0462
   34DOPE   O11 4271   3.157   4.663  13.430 -0.1030 -0.1270  0.4750
   34DOPE   O12 4272   3.333   4.568  13.272 -0.7981  0.0778 -0.6392
   34DOPE    C1 4273   3.125   4.622  13.561 -0.3798 -0.0944 -0.5630
   34DOPE    HA 4274   3.218   4.590  13.613  0.3047  0.5100 -1.3852
   34DOPE    HB 4275   3.057   4.534  13.555 -0.6093  0.0826 -0.5757
   34DOPE    C2 4276   3.051   4.733  13.643 -0.1031  0.0258 -0.5022
   34DOPE    HS 4277   2.970   4.771  13.576 -0.4810 -1.5071 -0.9512
   34DOPE   O21 4278   3.139   4.841  13.677 -0.2094 -0.6907 -0.7171
   34DOPE   C21 4279   3.093   4.932  13.762  0.1842  0.5835 -0.5041
   34DOPE   O22 4280   2.978   4.951  13.796 -0.3020  0.0856  0.2446
   34DOPE   C22 4281   3.208   5.012  13.814  0.2238  0.6516  0.0184
   34DOPE   H2R 4282   3.171   5.107  13.859 -0.3129  2.5041 -3.8375
   34DOPE   H2S 4283   3.267   5.041  13.724 -0.6220  1.1420 -0.3926
   34DOPE    C3 4284   2.987   4.664  13.765  0.2498  0.0600 -0.3256
   34DOPE    HX 4285   2.937   4.568  13.744 -0.2675  0.0379  0.9191
   34DOPE    HY 4286   2.899   4.727  13.791 -0.4508 -0.7092 -0.7899
   34DOPE   O31 4287   3.087   4.645  13.866 -0.1425 -0.0050  0.3295
   34DOPE   C31 4288   3.133   4.527  13.882 -0.3663 -0.1014  0.5687
   34DOPE   O32 4289   3.105   4.426  13.817 -0.3464  0.8399  0.1001
   34DOPE   C32 4290   3.241   4.539  13.995 -0.2656  0.1044  0.2137
   34DOPE   H2X 4291   3.321   4.608  13.960 -1.3937  1.0111 -0.6515
   34DOPE   H2Y 4292   3.203   4.587  14.088 -0.0100  3.5190 -1.2713
   34DOPE   C23 4293   3.299   4.935  13.915  0.4613  0.2999  0.2053
   34DOPE   H3R 4294   3.396   4.986  13.902  0.2648  0.6643  0.1399
   34DOPE   H3S 4295   3.318   4.834  13.874 -2.2136  0.6436 -2.2138
   34DOPE   C24 4296   3.247   4.928  14.059  0.4944 -0.5737  0.6680
   34DOPE   H4R 4297   3.163   4.858  14.046  0.5343 -0.6855  1.0106
   34DOPE   H4S 4298   3.213   5.031  14.081  1.0276 -0.7634  2.5860
   34DOPE   C25 4299   3.353   4.875  14.148  0.2428 -0.2168  0.4498
   34DOPE   H5R 4300   3.412   4.962  14.185  1.9449 -0.3601 -1.7265
   34DOPE   H5S 4301   3.431   4.813  14.099  0.6129 -0.1143  0.8995
   34DOPE   C26 4302   3.295   4.808  14.269  0.1513 -0.1702  0.7918
   34DOPE   H6R 4303   3.372   4.751  14.324 -1.1550 -0.1319  2.7504
   34DOPE   H6S 4304   3.222   4.728  14.245  0.6460 -0.3509 -0.1668
   34DOPE   C27 4305   3.222   4.899  14.368  0.1268 -0.3361 -0.4030
   34DOPE   H7R 4306   3.162   4.960  14.297  1.4199  0.5466 -0.7625
   34DOPE   H7S 4307   3.279   4.986  14.406 -1.4583  0.8991 -0.7366
   34DOPE   C28 4308   3.162   4.827  14.496 -0.2693 -0.2084  0.5337
   34DOPE   H8R 4309   3.151   4.896  14.582 -0.7013  0.5526 -0.1184
   34DOPE   H8S 4310   3.224   4.740  14.526 -0.1765 -0.4223 -0.2338
   34DOPE   C29 4311   3.021   4.773  14.464 -0.1998 -0.1468  0.1962
   34DOPE   H9R 4312   3.022   4.685  14.399 -0.1186  0.3255 -0.4552
   34DOPE  C210 4313   2.908   4.826  14.511  0.1380 -0.0209 -0.1094
   34DOPE  H10R 4314   2.817   4.767  14.491  0.1638  0.3214 -1.2889
   34DOPE  C211 4315   2.884   4.950  14.583 -0.2925 -0.2275 -0.5514
   34DOPE  H11R 4316   2.966   5.025  14.583 -1.1552  0.7552  0.4645
   34DOPE  H11S 4317   2.876   4.927  14.692 -0.3955 -0.3706 -0.5895
   34DOPE  C212 4318   2.760   5.025  14.546 -0.3505  0.0421 -0.0857
   34DOPE  H12R 4319   2.754   5.043  14.436  1.2208 -1.5606 -0.4816
   34DOPE  H12S 4320   2.760   5.118  14.607 -1.1186  0.0794 -0.1311
   34DOPE  C213 4321   2.636   4.955  14.600 -0.2702 -0.5891  0.3453
   34DOPE  H13R 4322   2.623   4.860  14.543 -0.9481  0.9004 -2.1250
   34DOPE  H13S 4323   2.547   5.014  14.568  0.8491  0.7938 -0.3119
   34DOPE  C214 4324   2.634   4.927  14.747 -0.3558  0.6681  0.4263
   34DOPE  H14R 4325   2.683   5.005  14.809 -2.9005  1.8159  1.1262
   34DOPE  H14S 4326   2.695   4.835  14.765 -0.4512  0.8938  2.0242
   34DOPE  C215 4327   2.497   4.911  14.812  0.4157 -0.2457 -0.5335
   34DOPE  H15R 4328   2.432   4.839  14.757 -0.0554 -0.7313  0.6234
   34DOPE  H15S 4329   2.446   5.009  14.799 -1.3939 -1.1764 -0.7820
   34DOPE  C216 4330   2.496   4.872  14.963 -0.3278 -0.0229 -0.4016
   34DOPE  H16R 4331   2.556   4.945  15.020  1.2360 -0.1287 -1.8526
   34DOPE  H16S 4332   2.551   4.775  14.961  2.4450  1.4179  0.7755
   34DOPE  C217 4333   2.356   4.849  15.012  0.0929  0.0310  0.2860
   34DOPE  H17R 4334   2.312   4.794  14.926 -0.2569  1.5120 -0.5153
   34DOPE  H17S 4335   2.291   4.939  15.017 -0.3536 -0.3646  2.0021
   34DOPE  C218 4336   2.357   4.772  15.145  0.3678  0.4479 -0.4512
   34DOPE  H18R 4337   2.397   4.830  15.231 -0.1371 -2.2063  1.7609
   34DOPE  H18S 4338   2.422   4.683  15.135  1.3637  1.1952 -0.6684
   34DOPE  H18T 4339   2.255   4.734  15.170 -1.1325  3.4031 -1.6021
   34DOPE   C33 4340   3.301   4.396  14.023 -0.0701 -0.4497 -0.4956
   34DOPE   H3X 4341   3.360   4.361  13.935  0.7651 -0.5364  0.0846
   34DOPE   H3Y 4342   3.215   4.327  14.033  0.1054 -0.5802  0.2150
   34DOPE   C34 4343   3.385   4.380  14.145 -0.3794 -0.4067 -0.1029
   34DOPE   H4X 4344   3.329   4.401  14.239  0.9164  0.6300  0.4576
   34DOPE   H4Y 4345   3.412   4.276  14.173 -0.1842  0.0915  1.6990
   34DOPE   C35 4346   3.505   4.473  14.157  0.6803 -0.1612  0.3103
   34DOPE   H5X 4347   3.481   4.571  14.203  2.5261  0.5975 -0.2601
   34DOPE   H5Y 4348   3.528   4.496  14.051 -0.3016  2.3595  0.5941
   34DOPE   C36 4349   3.634   4.421  14.226  0.7711  0.3647  0.3141
   34DOPE   H6X 4350   3.725   4.483  14.215  1.0527 -0.1564 -0.4006
   34DOPE   H6Y 4351   3.662   4.329  14.170 -0.4843  1.3235 -2.0374
   34DOPE   C37 4352   3.622   4.408  14.377 -0.0717 -0.6653 -0.0472
   34DOPE   H7X 4353   3.593   4.503  14.425  1.8645 -0.6318  1.1686
   34DOPE   H7Y 4354   3.549   4.332  14.411 -1.1466  1.8548  3.8940
   34DOPE   C38 4355   3.758   4.363  14.442 -1.5655 -0.1538 -0.1012
   34DOPE   H8X 4356   3.751   4.412  14.541 -0.3692  0.7160 -0.4216
   34DOPE   H8Y 4357   3.847   4.410  14.394 -0.8945 -2.4034 -1.1880
   34DOPE   C39 4358   3.791   4.212  14.448  0.0329 -0.2132  1.1455
   34DOPE   H9X 4359   3.810   4.161  14.352 -1.0291 -0.9403  1.3100
   34DOPE  C310 4360   3.802   4.144  14.562  0.0089  0.0503  0.2976
   34DOPE  H10X 4361   3.803   4.034  14.561 -2.7563 -0.0642  0.8702
   34DOPE  C311 4362   3.795   4.214  14.694  0.4971 -0.0373  0.0881
   34DOPE  H11X 4363   3.890   4.265  14.720  0.1785  0.6959 -0.1712
   34DOPE  H11Y 4364   3.715   4.290  14.705  2.5637  2.3474 -0.4954
   34DOPE  C312 4365   3.765   4.104  14.809 -0.8472  0.0503  0.0824
   34DOPE  H12X 4366   3.844   4.027  14.819  1.6617  2.0354 -2.8189
   34DOPE  H12Y 4367   3.671   4.056  14.774 -0.6838 -0.3585  0.2051
   34DOPE  C313 4368   3.734   4.171  14.945  0.1556  0.4226 -0.4687
   34DOPE  H13X 4369   3.687   4.270  14.933  1.3279  1.1072  0.3950
   34DOPE  H13Y 4370   3.657   4.122  15.008  0.5587  2.3073  1.5663
   34DOPE  C314 4371   3.869   4.184  15.037 -0.0548 -1.2551  0.5201
   34DOPE  H14X 4372   3.925   4.265  14.986 -2.0579  0.6283  1.1452
   34DOPE  H14Y 4373   3.906   4.079  15.043 -0.1851 -1.3538 -0.3245
   34DOPE  C315 4374   3.845   4.238  15.185 -0.2650  0.1959 -0.0659
   34DOPE  H15X 4375   3.753   4.187  15.221 -2.0855  2.5003 -1.1400
   34DOPE  H15Y 4376   3.818   4.346  15.193 -0.1301  0.2162  0.1497
   34DOPE  C316 4377   3.960   4.201  15.277 -0.2354 -0.8474  0.4340
   34DOPE  H16X 4378   4.042   4.273  15.257  0.3143 -1.2037  1.3785
   34DOPE  H16Y 4379   4.000   4.105  15.237 -0.5596 -0.6051 -0.5033
   34DOPE  C317 4380   3.925   4.168  15.423 -0.0990  0.1297 -0.0246
   34DOPE  H17X 4381   3.875   4.260  15.461  0.0257  0.0874  0.2366
   34DOPE  H17Y 4382   3.864   4.075  15.424  1.7159 -1.1062  0.2058
   34DOPE  C318 4383   4.049   4.125  15.503  0.4874  0.2376  0.1265
   34DOPE  H18X 4384   4.093   4.030  15.466 -0.6413  0.1650 -1.1178
   34DOPE  H18Y 4385   4.132   4.198  15.495  0.8470  0.0751  2.0665
   34DOPE  H18Z 4386   4.024   4.107  15.610  0.3890 -0.0973  0.0464
   35DOPE     N 4387   5.388   3.980  13.186 -0.4769 -0.1911 -0.3531
   35DOPE   HN1 4388   5.302   4.000  13.131  0.1669 -2.6749 -2.4813
   35DOPE   HN2 4389   5.399   4.058  13.255 -1.9148 -1.6401  1.6474
   35DOPE   HN3 4390   5.459   3.967  13.111  0.2549 -1.2683  0.4979
   35DOPE   C12 4391   5.376   3.834  13.232 -0.0170 -0.7323  0.1001
   35DOPE  H12A 4392   5.313   3.773  13.165 -1.4572  1.6367 -0.8067
   35DOPE  H12B 4393   5.326   3.854  13.329  4.3388 -0.1266  2.5221
   35DOPE   C11 4394   5.519   3.780  13.273 -0.5930  0.2483  0.0213
   35DOPE  H11A 4395   5.579   3.851  13.333  1.5901 -0.2481 -1.4718
   35DOPE  H11B 4396   5.578   3.751  13.184  0.6385 -0.8800  1.1585
   35DOPE     P 4397   5.490   3.524  13.304  0.0723  0.3448  0.0903
   35DOPE   O13 4398   5.506   3.520  13.159  0.1600  0.0376  0.1509
   35DOPE   O14 4399   5.377   3.449  13.358  0.4502 -0.1906 -0.6589
   35DOPE   O11 4400   5.620   3.470  13.369 -0.1403  0.3437  0.3304
   35DOPE   O12 4401   5.488   3.667  13.357  0.0383 -0.3729 -0.4590
   35DOPE    C1 4402   5.732   3.551  13.394 -0.8225 -0.1993 -0.6750
   35DOPE    HA 4403   5.734   3.643  13.331  1.0889 -0.0595 -0.4627
   35DOPE    HB 4404   5.824   3.492  13.376 -0.5683  0.0055 -0.0580
   35DOPE    C2 4405   5.741   3.582  13.554  0.1437  0.2503  0.4206
   35DOPE    HS 4406   5.662   3.657  13.577 -1.3634 -0.5911 -1.7056
   35DOPE   O21 4407   5.876   3.623  13.583  0.0184  0.4606  0.3331
   35DOPE   C21 4408   5.915   3.737  13.539 -0.4173 -0.1713  0.2808
   35DOPE   O22 4409   5.853   3.809  13.462  0.5870 -0.8466 -0.0523
   35DOPE   C22 4410   6.051   3.763  13.609 -0.4052 -0.5214  0.4918
   35DOPE   H2R 4411   6.117   3.684  13.565 -0.3750 -0.4077  0.3330
   35DOPE   H2S 4412   6.039   3.742  13.717  1.1783 -1.8255  0.4636
   35DOPE    C3 4413   5.701   3.455  13.633  0.3790 -0.0473  0.6374
   35DOPE    HX 4414   5.789   3.388  13.618  1.2686  1.1369  0.4600
   35DOPE    HY 4415   5.619   3.408  13.576  0.9330  0.3850 -0.5352
   35DOPE   O31 4416   5.687   3.484  13.771  0.5906 -0.1905 -0.0248
   35DOPE   C31 4417   5.570   3.461  13.820 -0.5015  0.1009 -0.6441
   35DOPE   O32 4418   5.466   3.422  13.762 -0.2571 -0.2490 -0.5109
   35DOPE   C32 4419   5.572   3.482  13.973  0.1609 -0.1927 -0.5163
   35DOPE   H2X 4420   5.660   3.434  14.021 -0.1716  0.7353  1.1122
   35DOPE   H2Y 4421   5.575   3.592  13.989  0.2128 -0.1435 -0.8596
   35DOPE   C23 4422   6.119   3.901  13.579 -0.2490  0.6770  0.0428
   35DOPE   H3R 4423   6.091   3.937  13.477  0.8682 -1.4497 -1.0743
   35DOPE   H3S 4424   6.226   3.874  13.566 -0.5396 -0.0820 -0.9189
   35DOPE   C24 4425   6.088   3.997  13.696  0.0498 -0.2017  1.1033
   35DOPE   H4R 4426   6.132   4.095  13.666 -0.2413 -0.2574  0.4789
   35DOPE   H4S 4427   6.136   3.957  13.788  0.7307 -1.9866  0.0208
   35DOPE   C25 4428   5.935   4.008  13.731  0.1720 -0.4588 -0.6314
   35DOPE   H5R 4429   5.917   3.932  13.811 -0.1650  1.7701  1.5297
   35DOPE   H5S 4430   5.860   3.989  13.651 -1.6661  1.2163  0.6135
   35DOPE   C26 4431   5.903   4.143  13.803 -0.6268  0.7754  0.5852
   35DOPE   H6R 4432   5.799   4.135  13.840 -1.2607 -0.8071 -1.3594
   35DOPE   H6S 4433   5.901   4.231  13.735 -2.2460  1.9359  2.0517
   35DOPE   C27 4434   5.982   4.167  13.932  0.2423  0.2983 -0.0773
   35DOPE   H7R 4435   6.091   4.180  13.911  0.5877 -0.2318  1.2906
   35DOPE   H7S 4436   5.996   4.073  13.991  2.5183  1.2567  1.0391
   35DOPE   C28 4437   5.929   4.273  14.024  0.0962 -0.3440 -0.3874
   35DOPE   H8R 4438   5.828   4.232  14.048  0.2806 -0.2386  0.6260
   35DOPE   H8S 4439   5.922   4.370  13.971 -1.4807  0.5846  1.3892
   35DOPE   C29 4440   6.021   4.295  14.144 -0.0109 -0.3841  0.4159
   35DOPE   H9R 4441   6.118   4.339  14.117 -0.6591  0.8204 -0.0324
   35DOPE  C210 4442   6.001   4.264  14.276  0.3905  0.4647  0.3814
   35DOPE  H10R 4443   6.081   4.282  14.350 -0.5108  0.1877  1.4534
   35DOPE  C211 4444   5.867   4.220  14.322 -0.5535  0.9490  0.0338
   35DOPE  H11R 4445   5.828   4.134  14.263  0.2323  0.9440 -0.4914
   35DOPE  H11S 4446   5.794   4.297  14.289 -1.4895 -0.7916 -2.2619
   35DOPE  C212 4447   5.860   4.197  14.479  1.3303 -0.3758 -0.0590
   35DOPE  H12R 4448   5.878   4.287  14.541  1.1899 -0.4805  0.1380
   35DOPE  H12S 4449   5.941   4.126  14.504  0.2090 -0.7923  2.7439
   35DOPE  C213 4450   5.733   4.139  14.536 -0.2229 -0.0148  0.2418
   35DOPE  H13R 4451   5.692   4.070  14.459  1.1332 -0.1708 -0.3736
   35DOPE  H13S 4452   5.656   4.218  14.549  2.5677  3.4049 -2.1313
   35DOPE  C214 4453   5.753   4.061  14.668 -0.5087 -0.4823  0.5384
   35DOPE  H14R 4454   5.829   3.986  14.641  0.6592  0.8347  0.0373
   35DOPE  H14S 4455   5.655   4.019  14.699  0.2235 -0.7447  2.6423
   35DOPE  C215 4456   5.825   4.136  14.783 -0.5187  0.4616 -0.7418
   35DOPE  H15R 4457   5.787   4.240  14.773  0.5084  0.7121 -2.3935
   35DOPE  H15S 4458   5.935   4.133  14.766 -0.0217 -0.9031  2.0788
   35DOPE  C216 4459   5.793   4.072  14.917 -0.0728  0.7242  0.0022
   35DOPE  H16R 4460   5.825   3.966  14.919  1.9356  1.3061  0.7535
   35DOPE  H16S 4461   5.683   4.068  14.934 -0.1164 -1.3191 -0.5588
   35DOPE  C217 4462   5.861   4.162  15.025  0.5947 -0.5853  0.4913
   35DOPE  H17R 4463   5.813   4.262  15.022  1.2761 -0.2624 -1.3250
   35DOPE  H17S 4464   5.966   4.173  14.989  0.7494  0.2687  1.1448
   35DOPE  C218 4465   5.845   4.104  15.162  0.0675  0.0899 -0.7435
   35DOPE  H18R 4466   5.739   4.120  15.190 -0.2047 -1.0127 -1.1276
   35DOPE  H18S 4467   5.917   4.147  15.235  0.2196 -0.3601 -0.6277
   35DOPE  H18T 4468   5.867   3.996  15.152 -0.2507 -0.0127 -0.3582
   35DOPE   C33 4469   5.441   3.447  14.042  0.5947  0.8339 -0.2999
   35DOPE   H3X 4470   5.419   3.338  14.039  1.5257  0.5922  1.0156
   35DOPE   H3Y 4471   5.366   3.502  13.981 -0.0589  0.8206  0.4655
   35DOPE   C34 4472   5.443   3.497  14.193 -0.1941 -0.0002  0.8399
   35DOPE   H4X 4473   5.507   3.420  14.241  2.0604  0.6927 -0.8863
   35DOPE   H4Y 4474   5.499   3.592  14.203 -0.3626  0.1681  0.2607
   35DOPE   C35 4475   5.305   3.490  14.266 -0.7793 -0.0302 -0.2736
   35DOPE   H5X 4476   5.254   3.391  14.262 -1.2844  0.2435 -1.0158
   35DOPE   H5Y 4477   5.255   3.574  14.214 -0.0459  0.1003 -0.7728
   35DOPE   C36 4478   5.316   3.526  14.412 -0.0084 -0.0225 -0.1790
   35DOPE   H6X 4479   5.214   3.556  14.443 -0.1534 -0.8725  0.1813
   35DOPE   H6Y 4480   5.386   3.612  14.420  0.9040 -0.8772  2.0497
   35DOPE   C37 4481   5.348   3.408  14.503 -0.5987  0.5643  0.1258
   35DOPE   H7X 4482   5.255   3.350  14.516 -1.1210  1.0412 -1.3262
   35DOPE   H7Y 4483   5.436   3.351  14.467 -0.6538 -0.5392  1.6269
   35DOPE   C38 4484   5.391   3.464  14.642 -0.1952  0.4676 -0.0434
   35DOPE   H8X 4485   5.322   3.546  14.673  1.1083  1.8137 -0.5858
   35DOPE   H8Y 4486   5.485   3.524  14.635 -0.7890  1.6036  1.1949
   35DOPE   C39 4487   5.410   3.349  14.743 -0.3271 -0.6065  0.2541
   35DOPE   H9X 4488   5.494   3.281  14.721  1.5287  1.5278  0.3965
   35DOPE  C310 4489   5.359   3.334  14.870 -0.6541  0.5320  0.2239
   35DOPE  H10X 4490   5.388   3.245  14.928 -1.9855 -1.1180 -1.4976
   35DOPE  C311 4491   5.279   3.432  14.947 -0.0674 -0.1938  0.2913
   35DOPE  H11X 4492   5.344   3.518  14.974  3.1903 -2.6325  0.8046
   35DOPE  H11Y 4493   5.206   3.477  14.876  0.7806  1.2801  0.3115
   35DOPE  C312 4494   5.224   3.371  15.079  0.2786 -0.2931  0.0461
   35DOPE  H12X 4495   5.187   3.451  15.147  2.7909  0.5509  0.5505
   35DOPE  H12Y 4496   5.314   3.341  15.138 -0.0102  1.5918  1.5416
   35DOPE  C313 4497   5.124   3.257  15.055 -0.2424  0.5701 -0.1676
   35DOPE  H13X 4498   5.036   3.290  14.997 -0.2855  1.0783  0.1789
   35DOPE  H13Y 4499   5.176   3.175  15.000  1.1434  1.2488  0.0746
   35DOPE  C314 4500   5.072   3.188  15.182  0.0865 -0.0761 -0.5090
   35DOPE  H14X 4501   5.022   3.268  15.241  1.3799  0.5399 -0.2040
   35DOPE  H14Y 4502   5.156   3.142  15.238 -2.7277 -2.5696  2.0269
   35DOPE  C315 4503   4.969   3.073  15.158  0.3679 -0.4768  0.1574
   35DOPE  H15X 4504   5.029   2.987  15.120  1.3893 -0.0548  0.7667
   35DOPE  H15Y 4505   4.896   3.106  15.081  0.1295  1.0669  1.0080
   35DOPE  C316 4506   4.895   3.043  15.285  0.2919  0.0202 -0.4317
   35DOPE  H16X 4507   4.842   3.135  15.314 -0.7747 -1.0859  1.2830
   35DOPE  H16Y 4508   4.970   3.015  15.363 -0.4827  0.6419  0.5535
   35DOPE  C317 4509   4.781   2.936  15.265 -0.0870  0.3986  0.9040
   35DOPE  H17X 4510   4.719   2.941  15.357 -3.4289  0.4221 -1.1688
   35DOPE  H17Y 4511   4.711   2.958  15.181  0.8484 -0.8227 -0.2424
   35DOPE  C318 4512   4.840   2.795  15.254  1.0543  0.2711 -0.4958
   35DOPE  H18X 4513   4.765   2.713  15.254  2.1465 -0.7587 -0.8842
   35DOPE  H18Y 4514   4.898   2.785  15.160 -0.2008 -1.3083 -1.1438
   35DOPE  H18Z 4515   4.904   2.771  15.341  0.4432  1.0568  0.1858
   36DOPE     N 4516   5.410   5.192  13.169 -0.4852  0.2162  0.1711
   36DOPE   HN1 4517   5.387   5.096  13.201  0.6135 -0.2815 -0.4814
   36DOPE   HN2 4518   5.354   5.197  13.081  1.1720  0.3486 -0.9298
   36DOPE   HN3 4519   5.507   5.201  13.134  0.4228 -1.9534  1.8991
   36DOPE   C12 4520   5.365   5.293  13.275 -0.4489 -0.6495 -0.3866
   36DOPE  H12A 4521   5.408   5.280  13.376  1.2009  0.6584 -0.8660
   36DOPE  H12B 4522   5.256   5.274  13.282 -0.7091  0.2979 -1.3875
   36DOPE   C11 4523   5.394   5.436  13.217 -0.5852 -0.4131 -0.4820
   36DOPE  H11A 4524   5.360   5.506  13.296 -2.0192 -1.8540  0.2325
   36DOPE  H11B 4525   5.337   5.464  13.126  1.7539  4.6930 -0.7076
   36DOPE     P 4526   5.617   5.593  13.216  0.2655  0.0602  0.3972
   36DOPE   O13 4527   5.560   5.677  13.327  0.4469 -0.1866  0.0130
   36DOPE   O14 4528   5.628   5.662  13.087 -0.0007 -0.4604  0.1685
   36DOPE   O11 4529   5.755   5.541  13.269 -0.3539 -0.0709 -0.2332
   36DOPE   O12 4530   5.539   5.458  13.197  0.4673 -0.3544 -0.1835
   36DOPE    C1 4531   5.822   5.435  13.225 -0.1988  1.4689  0.4380
   36DOPE    HA 4532   5.929   5.461  13.227  0.3602 -0.6988  1.7915
   36DOPE    HB 4533   5.806   5.414  13.117 -1.9967  0.0375  0.9155
   36DOPE    C2 4534   5.794   5.301  13.307  0.2730 -0.0687 -1.0044
   36DOPE    HS 4535   5.686   5.280  13.295  0.4163 -1.3976 -0.1041
   36DOPE   O21 4536   5.824   5.327  13.447 -0.3115  0.3925 -0.4835
   36DOPE   C21 4537   5.745   5.288  13.539  0.1158  0.1173 -0.3540
   36DOPE   O22 4538   5.641   5.223  13.523 -0.5131 -0.3198  0.1174
   36DOPE   C22 4539   5.796   5.351  13.671  0.7620  0.9971 -0.5697
   36DOPE   H2R 4540   5.716   5.426  13.683 -3.1984 -2.8940  0.0446
   36DOPE   H2S 4541   5.898   5.395  13.663  1.7498 -1.1200 -0.5394
   36DOPE    C3 4542   5.871   5.176  13.252 -0.2190  0.1877 -0.1045
   36DOPE    HX 4543   5.973   5.209  13.226 -1.1275  2.5549 -0.9192
   36DOPE    HY 4544   5.830   5.153  13.151  1.1678  0.0232 -0.6501
   36DOPE   O31 4545   5.880   5.067  13.342  0.5833  0.8755 -0.4677
   36DOPE   C31 4546   5.768   5.005  13.353  0.2663 -0.2543 -0.2779
   36DOPE   O32 4547   5.670   5.023  13.281 -0.1389  0.2625 -0.4117
   36DOPE   C32 4548   5.778   4.905  13.473  0.0731 -0.9031  0.5086
   36DOPE   H2X 4549   5.682   4.915  13.527 -1.2472 -1.6047 -1.5980
   36DOPE   H2Y 4550   5.797   4.809  13.420  2.3426  0.4141 -1.2772
   36DOPE   C23 4551   5.793   5.248  13.785  0.4513  0.5180  0.4317
   36DOPE   H3R 4552   5.880   5.178  13.777 -0.1255 -0.2925  1.0664
   36DOPE   H3S 4553   5.700   5.187  13.789  0.1500  0.7295 -1.9800
   36DOPE   C24 4554   5.823   5.326  13.911  0.8865 -0.0956  0.3133
   36DOPE   H4R 4555   5.747   5.405  13.921  1.0395  0.4964 -2.2742
   36DOPE   H4S 4556   5.912   5.386  13.880  2.1928 -2.0357  0.1285
   36DOPE   C25 4557   5.851   5.257  14.044 -0.8149 -0.0970 -0.5481
   36DOPE   H5R 4558   5.909   5.329  14.105  0.4344 -0.6638 -1.0265
   36DOPE   H5S 4559   5.926   5.180  14.016 -0.6832  0.2388 -1.1304
   36DOPE   C26 4560   5.744   5.196  14.135 -0.3041  0.1772 -0.0049
   36DOPE   H6R 4561   5.675   5.131  14.078 -2.7771  2.2048  0.4508
   36DOPE   H6S 4562   5.674   5.274  14.173 -0.2811  0.0733  0.2514
   36DOPE   C27 4563   5.796   5.117  14.260  0.4311  0.0125  0.4691
   36DOPE   H7R 4564   5.875   5.052  14.216 -1.6712 -1.1686 -1.8618
   36DOPE   H7S 4565   5.717   5.048  14.297 -1.1834  1.3309 -0.3916
   36DOPE   C28 4566   5.849   5.203  14.373 -0.3658 -0.6408 -0.2979
   36DOPE   H8R 4567   5.767   5.266  14.412  2.4418  2.9802  0.3049
   36DOPE   H8S 4568   5.921   5.279  14.336  0.2125 -0.9129  0.2645
   36DOPE   C29 4569   5.922   5.117  14.471 -0.5679 -0.0499 -0.1675
   36DOPE   H9R 4570   5.993   5.046  14.425 -0.1260 -0.2427  0.7913
   36DOPE  C210 4571   5.899   5.103  14.603 -0.5978 -0.7931 -0.5099
   36DOPE  H10R 4572   5.952   5.025  14.660 -2.5292 -1.9415 -0.1869
   36DOPE  C211 4573   5.802   5.185  14.690 -0.1993 -0.3120 -0.1835
   36DOPE  H11R 4574   5.719   5.116  14.715 -1.1214  1.4742  2.0316
   36DOPE  H11S 4575   5.766   5.272  14.630 -0.2080 -1.3062 -1.6584
   36DOPE  C212 4576   5.875   5.226  14.816 -0.4422  0.2578 -0.4038
   36DOPE  H12R 4577   5.959   5.156  14.834 -1.7439 -1.4272 -0.6681
   36DOPE  H12S 4578   5.809   5.225  14.905 -0.1705 -1.9997 -0.1802
   36DOPE  C213 4579   5.935   5.362  14.816 -0.4921  0.2711  0.2633
   36DOPE  H13R 4580   5.862   5.438  14.780  1.1128  3.1249  2.5558
   36DOPE  H13S 4581   6.019   5.365  14.743  0.0965 -2.4466  0.7435
   36DOPE  C214 4582   5.995   5.396  14.948 -0.1568 -0.2967 -0.1163
   36DOPE  H14R 4583   5.916   5.401  15.025  0.8571  1.4377  0.8853
   36DOPE  H14S 4584   6.032   5.500  14.941  1.1599 -0.7717 -0.6520
   36DOPE  C215 4585   6.112   5.306  14.994  0.2346  0.7940 -0.5542
   36DOPE  H15R 4586   6.069   5.217  15.044  0.7074  0.9275  0.0981
   36DOPE  H15S 4587   6.169   5.372  15.063 -1.2880 -0.0917  1.6486
   36DOPE  C216 4588   6.225   5.266  14.885 -0.0454 -0.2680 -0.5659
   36DOPE  H16R 4589   6.268   5.355  14.834 -0.3267  0.5307  0.5436
   36DOPE  H16S 4590   6.184   5.201  14.806  0.3866  1.0047 -1.8778
   36DOPE  C217 4591   6.338   5.181  14.944 -0.0085  0.2046  0.3264
   36DOPE  H17R 4592   6.373   5.226  15.039 -0.7404  1.6430 -0.0550
   36DOPE  H17S 4593   6.428   5.181  14.878 -2.1787  0.7397 -2.8324
   36DOPE  C218 4594   6.296   5.035  14.963  0.6571  0.3020 -0.2356
   36DOPE  H18R 4595   6.205   5.024  15.024  0.6060  1.1326 -0.1520
   36DOPE  H18S 4596   6.371   4.973  15.017 -1.9916 -0.9363  2.2889
   36DOPE  H18T 4597   6.260   4.989  14.868  0.2160  2.3042 -1.0984
   36DOPE   C33 4598   5.893   4.932  13.581 -0.3057  0.4154 -0.4204
   36DOPE   H3X 4599   5.887   5.038  13.613 -0.6425 -0.0645  1.1584
   36DOPE   H3Y 4600   5.991   4.902  13.538 -0.1577 -0.7066  0.6580
   36DOPE   C34 4601   5.869   4.833  13.694  0.6838  0.5163  0.3499
   36DOPE   H4X 4602   5.767   4.852  13.735  0.4794 -1.1192  0.6781
   36DOPE   H4Y 4603   5.887   4.728  13.664  1.2205  0.8115 -0.3785
   36DOPE   C35 4604   5.966   4.849  13.811 -1.1323  0.0164  0.1049
   36DOPE   H5X 4605   5.946   4.944  13.864  1.8997  0.2809  0.9961
   36DOPE   H5Y 4606   6.068   4.841  13.767 -0.8132  2.5339  0.2337
   36DOPE   C36 4607   5.956   4.740  13.918 -0.2816 -0.3166  0.5773
   36DOPE   H6X 4608   6.030   4.760  13.999 -1.5742  0.0313  1.7098
   36DOPE   H6Y 4609   5.989   4.641  13.880 -2.3640 -0.7826 -0.1172
   36DOPE   C37 4610   5.818   4.735  13.984  0.6583 -0.0786  0.1010
   36DOPE   H7X 4611   5.782   4.839  13.995  3.5932  1.2360 -1.4998
   36DOPE   H7Y 4612   5.757   4.659  13.930  0.6532 -0.2388  0.3321
   36DOPE   C38 4613   5.824   4.672  14.126 -0.4692 -0.6298  0.9463
   36DOPE   H8X 4614   5.868   4.571  14.110  0.0223 -0.2874  0.1203
   36DOPE   H8Y 4615   5.721   4.649  14.163 -1.0937  0.5386 -0.0020
   36DOPE   C39 4616   5.904   4.744  14.228  0.3034 -0.3165  0.8039
   36DOPE   H9X 4617   5.980   4.810  14.183 -0.7311  0.0866 -0.3858
   36DOPE  C310 4618   5.870   4.760  14.358 -0.0634 -0.2758 -0.1665
   36DOPE  H10X 4619   5.934   4.828  14.417  0.3975  0.3937 -1.3821
   36DOPE  C311 4620   5.741   4.711  14.429 -0.5155  0.2122  0.1462
   36DOPE  H11X 4621   5.679   4.796  14.466 -1.0911 -0.0524 -0.1978
   36DOPE  H11Y 4622   5.674   4.650  14.364 -0.7659 -4.7259  4.3680
   36DOPE  C312 4623   5.780   4.616  14.538 -0.2215  0.1350  0.2184
   36DOPE  H12X 4624   5.882   4.636  14.577  0.0204  1.2438 -0.8884
   36DOPE  H12Y 4625   5.804   4.517  14.494  0.5719  0.0967  0.7077
   36DOPE  C313 4626   5.677   4.608  14.648 -0.4249  0.2025 -0.1638
   36DOPE  H13X 4627   5.658   4.705  14.699 -1.3838  0.9190 -1.8271
   36DOPE  H13Y 4628   5.576   4.582  14.611  0.6907 -1.8719 -2.0291
   36DOPE  C314 4629   5.720   4.501  14.745  0.6332 -0.0993 -0.3328
   36DOPE  H14X 4630   5.819   4.529  14.787  1.5001 -2.7041 -0.4367
   36DOPE  H14Y 4631   5.731   4.403  14.694 -1.7260  0.2706 -1.6908
   36DOPE  C315 4632   5.628   4.471  14.859  0.3342 -0.0048 -0.4658
   36DOPE  H15X 4633   5.596   4.571  14.897  0.8405  0.0176 -0.0902
   36DOPE  H15Y 4634   5.671   4.410  14.942 -2.7587  1.5977  2.5708
   36DOPE  C316 4635   5.495   4.402  14.811 -0.2168 -0.7081  0.1942
   36DOPE  H16X 4636   5.521   4.316  14.745 -1.6794 -1.1350  0.1362
   36DOPE  H16Y 4637   5.439   4.484  14.762  2.9258  1.0544 -0.7127
   36DOPE  C317 4638   5.415   4.350  14.931  0.1390  0.6328 -0.1353
   36DOPE  H17X 4639   5.472   4.278  14.994 -0.6938  2.0351  2.3574
   36DOPE  H17Y 4640   5.405   4.437  14.999  1.8757  2.7796 -2.4249
   36DOPE  C318 4641   5.277   4.280  14.904  0.0915  0.4110  0.0690
   36DOPE  H18X 4642   5.301   4.196  14.836 -0.7386 -0.0090  0.2851
   36DOPE  H18Y 4643   5.228   4.241  14.995  0.1457 -2.0249 -0.8814
   36DOPE  H18Z 4644   5.199   4.346  14.858 -1.0928 -0.5926  0.5872
   37DOPE     N 4645   3.398   4.290  13.636  0.3484  0.3880  0.2920
   37DOPE   HN1 4646   3.462   4.212  13.659 -0.4610 -0.3195  0.1837
   37DOPE   HN2 4647   3.434   4.380  13.674 -1.0632  1.4503 -0.7711
   37DOPE   HN3 4648   3.305   4.266  13.676 -0.7773  0.9022 -1.8395
   37DOPE   C12 4649   3.385   4.303  13.490  0.9705 -0.2174 -0.8354
   37DOPE  H12A 4650   3.332   4.398  13.466  0.1231  0.0939  1.8880
   37DOPE  H12B 4651   3.320   4.219  13.458  1.8361 -0.2932 -2.5188
   37DOPE   C11 4652   3.516   4.296  13.424 -1.1258 -0.0710  0.7411
   37DOPE  H11A 4653   3.591   4.376  13.443 -0.0432 -1.0406  0.6901
   37DOPE  H11B 4654   3.503   4.298  13.314  0.9496  0.1397  0.4498
   37DOPE     P 4655   3.661   4.079  13.356  0.1029 -0.2381  0.4530
   37DOPE   O13 4656   3.803   4.123  13.361  0.0783 -0.1328  0.4844
   37DOPE   O14 4657   3.599   4.074  13.222 -0.5168 -0.2343 -0.6530
   37DOPE   O11 4658   3.651   3.941  13.407 -0.3913  0.2251  0.7258
   37DOPE   O12 4659   3.580   4.167  13.452  0.0703  0.1039 -0.0279
   37DOPE    C1 4660   3.717   3.894  13.528 -0.4708 -0.3465 -0.0563
   37DOPE    HA 4661   3.814   3.943  13.549  0.2251 -1.7095  0.0022
   37DOPE    HB 4662   3.729   3.784  13.518  1.7491 -0.2436  0.9327
   37DOPE    C2 4663   3.634   3.909  13.652  0.6542 -0.4459 -0.3998
   37DOPE    HS 4664   3.605   4.015  13.671 -3.3275 -1.1730 -1.6074
   37DOPE   O21 4665   3.697   3.848  13.771 -0.3004  0.0277 -0.5849
   37DOPE   C21 4666   3.779   3.925  13.841  0.4642  0.4845 -0.1407
   37DOPE   O22 4667   3.807   4.039  13.818 -0.1536 -0.0762 -0.6237
   37DOPE   C22 4668   3.832   3.848  13.968 -0.1292  0.3966  0.1530
   37DOPE   H2R 4669   3.928   3.897  13.994  0.0277  0.7285 -1.0215
   37DOPE   H2S 4670   3.865   3.746  13.942  0.7028  0.9607 -1.1057
   37DOPE    C3 4671   3.493   3.835  13.627  0.3516 -0.3050  0.9118
   37DOPE    HX 4672   3.522   3.729  13.609  4.2031  0.8977 -1.1511
   37DOPE    HY 4673   3.435   3.871  13.539 -1.5713 -5.5181 -0.3786
   37DOPE   O31 4674   3.418   3.830  13.752 -0.3134 -0.0924 -0.0406
   37DOPE   C31 4675   3.360   3.945  13.790  0.1468  0.5477 -0.7448
   37DOPE   O32 4676   3.340   4.042  13.720 -0.1659  0.0323 -0.3108
   37DOPE   C32 4677   3.296   3.918  13.933 -0.2939 -0.0787  0.6077
   37DOPE   H2X 4678   3.214   3.845  13.918 -0.0342 -0.5160  1.2534
   37DOPE   H2Y 4679   3.378   3.872  13.992  0.0363 -0.8050 -0.3918
   37DOPE   C23 4680   3.730   3.841  14.081 -0.7353 -0.2086  0.5276
   37DOPE   H3R 4681   3.773   3.773  14.158  2.2876  0.0746 -0.7804
   37DOPE   H3S 4682   3.634   3.811  14.034  0.3628  0.9797 -2.7604
   37DOPE   C24 4683   3.695   3.978  14.142 -0.2313  0.6759 -0.4687
   37DOPE   H4R 4684   3.655   4.050  14.068 -1.4214 -0.6469 -1.1573
   37DOPE   H4S 4685   3.784   4.030  14.183  2.6816 -2.8690 -1.8104
   37DOPE   C25 4686   3.579   3.970  14.240  0.3644 -1.2414 -0.6027
   37DOPE   H5R 4687   3.502   3.933  14.170 -0.0617 -1.0306 -0.2473
   37DOPE   H5S 4688   3.557   4.073  14.275 -0.5118 -2.1780  1.8472
   37DOPE   C26 4689   3.591   3.876  14.356  0.3601  1.2756 -0.3238
   37DOPE   H6R 4690   3.683   3.898  14.416  0.4216  0.3775 -0.0773
   37DOPE   H6S 4691   3.614   3.774  14.320 -0.8440 -0.0585  2.3846
   37DOPE   C27 4692   3.458   3.865  14.442  0.3015 -0.4473 -0.1744
   37DOPE   H7R 4693   3.448   3.774  14.504 -1.7479  0.3826  0.7987
   37DOPE   H7S 4694   3.373   3.872  14.371 -0.0700  3.9999  0.3854
   37DOPE   C28 4695   3.444   3.977  14.546  0.4806 -0.3545 -0.6164
   37DOPE   H8R 4696   3.462   4.076  14.499 -0.8700  1.2358  1.9811
   37DOPE   H8S 4697   3.525   3.951  14.617  1.1780 -0.5588 -1.4610
   37DOPE   C29 4698   3.307   3.979  14.614 -0.1753  0.0202 -0.2378
   37DOPE   H9R 4699   3.308   3.913  14.702 -2.3208 -2.9622 -2.2200
   37DOPE  C210 4700   3.207   4.066  14.603  0.1999  0.0188 -0.2030
   37DOPE  H10R 4701   3.119   4.059  14.669 -0.2828  0.2902 -0.8048
   37DOPE  C211 4702   3.194   4.171  14.497 -1.0898  0.8555 -0.0591
   37DOPE  H11R 4703   3.100   4.171  14.438 -0.0495 -4.1965 -2.2555
   37DOPE  H11S 4704   3.269   4.159  14.416 -1.5614  0.7671 -0.4857
   37DOPE  C212 4705   3.213   4.306  14.565  0.3834 -0.2692  0.3534
   37DOPE  H12R 4706   3.133   4.326  14.639 -1.1907  0.2095 -1.4245
   37DOPE  H12S 4707   3.223   4.380  14.483  0.9393 -2.0109 -1.2278
   37DOPE  C213 4708   3.342   4.327  14.654  0.0267  0.4648  0.1200
   37DOPE  H13R 4709   3.435   4.305  14.597 -0.2485 -1.2043  0.2688
   37DOPE  H13S 4710   3.346   4.255  14.738  2.2895 -2.0988 -2.0006
   37DOPE  C214 4711   3.349   4.470  14.711  0.6295 -0.2172  0.3090
   37DOPE  H14R 4712   3.266   4.481  14.784  0.2171 -0.7854 -0.0727
   37DOPE  H14S 4713   3.321   4.544  14.634 -1.2052 -1.2024 -0.0216
   37DOPE  C215 4714   3.487   4.515  14.767 -0.1171  0.8139 -0.8562
   37DOPE  H15R 4715   3.571   4.492  14.698  0.8146  0.2177  0.4400
   37DOPE  H15S 4716   3.502   4.449  14.855 -0.6419 -0.1650 -1.4820
   37DOPE  C216 4717   3.500   4.664  14.801 -0.6011  0.0741 -0.4409
   37DOPE  H16R 4718   3.445   4.695  14.892  1.6478 -0.6111  1.2467
   37DOPE  H16S 4719   3.463   4.734  14.722 -1.7927  0.2826  0.2804
   37DOPE  C217 4720   3.646   4.704  14.835 -0.2733 -0.3285 -0.1118
   37DOPE  H17R 4721   3.668   4.810  14.859  4.3612 -1.3209  1.1405
   37DOPE  H17S 4722   3.706   4.684  14.744 -0.0009 -1.7830  0.3646
   37DOPE  C218 4723   3.713   4.612  14.935 -0.3653  0.6394 -0.0923
   37DOPE  H18R 4724   3.663   4.625  15.034 -0.7861 -0.5435 -0.1390
   37DOPE  H18S 4725   3.822   4.631  14.947  0.0610  0.4254 -2.9238
   37DOPE  H18T 4726   3.706   4.505  14.908  0.7711  0.4216  0.4195
   37DOPE   C33 4727   3.255   4.051  14.006 -0.2377 -0.4467 -0.2360
   37DOPE   H3X 4728   3.171   4.100  13.954  1.4095  0.2208 -2.3848
   37DOPE   H3Y 4729   3.334   4.129  14.008 -0.1663 -0.4873 -1.2908
   37DOPE   C34 4730   3.206   4.030  14.154  0.2327  0.0927 -0.9025
   37DOPE   H4X 4731   3.291   3.980  14.206  0.5503 -0.2551 -1.7425
   37DOPE   H4Y 4732   3.186   4.125  14.207  0.7150 -1.0327  1.4485
   37DOPE   C35 4733   3.089   3.936  14.170 -0.1355  0.3528  0.6284
   37DOPE   H5X 4734   3.115   3.848  14.107 -1.0452  0.0809  0.6267
   37DOPE   H5Y 4735   2.995   3.975  14.126 -0.0892 -1.2738 -1.0563
   37DOPE   C36 4736   3.071   3.897  14.310  0.7320  0.3619  0.5885
   37DOPE   H6X 4737   3.055   3.986  14.374 -0.8791  0.4603  0.0919
   37DOPE   H6Y 4738   3.163   3.854  14.354 -0.7471 -0.5104  3.1104
   37DOPE   C37 4739   2.940   3.820  14.335  0.8072  0.1218  0.0113
   37DOPE   H7X 4740   2.861   3.863  14.271 -0.4160 -1.5897  0.2895
   37DOPE   H7Y 4741   2.954   3.717  14.297  0.1606  1.3470 -3.9401
   37DOPE   C38 4742   2.887   3.821  14.474  0.1126  0.1622  0.2739
   37DOPE   H8X 4743   2.970   3.804  14.546 -1.4900  2.4897  2.8416
   37DOPE   H8Y 4744   2.802   3.754  14.499  0.0539  0.9571  2.3528
   37DOPE   C39 4745   2.825   3.950  14.497 -0.7316 -0.3077  0.1948
   37DOPE   H9X 4746   2.767   3.992  14.413  0.5329  1.1581  0.0208
   37DOPE  C310 4747   2.827   4.026  14.612  0.0320 -0.0006  0.2715
   37DOPE  H10X 4748   2.756   4.110  14.613 -1.5048 -1.0968 -2.6390
   37DOPE  C311 4749   2.902   3.988  14.744  0.4962 -0.5874  0.1451
   37DOPE  H11X 4750   2.983   3.920  14.710  0.1608 -0.0524 -1.8376
   37DOPE  H11Y 4751   2.955   4.072  14.795  0.1239 -1.1079  1.4263
   37DOPE  C312 4752   2.799   3.943  14.845 -0.3799 -0.5156  0.0502
   37DOPE  H12X 4753   2.742   3.856  14.808 -0.7458 -0.0506 -0.5051
   37DOPE  H12Y 4754   2.715   4.015  14.853  1.0953  1.5781 -1.7106
   37DOPE  C313 4755   2.845   3.926  14.994  0.0260  0.1519  0.0152
   37DOPE  H13X 4756   2.894   4.020  15.028  3.1595 -0.7608 -1.5717
   37DOPE  H13Y 4757   2.764   3.903  15.067 -0.1823 -0.8910 -0.5257
   37DOPE  C314 4758   2.945   3.815  15.017 -0.0315  1.0030 -0.7059
   37DOPE  H14X 4759   3.026   3.833  14.944 -0.8273  0.5500 -1.7220
   37DOPE  H14Y 4760   2.905   3.714  14.996  0.3802  0.9151 -1.0762
   37DOPE  C315 4761   2.990   3.817  15.162 -0.1851  0.8134 -0.7160
   37DOPE  H15X 4762   2.992   3.927  15.178 -1.4175  1.0111 -1.7189
   37DOPE  H15Y 4763   3.086   3.762  15.175  0.0093  0.9613 -1.4549
   37DOPE  C316 4764   2.881   3.754  15.262  0.0588  0.3008 -0.3419
   37DOPE  H16X 4765   2.877   3.646  15.236 -0.8801  0.7212 -2.0607
   37DOPE  H16Y 4766   2.775   3.783  15.249 -0.8360 -1.6257  1.7740
   37DOPE  C317 4767   2.933   3.761  15.405  0.1118 -0.5603  0.6452
   37DOPE  H17X 4768   3.037   3.725  15.419  0.4649  0.5167  0.8441
   37DOPE  H17Y 4769   2.939   3.864  15.445  1.9810 -0.4720  0.2184
   37DOPE  C318 4770   2.843   3.675  15.480 -0.0760 -1.2036 -0.0059
   37DOPE  H18X 4771   2.870   3.675  15.587 -0.6238  0.0993  0.1554
   37DOPE  H18Y 4772   2.736   3.704  15.470  0.4045  0.0533 -2.2999
   37DOPE  H18Z 4773   2.852   3.570  15.446  2.3231 -0.8832 -0.5293
   38DOPE     N 4774   5.042   6.664  13.469  0.4669 -0.0874 -0.7859
   38DOPE   HN1 4775   4.985   6.750  13.464  0.3098 -0.0165  1.4975
   38DOPE   HN2 4776   5.096   6.670  13.558  1.0883 -0.9853 -1.0844
   38DOPE   HN3 4777   5.114   6.663  13.394  0.7239  2.2387 -0.6273
   38DOPE   C12 4778   4.962   6.538  13.469  0.8142  0.1768  0.5116
   38DOPE  H12A 4779   4.897   6.539  13.379 -0.5864  0.7058  1.4917
   38DOPE  H12B 4780   4.889   6.533  13.553 -1.2670  0.3535 -1.2119
   38DOPE   C11 4781   5.052   6.418  13.463  0.0439 -0.5267 -0.2558
   38DOPE  H11A 4782   5.010   6.321  13.431  0.2219 -0.4549 -0.7064
   38DOPE  H11B 4783   5.090   6.397  13.566  0.0633 -0.0893 -0.1690
   38DOPE     P 4784   5.206   6.392  13.244  0.0595 -0.0953 -0.3494
   38DOPE   O13 4785   5.307   6.477  13.187 -0.5477  0.2399  0.3327
   38DOPE   O14 4786   5.082   6.378  13.171  0.0607  0.1953  0.0138
   38DOPE   O11 4787   5.259   6.249  13.281  0.2543  0.4988 -0.5618
   38DOPE   O12 4788   5.172   6.456  13.388 -0.1423  0.6536  0.3138
   38DOPE    C1 4789   5.299   6.199  13.410 -0.3170 -0.5504  0.1806
   38DOPE    HA 4790   5.329   6.092  13.403 -3.6276 -1.7201  1.6994
   38DOPE    HB 4791   5.214   6.202  13.482  0.9008  0.7045  1.6500
   38DOPE    C2 4792   5.419   6.276  13.468 -0.9616  0.2870 -0.6298
   38DOPE    HS 4793   5.377   6.375  13.495 -2.4565 -0.4266 -0.1985
   38DOPE   O21 4794   5.525   6.286  13.370  0.6834 -0.8597 -0.1987
   38DOPE   C21 4795   5.598   6.396  13.389  0.8781  0.2463 -0.7045
   38DOPE   O22 4796   5.579   6.489  13.466  0.0622 -0.7129  0.4810
   38DOPE   C22 4797   5.717   6.381  13.296  0.1935  0.6756  1.1199
   38DOPE   H2R 4798   5.749   6.486  13.282  1.8334  0.2394  1.4310
   38DOPE   H2S 4799   5.691   6.323  13.204  0.2903  0.7597  1.0393
   38DOPE    C3 4800   5.476   6.208  13.603  0.7836 -0.0156 -0.5188
   38DOPE    HX 4801   5.545   6.123  13.585 -0.1901 -1.3685  1.7464
   38DOPE    HY 4802   5.398   6.161  13.667  1.3382  0.5544  0.5975
   38DOPE   O31 4803   5.550   6.298  13.687 -0.1049  0.2401  0.6432
   38DOPE   C31 4804   5.487   6.380  13.763 -0.3274  0.4176 -0.5717
   38DOPE   O32 4805   5.366   6.389  13.776  0.2335 -0.2190 -0.2163
   38DOPE   C32 4806   5.588   6.476  13.839  0.2838 -0.0470  0.0222
   38DOPE   H2X 4807   5.655   6.402  13.887  0.6955 -0.6815 -1.4692
   38DOPE   H2Y 4808   5.644   6.513  13.751  0.6375 -1.3503 -0.3114
   38DOPE   C23 4809   5.818   6.287  13.369  0.1044 -0.1087  0.2333
   38DOPE   H3R 4810   5.893   6.256  13.294  0.6478  0.1535  0.6602
   38DOPE   H3S 4811   5.758   6.198  13.397 -0.0370 -0.0048  0.2627
   38DOPE   C24 4812   5.898   6.357  13.491  0.3148 -0.3907  0.6258
   38DOPE   H4R 4813   5.830   6.388  13.573 -1.9743 -0.6840 -1.0487
   38DOPE   H4S 4814   5.943   6.449  13.446 -1.2961  0.7320  1.2206
   38DOPE   C25 4815   6.018   6.276  13.542  0.5472 -0.0638 -0.6074
   38DOPE   H5R 4816   6.054   6.326  13.634 -0.3839  0.6920 -0.6374
   38DOPE   H5S 4817   6.086   6.278  13.454  0.3991 -0.7904 -0.7520
   38DOPE   C26 4818   5.979   6.134  13.584  0.0072 -0.5610 -0.1505
   38DOPE   H6R 4819   5.974   6.076  13.490  0.2050 -1.2099  0.2294
   38DOPE   H6S 4820   5.881   6.126  13.636 -0.5954  1.0725 -0.9795
   38DOPE   C27 4821   6.088   6.060  13.668 -0.5360  0.5996 -0.3829
   38DOPE   H7R 4822   6.073   6.091  13.774  0.3736 -2.1491  0.6275
   38DOPE   H7S 4823   6.188   6.093  13.635  0.4269 -2.2879 -0.6312
   38DOPE   C28 4824   6.077   5.911  13.660 -0.1143  0.3263  0.0410
   38DOPE   H8R 4825   6.075   5.862  13.560  0.2179 -1.8745  1.0446
   38DOPE   H8S 4826   5.982   5.884  13.711 -1.6033 -0.7819 -3.0448
   38DOPE   C29 4827   6.190   5.842  13.734 -0.5227  0.0935 -0.5250
   38DOPE   H9R 4828   6.283   5.900  13.723 -0.7266  0.2952 -1.2865
   38DOPE  C210 4829   6.186   5.735  13.819 -0.1826 -0.0130  0.3933
   38DOPE  H10R 4830   6.277   5.704  13.872  0.7727 -0.4351 -1.4115
   38DOPE  C211 4831   6.069   5.649  13.846 -0.1119  0.4177  0.2856
   38DOPE  H11R 4832   6.092   5.543  13.824  0.2360  1.0101 -2.5381
   38DOPE  H11S 4833   5.983   5.683  13.785 -0.1749 -0.2203  0.0152
   38DOPE  C212 4834   6.039   5.635  13.999  0.2376 -0.4282 -0.1811
   38DOPE  H12R 4835   5.940   5.592  14.025  1.1208 -2.1432  0.4790
   38DOPE  H12S 4836   6.051   5.740  14.036 -0.1076 -0.8605  1.2337
   38DOPE  C213 4837   6.135   5.565  14.086  0.1800 -0.2639  0.2470
   38DOPE  H13R 4838   6.230   5.543  14.032  1.1266 -1.0296  2.1352
   38DOPE  H13S 4839   6.092   5.467  14.115  0.2891  0.2597  2.3687
   38DOPE  C214 4840   6.170   5.653  14.207  0.8622 -0.0822 -0.5828
   38DOPE  H14R 4841   6.074   5.692  14.247  1.2479 -1.4506  1.8749
   38DOPE  H14S 4842   6.233   5.736  14.168  1.0254 -0.0244 -0.2034
   38DOPE  C215 4843   6.231   5.571  14.323 -0.1931 -0.3204 -0.0326
   38DOPE  H15R 4844   6.329   5.524  14.301  0.1984 -0.5321  1.9713
   38DOPE  H15S 4845   6.163   5.484  14.340 -1.8233  0.6088 -1.4318
   38DOPE  C216 4846   6.242   5.667  14.447  0.1471  0.7310 -0.0233
   38DOPE  H16R 4847   6.138   5.683  14.482  0.3477 -1.5139  1.7538
   38DOPE  H16S 4848   6.307   5.752  14.416  0.0664  0.6716 -0.3613
   38DOPE  C217 4849   6.305   5.606  14.565 -0.3103 -0.2598 -0.0983
   38DOPE  H17R 4850   6.416   5.606  14.552 -0.1589 -3.2947  0.5582
   38DOPE  H17S 4851   6.268   5.502  14.576  2.0542 -0.9944  1.9268
   38DOPE  C218 4852   6.282   5.674  14.696  0.0741 -0.7545 -0.2589
   38DOPE  H18R 4853   6.187   5.648  14.747 -0.9156  1.7867 -0.6260
   38DOPE  H18S 4854   6.266   5.782  14.673 -1.1591 -0.4109  1.9261
   38DOPE  H18T 4855   6.373   5.661  14.759  2.7708  0.1062 -3.6490
   38DOPE   C33 4856   5.502   6.600  13.899  0.0875 -0.2466  0.1628
   38DOPE   H3X 4857   5.446   6.647  13.815 -0.1701  2.1191  1.5983
   38DOPE   H3Y 4858   5.573   6.678  13.934 -0.8087  0.9849 -0.6980
   38DOPE   C34 4859   5.409   6.564  14.014  0.1420  0.0017  0.5542
   38DOPE   H4X 4860   5.314   6.520  13.978  1.5303 -1.6145 -1.3066
   38DOPE   H4Y 4861   5.450   6.486  14.082 -3.0644 -0.8496  1.6957
   38DOPE   C35 4862   5.376   6.678  14.117  0.5544 -0.0480  1.1003
   38DOPE   H5X 4863   5.315   6.756  14.068  1.2650 -0.8547 -1.1805
   38DOPE   H5Y 4864   5.479   6.711  14.142  1.1093 -2.2926  2.1042
   38DOPE   C36 4865   5.295   6.621  14.236 -0.1241  0.1382  0.0161
   38DOPE   H6X 4866   5.223   6.546  14.197  0.9173 -1.6201  1.3572
   38DOPE   H6Y 4867   5.237   6.702  14.286 -1.6390 -0.3693 -0.8628
   38DOPE   C37 4868   5.392   6.563  14.339  0.7993  0.3592 -0.4170
   38DOPE   H7X 4869   5.419   6.465  14.294 -0.4861  0.6816 -1.9983
   38DOPE   H7Y 4870   5.473   6.636  14.358  1.9320 -1.3386  1.8520
   38DOPE   C38 4871   5.307   6.529  14.462 -0.2044  0.3071  0.1082
   38DOPE   H8X 4872   5.243   6.441  14.438 -0.0206  0.0463  0.5521
   38DOPE   H8Y 4873   5.236   6.609  14.493 -1.3535 -0.8231  0.4822
   38DOPE   C39 4874   5.404   6.506  14.580  0.1341 -0.3923  0.4410
   38DOPE   H9X 4875   5.464   6.415  14.563 -1.2888 -1.2112 -0.4934
   38DOPE  C310 4876   5.420   6.579  14.692 -0.3370 -0.4038 -0.2993
   38DOPE  H10X 4877   5.498   6.540  14.759 -2.3654 -3.2509  0.6139
   38DOPE  C311 4878   5.336   6.702  14.737 -0.8762  0.3418  0.1691
   38DOPE  H11X 4879   5.398   6.760  14.808  3.5007 -2.0418 -1.3171
   38DOPE  H11Y 4880   5.312   6.767  14.650 -0.0939  0.3615 -0.0333
   38DOPE  C312 4881   5.215   6.657  14.824 -0.1858 -0.6245 -0.5183
   38DOPE  H12X 4882   5.248   6.591  14.907 -0.8748 -0.4041 -0.0579
   38DOPE  H12Y 4883   5.145   6.602  14.757  0.9722  0.7220 -2.9931
   38DOPE  C313 4884   5.125   6.778  14.867  0.1982  0.2775 -0.0819
   38DOPE  H13X 4885   5.169   6.833  14.953 -1.3499  1.7527 -0.1767
   38DOPE  H13Y 4886   5.117   6.832  14.770  1.1358  0.6847  0.0634
   38DOPE  C314 4887   4.981   6.749  14.901  0.3749 -0.0233 -0.2187
   38DOPE  H14X 4888   4.939   6.692  14.815 -0.5096  0.3000 -0.0121
   38DOPE  H14Y 4889   4.930   6.848  14.908  0.8607  0.1277  1.5051
   38DOPE  C315 4890   4.956   6.655  15.019 -0.2423 -0.0937  0.5664
   38DOPE  H15X 4891   4.988   6.706  15.112 -2.3637  3.8215 -0.6291
   38DOPE  H15Y 4892   5.000   6.553  15.006 -0.3687 -0.1673  0.7232
   38DOPE  C316 4893   4.808   6.637  15.042 -0.1561 -0.5361 -0.0459
   38DOPE  H16X 4894   4.751   6.621  14.947 -0.8633  1.4539 -0.0082
   38DOPE  H16Y 4895   4.779   6.737  15.081  0.6220 -0.3404  0.0468
   38DOPE  C317 4896   4.772   6.535  15.142  0.6884  0.6017 -0.5973
   38DOPE  H17X 4897   4.801   6.439  15.094 -1.4871 -0.6047  0.3327
   38DOPE  H17Y 4898   4.828   6.553  15.236  1.1867 -0.5417 -0.6664
   38DOPE  C318 4899   4.623   6.532  15.171  0.2764 -0.2487 -0.5073
   38DOPE  H18X 4900   4.567   6.463  15.105 -1.9331  1.9716 -1.0956
   38DOPE  H18Y 4901   4.590   6.499  15.272 -1.2661 -0.2268 -0.9910
   38DOPE  H18Z 4902   4.578   6.631  15.148  0.1493  0.1870  1.3963
   39DOPE     N 4903   2.396   6.398  13.552 -0.9827 -0.2736  0.0640
   39DOPE   HN1 4904   2.329   6.344  13.493 -0.3264  0.1312 -1.0952
   39DOPE   HN2 4905   2.358   6.494  13.567 -0.7035 -0.1935  0.2633
   39DOPE   HN3 4906   2.486   6.408  13.500 -0.0394  0.1967  1.7185
   39DOPE   C12 4907   2.406   6.323  13.682  0.5267  0.1765  0.1624
   39DOPE  H12A 4908   2.472   6.374  13.754 -1.4808 -0.2185  2.4162
   39DOPE  H12B 4909   2.445   6.224  13.650 -3.1958 -0.7120 -2.4373
   39DOPE   C11 4910   2.263   6.309  13.741  0.1441  0.0032  0.5551
   39DOPE  H11A 4911   2.215   6.408  13.760 -1.1548  0.3341 -3.4533
   39DOPE  H11B 4912   2.281   6.257  13.837  1.9956 -2.0174 -0.7931
   39DOPE     P 4913   2.149   6.089  13.669  0.1222  0.0267 -0.0059
   39DOPE   O13 4914   2.283   6.028  13.685  0.4085 -0.1646 -0.1301
   39DOPE   O14 4915   2.070   6.028  13.560  0.0800  0.4171 -0.7789
   39DOPE   O11 4916   2.075   6.076  13.810 -0.5231 -0.1438 -0.1013
   39DOPE   O12 4917   2.169   6.240  13.651 -0.3439  0.5928  0.9076
   39DOPE    C1 4918   1.956   6.151  13.834 -0.1248  0.2398  0.5213
   39DOPE    HA 4919   1.900   6.191  13.748 -0.3417  0.4731  0.7707
   39DOPE    HB 4920   1.974   6.242  13.895 -0.8996  1.3315 -0.8427
   39DOPE    C2 4921   1.853   6.062  13.897  0.4363 -0.1565  0.0569
   39DOPE    HS 4922   1.799   6.000  13.822 -0.4116 -0.9367  1.2831
   39DOPE   O21 4923   1.767   6.152  13.959  0.0398  0.1067 -0.3594
   39DOPE   C21 4924   1.662   6.190  13.898 -0.4316 -0.5040  0.5231
   39DOPE   O22 4925   1.637   6.162  13.782 -0.5155 -0.0683  0.2595
   39DOPE   C22 4926   1.581   6.274  13.991  0.2760 -0.0308 -0.2707
   39DOPE   H2R 4927   1.510   6.335  13.931  1.1488 -0.7577 -2.1192
   39DOPE   H2S 4928   1.659   6.339  14.037  1.5414 -1.2150 -0.6677
   39DOPE    C3 4929   1.909   5.964  13.998  0.1232  0.0255 -0.9085
   39DOPE    HX 4930   1.967   6.031  14.066  1.8338 -0.8828 -1.4258
   39DOPE    HY 4931   1.973   5.891  13.946  0.4502  0.3245 -0.9274
   39DOPE   O31 4932   1.804   5.907  14.075 -0.3823  0.8039 -0.1730
   39DOPE   C31 4933   1.798   5.766  14.074 -0.1241  0.0597 -0.6572
   39DOPE   O32 4934   1.845   5.692  13.990 -1.1431  0.0842  0.5531
   39DOPE   C32 4935   1.711   5.721  14.197 -0.2165  0.4195  0.4336
   39DOPE   H2X 4936   1.641   5.801  14.230  0.0533  0.4367  0.9671
   39DOPE   H2Y 4937   1.650   5.640  14.151  0.2462  1.1242 -1.5392
   39DOPE   C23 4938   1.513   6.182  14.093  0.4382  0.2765  0.0030
   39DOPE   H3R 4939   1.591   6.113  14.132  0.7877  1.2692  1.1379
   39DOPE   H3S 4940   1.436   6.121  14.041 -1.4758  0.4759  2.3730
   39DOPE   C24 4941   1.448   6.265  14.208  0.2787 -0.0151  0.3797
   39DOPE   H4R 4942   1.406   6.363  14.176  1.9861 -0.3442 -3.5460
   39DOPE   H4S 4943   1.525   6.281  14.286  1.7615  0.3468 -1.0926
   39DOPE   C25 4944   1.337   6.185  14.279  0.0980 -0.0469 -0.2707
   39DOPE   H5R 4945   1.353   6.075  14.281 -1.5325 -0.3119 -0.4167
   39DOPE   H5S 4946   1.246   6.202  14.218  0.1495  0.0588 -0.3189
   39DOPE   C26 4947   1.307   6.222  14.426 -0.0381  0.8857 -0.3435
   39DOPE   H6R 4948   1.388   6.203  14.499 -0.8901 -0.1275  0.3743
   39DOPE   H6S 4949   1.222   6.161  14.465  1.2497  0.2485  1.5924
   39DOPE   C27 4950   1.271   6.373  14.449  0.5631 -0.1239  0.2828
   39DOPE   H7R 4951   1.182   6.390  14.386  1.2031 -1.0915 -0.9221
   39DOPE   H7S 4952   1.359   6.434  14.420  2.2485 -2.0210  1.1774
   39DOPE   C28 4953   1.218   6.398  14.587 -0.9198  0.6143 -0.3779
   39DOPE   H8R 4954   1.300   6.369  14.656 -1.9779 -0.7730  0.3327
   39DOPE   H8S 4955   1.140   6.321  14.606  0.7024 -0.6809  1.4122
   39DOPE   C29 4956   1.153   6.529  14.633  0.7115  0.0938 -0.1096
   39DOPE   H9R 4957   1.155   6.612  14.561 -0.3807  1.1587  1.0364
   39DOPE  C210 4958   1.086   6.543  14.750  0.1284 -0.8788 -0.1805
   39DOPE  H10R 4959   1.051   6.645  14.769 -1.1601 -1.1276 -1.1115
   39DOPE  C211 4960   1.055   6.436  14.857 -0.6544 -0.5441 -0.1890
   39DOPE  H11R 4961   1.125   6.351  14.839 -2.6882 -2.3843  0.0850
   39DOPE  H11S 4962   0.967   6.382  14.816  0.1521 -1.0065 -1.3938
   39DOPE  C212 4963   1.037   6.486  14.999  0.4974 -0.0134  0.3347
   39DOPE  H12R 4964   1.120   6.558  15.014  1.7577 -1.4514  0.4907
   39DOPE  H12S 4965   1.024   6.406  15.076 -2.5596  0.6575  0.6358
   39DOPE  C213 4966   0.901   6.559  15.009 -0.3034  0.3588  0.1356
   39DOPE  H13R 4967   0.834   6.472  14.989  4.0331 -3.2816 -0.1190
   39DOPE  H13S 4968   0.887   6.628  14.923  2.1872 -0.9684 -1.4643
   39DOPE  C214 4969   0.880   6.631  15.143  0.1818  0.4450 -0.2282
   39DOPE  H14R 4970   0.948   6.719  15.136  0.4578  0.1298 -1.9485
   39DOPE  H14S 4971   0.902   6.571  15.233  2.3180  0.7824 -0.4683
   39DOPE  C215 4972   0.739   6.685  15.149  0.6422  0.4568  0.4463
   39DOPE  H15R 4973   0.665   6.603  15.140  3.3909 -2.4166  2.1701
   39DOPE  H15S 4974   0.722   6.753  15.062 -2.5235 -0.3612  0.3143
   39DOPE  C216 4975   0.712   6.762  15.281 -0.1474 -0.5621 -0.1052
   39DOPE  H16R 4976   0.780   6.850  15.273 -0.1427 -0.5970 -0.4774
   39DOPE  H16S 4977   0.756   6.708  15.367  0.1963 -2.0610 -1.1832
   39DOPE  C217 4978   0.569   6.797  15.317  0.4541  0.4016  0.8197
   39DOPE  H17R 4979   0.539   6.862  15.232 -0.2003  1.8785  2.1177
   39DOPE  H17S 4980   0.556   6.865  15.404  2.1248 -0.0665  1.4791
   39DOPE  C218 4981   0.465   6.692  15.346 -0.2654  0.5695  0.1566
   39DOPE  H18R 4982   0.362   6.730  15.324  0.5051  1.5632 -2.0146
   39DOPE  H18S 4983   0.480   6.643  15.444  0.7172  1.0384  0.2507
   39DOPE  H18T 4984   0.488   6.605  15.281 -1.6080  0.9857 -0.9203
   39DOPE   C33 4985   1.813   5.667  14.289 -0.8097  0.2232  0.0219
   39DOPE   H3X 4986   1.889   5.601  14.244 -0.8718  0.6355 -0.6937
   39DOPE   H3Y 4987   1.759   5.606  14.365 -1.1301 -1.1903 -1.2909
   39DOPE   C34 4988   1.891   5.771  14.371 -0.1454 -0.9170  0.5451
   39DOPE   H4X 4989   1.954   5.827  14.300  0.4315  0.4179  2.0357
   39DOPE   H4Y 4990   1.812   5.841  14.405  0.6864  0.1090  0.4191
   39DOPE   C35 4991   1.970   5.715  14.489  0.0189 -0.1401  0.8038
   39DOPE   H5X 4992   1.904   5.660  14.559  2.0573 -1.0099  2.1225
   39DOPE   H5Y 4993   2.012   5.802  14.543 -1.3431  0.0352  1.6284
   39DOPE   C36 4994   2.095   5.629  14.445  0.4773 -0.1067 -0.0187
   39DOPE   H6X 4995   2.146   5.674  14.357 -0.3912 -2.6250 -1.9159
   39DOPE   H6Y 4996   2.054   5.530  14.416  0.1229  0.1561 -0.4426
   39DOPE   C37 4997   2.197   5.613  14.563 -0.8312  0.1868  0.1334
   39DOPE   H7X 4998   2.249   5.711  14.563  0.7563 -0.5819 -1.1577
   39DOPE   H7Y 4999   2.142   5.596  14.658 -1.1555  1.3322  0.1589
   39DOPE   C38 5000   2.324   5.522  14.533  0.0685  0.2317  0.1659
   39DOPE   H8X 5001   2.392   5.576  14.463 -0.1748 -0.0995 -0.3313
   39DOPE   H8Y 5002   2.293   5.431  14.477 -1.1604  0.5093  0.3782
   39DOPE   C39 5003   2.392   5.479  14.660  0.1579 -0.1535  0.1657
   39DOPE   H9X 5004   2.328   5.484  14.750 -1.1731 -0.1839 -0.7488
   39DOPE  C310 5005   2.507   5.408  14.670  0.5755  0.4089  0.0328
   39DOPE  H10X 5006   2.556   5.389  14.766 -0.6412 -0.0833  0.5781
   39DOPE  C311 5007   2.584   5.369  14.546 -0.1540 -0.5092  0.1507
   39DOPE  H11X 5008   2.574   5.258  14.540 -0.7669 -0.5611  1.7037
   39DOPE  H11Y 5009   2.546   5.421  14.455 -2.5745 -2.1015  0.1672
   39DOPE  C312 5010   2.726   5.411  14.567 -0.2176 -0.1685  0.2344
   39DOPE  H12X 5011   2.760   5.355  14.657  1.6045 -1.1036 -0.9875
   39DOPE  H12Y 5012   2.736   5.519  14.592 -1.0180  0.1865 -0.8951
   39DOPE  C313 5013   2.825   5.382  14.452  0.1682  0.3856 -0.4918
   39DOPE  H13X 5014   2.810   5.277  14.419  1.6451 -0.8642  2.4943
   39DOPE  H13Y 5015   2.807   5.455  14.370 -0.3717  0.5953 -0.1933
   39DOPE  C314 5016   2.976   5.398  14.496  0.0751 -0.1078  0.2144
   39DOPE  H14X 5017   3.007   5.331  14.579 -0.3135 -1.3069 -0.5897
   39DOPE  H14Y 5018   2.993   5.505  14.523  2.1824 -1.1055  3.4646
   39DOPE  C315 5019   3.071   5.336  14.386  1.0689  0.5088  0.1804
   39DOPE  H15X 5020   3.029   5.380  14.293  1.1593 -0.7875 -0.5029
   39DOPE  H15Y 5021   3.053   5.227  14.371  2.9156  0.0216  1.2296
   39DOPE  C316 5022   3.223   5.355  14.405 -0.4126 -0.3930  0.6447
   39DOPE  H16X 5023   3.261   5.326  14.505 -1.0308  0.3375  1.1059
   39DOPE  H16Y 5024   3.236   5.465  14.408  0.7826 -0.4292 -1.5008
   39DOPE  C317 5025   3.305   5.300  14.289  0.5671  0.3846  0.8217
   39DOPE  H17X 5026   3.318   5.192  14.311  0.2351  0.3955  1.0695
   39DOPE  H17Y 5027   3.250   5.317  14.194 -0.4563 -1.1757  1.0970
   39DOPE  C318 5028   3.445   5.362  14.290 -0.2492 -0.0643 -0.0342
   39DOPE  H18X 5029   3.447   5.467  14.254  0.3706 -0.4249 -1.0971
   39DOPE  H18Y 5030   3.487   5.360  14.393 -0.7084 -0.5229  0.1471
   39DOPE  H18Z 5031   3.505   5.307  14.215 -0.6926  2.4549 -2.3780
   40DOPE     N 5032   3.945   6.405  13.429 -0.4451 -0.1467  0.2481
   40DOPE   HN1 5033   4.026   6.342  13.444  1.3184  0.7140 -4.0098
   40DOPE   HN2 5034   3.890   6.343  13.365 -0.7748  1.4941 -1.1537
   40DOPE   HN3 5035   3.975   6.490  13.377 -1.1891  1.4650  2.3093
   40DOPE   C12 5036   3.873   6.434  13.563  0.1028  0.3928 -0.2880
   40DOPE  H12A 5037   3.952   6.459  13.637  1.3229 -1.5627 -0.8396
   40DOPE  H12B 5038   3.826   6.336  13.587 -2.2998  1.1254 -1.6777
   40DOPE   C11 5039   3.777   6.552  13.554  0.5707  0.5118  0.1346
   40DOPE  H11A 5040   3.838   6.644  13.545 -0.3250  1.3397  1.9273
   40DOPE  H11B 5041   3.724   6.571  13.650  1.0250  0.3278  0.4236
   40DOPE     P 5042   3.547   6.474  13.465 -0.2614  0.3788  0.3016
   40DOPE   O13 5043   3.522   6.363  13.372  0.1091 -0.0741 -0.0649
   40DOPE   O14 5044   3.442   6.576  13.481 -0.4409  0.1983  0.2432
   40DOPE   O11 5045   3.558   6.410  13.603 -0.2751 -0.6743 -0.0169
   40DOPE   O12 5046   3.689   6.538  13.442 -0.2312 -0.5587 -0.5004
   40DOPE    C1 5047   3.517   6.273  13.634  0.1390 -0.1350 -0.1935
   40DOPE    HA 5048   3.575   6.196  13.579  0.2728  0.5166 -0.9800
   40DOPE    HB 5049   3.411   6.261  13.605  0.3003 -0.6503 -0.6008
   40DOPE    C2 5050   3.532   6.254  13.786 -0.1835  0.5006 -0.4408
   40DOPE    HS 5051   3.641   6.232  13.794 -0.7601 -3.3218 -0.9869
   40DOPE   O21 5052   3.461   6.136  13.834 -0.2760  0.1054  0.3861
   40DOPE   C21 5053   3.523   6.079  13.942 -0.6403  0.6289 -0.5923
   40DOPE   O22 5054   3.627   6.117  13.989  0.3519 -0.5978  0.4851
   40DOPE   C22 5055   3.440   5.956  13.989 -0.3602  0.2607 -0.4198
   40DOPE   H2R 5056   3.482   5.865  13.941 -0.9722  0.8087 -2.0527
   40DOPE   H2S 5057   3.338   5.971  13.948 -0.4791 -1.5429 -0.8805
   40DOPE    C3 5058   3.483   6.376  13.860 -0.3495 -0.8245 -0.4456
   40DOPE    HX 5059   3.372   6.376  13.851 -0.5027  1.1440  0.8048
   40DOPE    HY 5060   3.523   6.472  13.819 -2.1682 -0.1772 -0.7914
   40DOPE   O31 5061   3.515   6.374  14.004  0.1813 -0.1082  0.4188
   40DOPE   C31 5062   3.639   6.406  14.034  0.3317  0.0646  0.0865
   40DOPE   O32 5063   3.719   6.460  13.964 -0.0915  0.2511 -0.0992
   40DOPE   C32 5064   3.661   6.372  14.185 -0.5009 -0.0390  0.2236
   40DOPE   H2X 5065   3.582   6.418  14.248 -1.4566 -1.3921  0.0596
   40DOPE   H2Y 5066   3.642   6.263  14.186 -0.0079 -0.1272  1.2633
   40DOPE   C23 5067   3.447   5.939  14.143  0.1900 -0.0999  0.6189
   40DOPE   H3R 5068   3.358   5.997  14.177  0.1550  1.4914 -1.9514
   40DOPE   H3S 5069   3.535   5.987  14.191  0.3745  0.4249 -0.2386
   40DOPE   C24 5070   3.438   5.795  14.188  0.4847 -0.2155 -0.6079
   40DOPE   H4R 5071   3.433   5.779  14.298 -2.1368 -2.2125 -0.9002
   40DOPE   H4S 5072   3.513   5.726  14.143  1.0140 -0.3052  0.3661
   40DOPE   C25 5073   3.305   5.727  14.150  0.1535 -0.0428  0.0891
   40DOPE   H5R 5074   3.295   5.621  14.182 -4.1676 -0.1229 -0.8892
   40DOPE   H5S 5075   3.307   5.727  14.039  1.6558  4.8201 -0.0862
   40DOPE   C26 5076   3.182   5.790  14.227 -0.2085 -0.2930  1.1071
   40DOPE   H6R 5077   3.090   5.738  14.191  0.0824 -0.4973  0.6411
   40DOPE   H6S 5078   3.171   5.896  14.195 -0.1281  0.5051  3.5556
   40DOPE   C27 5079   3.178   5.793  14.376  0.0435 -0.0535  0.1536
   40DOPE   H7R 5080   3.229   5.887  14.406  0.5697  0.5973 -2.5516
   40DOPE   H7S 5081   3.230   5.702  14.412 -0.9185 -0.5900  0.2208
   40DOPE   C28 5082   3.033   5.780  14.432 -0.0020 -0.0667  0.3727
   40DOPE   H8R 5083   3.061   5.769  14.539  1.6060 -0.2957 -0.0401
   40DOPE   H8S 5084   2.989   5.690  14.385 -0.3439  0.6893 -0.8161
   40DOPE   C29 5085   2.939   5.901  14.398 -0.6263  0.5092 -0.5822
   40DOPE   H9R 5086   2.908   5.910  14.293  1.9025 -0.3599 -1.4751
   40DOPE  C210 5087   2.907   5.991  14.489  0.1836  0.5737  0.3058
   40DOPE  H10R 5088   2.833   6.065  14.457 -0.6680 -1.0735 -1.7213
   40DOPE  C211 5089   2.943   5.983  14.634  0.0109  0.5358  0.2358
   40DOPE  H11R 5090   2.950   5.878  14.670  0.8770  0.6638  0.4510
   40DOPE  H11S 5091   2.873   6.043  14.697  0.4888  1.0449  0.2919
   40DOPE  C212 5092   3.081   6.046  14.652  0.2703 -0.2319  0.6359
   40DOPE  H12R 5093   3.089   6.153  14.623  0.9340  0.0695  1.8618
   40DOPE  H12S 5094   3.147   5.987  14.584  0.3361  0.6543 -0.0785
   40DOPE  C213 5095   3.141   6.011  14.790  0.2804  0.2296 -0.5660
   40DOPE  H13R 5096   3.183   5.908  14.789  0.2148  0.2086 -1.2930
   40DOPE  H13S 5097   3.066   6.014  14.872  0.1368 -1.0600 -0.6363
   40DOPE  C214 5098   3.264   6.095  14.825  0.6743 -0.8305  0.0014
   40DOPE  H14R 5099   3.239   6.199  14.855  0.5410 -1.2521  1.3951
   40DOPE  H14S 5100   3.331   6.098  14.736  1.2960 -0.4207  0.4772
   40DOPE  C215 5101   3.340   6.043  14.947  0.3494 -0.3688 -0.1452
   40DOPE  H15R 5102   3.349   5.934  14.928  0.0044 -0.2688 -0.9133
   40DOPE  H15S 5103   3.284   6.063  15.041  3.2497 -0.0234  1.5979
   40DOPE  C216 5104   3.487   6.080  14.951 -1.2758 -0.0957  0.6836
   40DOPE  H16R 5105   3.529   6.013  15.029  2.3308  0.1812 -0.8317
   40DOPE  H16S 5106   3.498   6.184  14.989  2.0274 -0.2556  0.4312
   40DOPE  C217 5107   3.569   6.082  14.812 -0.1337  0.1400 -0.1561
   40DOPE  H17R 5108   3.535   6.175  14.762 -2.1527  0.2068  1.2555
   40DOPE  H17S 5109   3.531   5.999  14.749  0.1917  0.1418 -0.3616
   40DOPE  C218 5110   3.725   6.077  14.831  0.1898  0.4269 -0.1368
   40DOPE  H18R 5111   3.747   5.968  14.831 -0.6831  0.2421 -0.4622
   40DOPE  H18S 5112   3.748   6.126  14.928  0.7446 -0.3491  0.1381
   40DOPE  H18T 5113   3.770   6.136  14.749  0.6338  0.6268  0.2410
   40DOPE   C33 5114   3.810   6.381  14.232 -0.8277 -0.0119 -0.1697
   40DOPE   H3X 5115   3.852   6.483  14.220  2.4481 -0.9719  2.0327
   40DOPE   H3Y 5116   3.869   6.317  14.164 -0.8603 -0.6362  0.3842
   40DOPE   C34 5117   3.834   6.330  14.369 -0.1311  0.5761  0.6811
   40DOPE   H4X 5118   3.809   6.397  14.454 -0.1110 -0.6062  1.6409
   40DOPE   H4Y 5119   3.767   6.243  14.384  0.3300  0.1000  0.0599
   40DOPE   C35 5120   3.977   6.278  14.397 -0.2702  0.2135  0.8154
   40DOPE   H5X 5121   4.052   6.359  14.381  1.3492 -1.5609 -1.1454
   40DOPE   H5Y 5122   3.991   6.203  14.316  0.7157  1.8769 -0.6303
   40DOPE   C36 5123   3.978   6.221  14.538 -0.2585  0.0728 -0.1002
   40DOPE   H6X 5124   3.907   6.135  14.543 -0.0813 -0.0310  0.9404
   40DOPE   H6Y 5125   3.948   6.296  14.615 -0.9626  0.2157 -0.5068
   40DOPE   C37 5126   4.114   6.166  14.560  0.3019  0.6463  0.4423
   40DOPE   H7X 5127   4.125   6.077  14.494 -1.5735  2.2704 -2.2578
   40DOPE   H7Y 5128   4.182   6.249  14.532 -0.6089  0.7432 -1.6676
   40DOPE   C38 5129   4.141   6.113  14.703 -0.1921 -0.6246 -0.2332
   40DOPE   H8X 5130   4.085   6.180  14.773  0.1961  1.8098 -2.1221
   40DOPE   H8Y 5131   4.250   6.123  14.716  0.0185 -3.7600  1.3375
   40DOPE   C39 5132   4.094   5.969  14.713  0.8903 -0.6665  0.1071
   40DOPE   H9X 5133   4.091   5.930  14.610  0.9130 -3.1458  0.9657
   40DOPE  C310 5134   4.063   5.888  14.818 -0.9577  0.4919  0.5904
   40DOPE  H10X 5135   4.056   5.779  14.802 -1.3299  0.6564 -0.4371
   40DOPE  C311 5136   4.071   5.922  14.965 -0.1220 -0.6794  0.1349
   40DOPE  H11X 5137   4.115   6.022  14.984 -1.7422 -0.1493  1.4016
   40DOPE  H11Y 5138   3.967   5.925  15.005  0.7709  1.2618  2.5755
   40DOPE  C312 5139   4.154   5.818  15.034 -0.4008  0.2764  0.6731
   40DOPE  H12X 5140   4.247   5.799  14.977 -1.2512  1.0252 -1.0090
   40DOPE  H12Y 5141   4.095   5.724  15.042  0.8025 -0.9184 -2.5835
   40DOPE  C313 5142   4.191   5.861  15.180  0.6126  0.5727 -0.0117
   40DOPE  H13X 5143   4.264   5.945  15.171  1.6167 -0.2580  0.1637
   40DOPE  H13Y 5144   4.098   5.901  15.227  1.0415  0.6885  0.7493
   40DOPE  C314 5145   4.253   5.757  15.273  0.7033  0.4945  0.7745
   40DOPE  H14X 5146   4.339   5.698  15.235  0.2906 -0.6377  1.5732
   40DOPE  H14Y 5147   4.173   5.680  15.275 -0.0864  1.1136 -1.9466
   40DOPE  C315 5148   4.287   5.798  15.410  0.2609  0.1781 -0.2419
   40DOPE  H15X 5149   4.192   5.831  15.456 -1.4351 -3.0843 -1.0943
   40DOPE  H15Y 5150   4.358   5.883  15.416  0.3406  0.0413  0.8750
   40DOPE  C316 5151   4.352   5.687  15.496  0.0043  0.1125  0.5556
   40DOPE  H16X 5152   4.455   5.672  15.456  0.7983 -0.2329  2.5935
   40DOPE  H16Y 5153   4.294   5.592  15.488  0.5948 -0.1581 -0.8700
   40DOPE  C317 5154   4.350   5.729  15.646 -0.1156  0.1040 -0.1911
   40DOPE  H17X 5155   4.241   5.737  15.666 -0.2731  0.6312 -1.1844
   40DOPE  H17Y 5156   4.394   5.645  15.703 -0.6839  0.0340  0.1480
   40DOPE  C318 5157   4.421   5.856  15.677  0.6636 -0.2892 -0.3424
   40DOPE  H18X 5158   4.365   5.942  15.634 -1.4567 -1.5419 -0.2339
   40DOPE  H18Y 5159   4.438   5.868  15.787 -0.2972 -1.2089 -0.0835
   40DOPE  H18Z 5160   4.523   5.849  15.635  1.8745 -2.8857  2.5908
   41DOPE     N 5161   1.850   6.880  13.394 -0.5302  0.0793  0.3326
   41DOPE   HN1 5162   1.791   6.959  13.360 -0.1183  0.7929  1.2091
   41DOPE   HN2 5163   1.931   6.867  13.330  0.0245 -0.6235  1.1579
   41DOPE   HN3 5164   1.794   6.793  13.391  2.2079 -1.8227  0.2000
   41DOPE   C12 5165   1.896   6.909  13.532  0.9807 -0.2298 -0.2196
   41DOPE  H12A 5166   1.855   6.832  13.602 -1.1026  1.0781  0.0767
   41DOPE  H12B 5167   1.851   7.002  13.571  1.3194 -1.3086  3.1396
   41DOPE   C11 5168   2.049   6.920  13.565  0.2450  0.3341  0.3594
   41DOPE  H11A 5169   2.058   6.961  13.667 -0.2101  2.5810 -0.4419
   41DOPE  H11B 5170   2.098   7.003  13.510 -1.6285  2.0886  1.1871
   41DOPE     P 5171   2.164   6.697  13.646  0.2432 -0.1793  0.3836
   41DOPE   O13 5172   2.292   6.635  13.612  0.0580  0.2688 -0.1022
   41DOPE   O14 5173   2.046   6.610  13.673  0.1015  0.1951  0.4227
   41DOPE   O11 5174   2.183   6.798  13.773  0.3596 -0.2152  0.1210
   41DOPE   O12 5175   2.115   6.793  13.532  0.6152 -0.2286  0.1624
   41DOPE    C1 5176   2.315   6.862  13.775 -0.8592 -0.0851 -0.3903
   41DOPE    HA 5177   2.314   6.963  13.729 -1.0380  0.8934  1.6747
   41DOPE    HB 5178   2.395   6.798  13.731 -0.0131 -0.0716  1.0903
   41DOPE    C2 5179   2.377   6.881  13.921  0.2086 -0.3323  0.8343
   41DOPE    HS 5180   2.483   6.913  13.912 -0.0074  0.2149  0.1668
   41DOPE   O21 5181   2.365   6.762  13.995  0.0604 -0.1729 -0.6086
   41DOPE   C21 5182   2.447   6.665  13.955 -0.5033  0.0195  0.1579
   41DOPE   O22 5183   2.551   6.676  13.888 -0.3066 -0.1870 -0.1406
   41DOPE   C22 5184   2.409   6.534  14.018  0.9621 -0.5352  0.4083
   41DOPE   H2R 5185   2.336   6.492  13.945  2.1501  1.1841 -1.8640
   41DOPE   H2S 5186   2.357   6.564  14.112  1.3797  1.0691  0.1563
   41DOPE    C3 5187   2.302   6.991  13.990  0.7852  0.1585  0.1315
   41DOPE    HX 5188   2.193   6.975  13.994  0.2080  3.1622 -1.1664
   41DOPE    HY 5189   2.315   7.085  13.932 -0.2906 -0.5130 -1.2446
   41DOPE   O31 5190   2.349   7.025  14.122  0.7455  0.1068  0.9168
   41DOPE   C31 5191   2.308   6.952  14.221 -0.1580 -0.4354 -0.3378
   41DOPE   O32 5192   2.236   6.854  14.218  0.1213  0.0219  0.5462
   41DOPE   C32 5193   2.369   7.019  14.348 -0.5260  0.0565  0.8860
   41DOPE   H2X 5194   2.478   6.998  14.341 -1.0070 -2.5511 -0.0237
   41DOPE   H2Y 5195   2.348   7.128  14.352  2.1450  0.6723  0.1785
   41DOPE   C23 5196   2.523   6.444  14.035 -0.0347  0.4996  0.4777
   41DOPE   H3R 5197   2.608   6.447  13.963 -1.6738 -0.8776 -1.6394
   41DOPE   H3S 5198   2.481   6.341  14.031  1.4463 -0.1156 -0.5162
   41DOPE   C24 5199   2.578   6.466  14.180  0.4237  0.4068 -0.0221
   41DOPE   H4R 5200   2.496   6.460  14.255  3.3352  0.7357  3.5001
   41DOPE   H4S 5201   2.625   6.566  14.192  1.2875 -0.1748  1.9546
   41DOPE   C25 5202   2.683   6.366  14.238  0.3235  0.0293  0.5249
   41DOPE   H5R 5203   2.758   6.347  14.158  0.0477 -1.0905  0.5066
   41DOPE   H5S 5204   2.630   6.269  14.254 -0.3514  0.2258 -0.4553
   41DOPE   C26 5205   2.749   6.402  14.373 -0.0303 -0.7612  0.0825
   41DOPE   H6R 5206   2.762   6.513  14.370  1.2893 -0.9019  0.0469
   41DOPE   H6S 5207   2.852   6.361  14.367  0.0155 -0.9764  1.9838
   41DOPE   C27 5208   2.663   6.367  14.491  0.1451 -0.4998 -0.2268
   41DOPE   H7R 5209   2.645   6.257  14.495  1.1102 -0.6665 -0.2493
   41DOPE   H7S 5210   2.569   6.421  14.471 -0.4347 -1.1794  0.6107
   41DOPE   C28 5211   2.714   6.426  14.630 -0.3181  0.1869 -0.5515
   41DOPE   H8R 5212   2.630   6.422  14.703 -0.7258 -0.6479 -1.0487
   41DOPE   H8S 5213   2.732   6.532  14.599  1.7674 -0.5152 -1.9495
   41DOPE   C29 5214   2.833   6.373  14.707 -0.3500 -0.2906  0.6510
   41DOPE   H9R 5215   2.860   6.269  14.682  2.2676  0.2961  0.6870
   41DOPE  C210 5216   2.930   6.444  14.768 -0.1691 -0.3341 -0.6897
   41DOPE  H10R 5217   3.015   6.392  14.815  0.9510 -0.1527 -2.4403
   41DOPE  C211 5218   2.932   6.588  14.796  0.0043 -0.6945  0.5626
   41DOPE  H11R 5219   2.892   6.648  14.712  1.3705  1.1172  1.1364
   41DOPE  H11S 5220   3.039   6.618  14.795  0.3493 -1.8839  0.2448
   41DOPE  C212 5221   2.856   6.622  14.921 -0.2899 -0.8038 -0.5794
   41DOPE  H12R 5222   2.899   6.563  15.004  0.2359  1.7464  1.0712
   41DOPE  H12S 5223   2.756   6.579  14.902  0.1676 -1.7934 -0.8272
   41DOPE  C213 5224   2.850   6.771  14.957  0.4970 -0.2200  0.1554
   41DOPE  H13R 5225   2.758   6.810  14.909 -0.0305 -0.8848  0.6034
   41DOPE  H13S 5226   2.937   6.834  14.930  0.8296  0.6971  2.9485
   41DOPE  C214 5227   2.844   6.780  15.113 -0.4221 -0.0969 -0.3286
   41DOPE  H14R 5228   2.939   6.733  15.144 -0.2424 -0.4380 -1.3574
   41DOPE  H14S 5229   2.754   6.727  15.151 -2.0353  1.9880 -1.0460
   41DOPE  C215 5230   2.827   6.929  15.164 -0.0253 -0.5441  0.5106
   41DOPE  H15R 5231   2.721   6.953  15.144 -0.3931 -3.3813 -1.6413
   41DOPE  H15S 5232   2.891   6.991  15.097  0.0719 -1.8939 -0.6987
   41DOPE  C216 5233   2.857   6.945  15.314  0.1180  0.1111  0.8830
   41DOPE  H16R 5234   2.961   6.913  15.337  1.0574  1.3291 -1.3558
   41DOPE  H16S 5235   2.780   6.892  15.374 -1.7966  0.0084 -1.4946
   41DOPE  C217 5236   2.840   7.089  15.367  0.4371 -0.1420  0.7211
   41DOPE  H17R 5237   2.734   7.119  15.352  0.4149  0.8735  2.6399
   41DOPE  H17S 5238   2.915   7.148  15.310 -0.5207 -0.0175 -0.4746
   41DOPE  C218 5239   2.876   7.109  15.511 -0.3995  0.0600 -0.1986
   41DOPE  H18R 5240   2.983   7.086  15.531 -0.4289  0.0758 -0.0197
   41DOPE  H18S 5241   2.809   7.041  15.568 -0.5005  1.8080  1.9011
   41DOPE  H18T 5242   2.845   7.209  15.549  0.0883  0.0882  0.1437
   41DOPE   C33 5243   2.323   6.962  14.478 -0.5791  0.3193  0.1152
   41DOPE   H3X 5244   2.214   6.939  14.481 -0.4015 -0.6569 -0.6613
   41DOPE   H3Y 5245   2.340   7.037  14.559 -2.3038  2.0796 -1.0528
   41DOPE   C34 5246   2.399   6.844  14.534 -0.4577  0.5398 -0.1516
   41DOPE   H4X 5247   2.410   6.762  14.460 -0.5470 -1.9509  2.3882
   41DOPE   H4Y 5248   2.502   6.883  14.547  0.1845 -1.6362  2.1672
   41DOPE   C35 5249   2.348   6.793  14.663 -0.0949 -0.7242  0.0391
   41DOPE   H5X 5250   2.246   6.752  14.650  0.3595 -2.3683  1.3402
   41DOPE   H5Y 5251   2.329   6.867  14.745  0.3549  0.2039 -0.6706
   41DOPE   C36 5252   2.422   6.668  14.730  0.4547 -0.1234  0.9011
   41DOPE   H6X 5253   2.529   6.687  14.706  0.7758 -1.0251  1.5728
   41DOPE   H6Y 5254   2.395   6.575  14.676  0.5074  0.9072 -1.0105
   41DOPE   C37 5255   2.387   6.667  14.875 -0.2133 -0.1751  0.8958
   41DOPE   H7X 5256   2.456   6.592  14.918  0.8458 -0.7513 -1.6021
   41DOPE   H7Y 5257   2.417   6.769  14.908 -1.8085  1.1545 -1.4445
   41DOPE   C38 5258   2.241   6.660  14.918  0.3840  0.7771  0.5604
   41DOPE   H8X 5259   2.189   6.751  14.880  1.6146  0.8417 -1.0510
   41DOPE   H8Y 5260   2.241   6.657  15.029 -1.6863 -1.6994  0.5840
   41DOPE   C39 5261   2.149   6.540  14.880 -0.3513 -0.1457  0.3811
   41DOPE   H9X 5262   2.075   6.566  14.803  0.1850  2.1869  0.5800
   41DOPE  C310 5263   2.125   6.430  14.952 -0.1022 -1.1654  0.8624
   41DOPE  H10X 5264   2.048   6.360  14.916 -1.3801  0.9056 -0.5995
   41DOPE  C311 5265   2.217   6.385  15.059 -0.1790  0.1168 -0.1157
   41DOPE  H11X 5266   2.321   6.401  15.021 -0.2406  0.2758 -0.2188
   41DOPE  H11Y 5267   2.199   6.445  15.151  0.0957 -0.2345  0.1733
   41DOPE  C312 5268   2.207   6.235  15.090 -0.1001  0.5093 -0.0414
   41DOPE  H12X 5269   2.231   6.185  14.994 -0.6216  0.1353  0.0218
   41DOPE  H12Y 5270   2.105   6.203  15.118 -0.3352  0.7139 -0.6559
   41DOPE  C313 5271   2.307   6.186  15.201 -1.1035  0.3833  0.5599
   41DOPE  H13X 5272   2.316   6.076  15.192 -3.0143  0.3157 -1.3415
   41DOPE  H13Y 5273   2.399   6.239  15.172 -1.7905  0.8792 -0.7777
   41DOPE  C314 5274   2.267   6.241  15.337  0.0553  0.2102 -0.0319
   41DOPE  H14X 5275   2.171   6.201  15.375 -0.9543  1.0457 -1.6375
   41DOPE  H14Y 5276   2.254   6.351  15.325  1.2237  0.1888 -1.9086
   41DOPE  C315 5277   2.380   6.224  15.444  0.4107 -0.4155  0.0222
   41DOPE  H15X 5278   2.400   6.115  15.445 -0.7185 -0.6354  0.4230
   41DOPE  H15Y 5279   2.339   6.263  15.540 -1.9011  0.2637 -1.1794
   41DOPE  C316 5280   2.505   6.308  15.418 -0.4993  0.8446  0.6501
   41DOPE  H16X 5281   2.470   6.410  15.393 -1.3216  0.7934  1.5300
   41DOPE  H16Y 5282   2.562   6.253  15.340 -0.4563  1.4172  0.2652
   41DOPE  C317 5283   2.592   6.297  15.548  0.7680 -0.4270  0.3339
   41DOPE  H17X 5284   2.523   6.307  15.635  0.5861 -3.4747  0.6699
   41DOPE  H17Y 5285   2.648   6.201  15.558 -1.7187 -1.7752  2.7351
   41DOPE  C318 5286   2.681   6.422  15.548 -0.0844  0.3260 -0.0201
   41DOPE  H18X 5287   2.746   6.409  15.637 -0.5836 -0.8837  0.1872
   41DOPE  H18Y 5288   2.730   6.438  15.449 -0.6035  1.0371 -0.1719
   41DOPE  H18Z 5289   2.621   6.513  15.569  0.0293  0.3898  0.0297
   42DOPE     N 5290   1.658   5.758  13.620  0.1802  0.3823  0.5128
   42DOPE   HN1 5291   1.601   5.737  13.535 -0.7789 -1.3038  1.5171
   42DOPE   HN2 5292   1.591   5.771  13.699  0.7031 -0.7044  1.1550
   42DOPE   HN3 5293   1.713   5.846  13.613 -0.9314  1.1723  1.4213
   42DOPE   C12 5294   1.745   5.638  13.647 -0.1203 -0.1927  0.1536
   42DOPE  H12A 5295   1.678   5.549  13.652 -1.0352  0.3574 -1.5130
   42DOPE  H12B 5296   1.785   5.657  13.749  1.5242 -0.6488 -0.3829
   42DOPE   C11 5297   1.865   5.627  13.549 -0.1524  0.5959 -0.0494
   42DOPE  H11A 5298   1.942   5.560  13.592  0.9383  1.7587 -0.1223
   42DOPE  H11B 5299   1.920   5.724  13.555  0.6641  0.1995 -0.8864
   42DOPE     P 5300   1.824   5.456  13.366 -0.0717  0.1475 -0.3990
   42DOPE   O13 5301   1.960   5.399  13.351 -0.0349  0.8995 -0.5399
   42DOPE   O14 5302   1.716   5.434  13.266  0.3758 -0.1404 -0.0191
   42DOPE   O11 5303   1.765   5.389  13.494 -0.2333 -0.4807 -0.0969
   42DOPE   O12 5304   1.834   5.605  13.413  0.0624  0.1127 -0.6416
   42DOPE    C1 5305   1.760   5.249  13.504  0.1925  0.1677 -0.2262
   42DOPE    HA 5306   1.814   5.193  13.425 -0.1033 -1.8394  0.9265
   42DOPE    HB 5307   1.654   5.225  13.481  0.3441  1.6063 -2.7538
   42DOPE    C2 5308   1.812   5.209  13.644  0.5628  0.8247  0.1841
   42DOPE    HS 5309   1.772   5.108  13.665 -0.8955  1.8878  3.0057
   42DOPE   O21 5310   1.769   5.312  13.747  0.4373 -0.4248  0.4686
   42DOPE   C21 5311   1.662   5.283  13.816 -0.3645  0.7059  0.3600
   42DOPE   O22 5312   1.590   5.186  13.811 -0.1250 -0.7581  0.7564
   42DOPE   C22 5313   1.645   5.390  13.925  0.0689 -0.1713  0.3329
   42DOPE   H2R 5314   1.640   5.491  13.878 -2.2588  1.0335  2.8955
   42DOPE   H2S 5315   1.737   5.383  13.987  1.3624 -1.0634 -1.5973
   42DOPE    C3 5316   1.967   5.203  13.649 -0.3120 -0.0952 -0.2974
   42DOPE    HX 5317   2.003   5.302  13.616 -0.4850  0.4607  1.1239
   42DOPE    HY 5318   1.985   5.127  13.569 -0.2927 -1.5349  1.0236
   42DOPE   O31 5319   2.016   5.144  13.770 -0.1300 -0.3183  0.5384
   42DOPE   C31 5320   2.130   5.197  13.818 -0.0577  0.1610  0.0910
   42DOPE   O32 5321   2.210   5.264  13.762 -0.6212 -0.2172  0.3423
   42DOPE   C32 5322   2.157   5.143  13.961  0.8441 -0.8159  0.2263
   42DOPE   H2X 5323   2.090   5.057  13.984  0.1871 -0.0410  1.3304
   42DOPE   H2Y 5324   2.257   5.103  13.935  0.8603  0.4992 -2.0892
   42DOPE   C23 5325   1.524   5.382  14.013 -0.4009  0.3194  0.1808
   42DOPE   H3R 5326   1.444   5.331  13.956 -0.1867 -1.5075  1.3962
   42DOPE   H3S 5327   1.501   5.486  14.045  2.3501  1.6464 -1.7322
   42DOPE   C24 5328   1.555   5.294  14.134 -0.4898  0.5284 -0.9711
   42DOPE   H4R 5329   1.632   5.341  14.199 -0.2179 -1.2818  0.1088
   42DOPE   H4S 5330   1.596   5.193  14.111 -3.7755 -1.5728  1.3506
   42DOPE   C25 5331   1.434   5.261  14.227 -0.1161  0.0628  0.6923
   42DOPE   H5R 5332   1.377   5.178  14.179 -0.4144  0.7084 -0.0942
   42DOPE   H5S 5333   1.379   5.358  14.236 -0.4119 -0.0524  0.1819
   42DOPE   C26 5334   1.488   5.210  14.365  0.0750 -0.6510 -0.0960
   42DOPE   H6R 5335   1.551   5.289  14.411  1.3156 -0.0527 -2.6331
   42DOPE   H6S 5336   1.563   5.130  14.344  0.3484  0.1790 -2.5928
   42DOPE   C27 5337   1.376   5.165  14.451  0.2861  0.2101 -0.5608
   42DOPE   H7R 5338   1.324   5.088  14.390 -1.9195  0.8713  0.4038
   42DOPE   H7S 5339   1.313   5.250  14.484 -0.9893 -0.7921 -0.3560
   42DOPE   C28 5340   1.416   5.094  14.584  0.5242 -0.3063  0.2370
   42DOPE   H8R 5341   1.457   5.169  14.655 -0.0124  1.7047 -1.5050
   42DOPE   H8S 5342   1.492   5.016  14.563  0.7112  0.2596 -1.3059
   42DOPE   C29 5343   1.303   5.028  14.658 -0.0262  0.4598 -0.5408
   42DOPE   H9R 5344   1.256   4.957  14.589  2.1325 -1.3655 -0.2445
   42DOPE  C210 5345   1.252   5.054  14.782  1.0573 -0.7307 -0.1824
   42DOPE  H10R 5346   1.158   5.003  14.806 -1.5895  2.5975 -2.4263
   42DOPE  C211 5347   1.306   5.146  14.887  0.3075  0.0575 -0.3319
   42DOPE  H11R 5348   1.231   5.197  14.951 -0.4718 -1.0538 -0.3236
   42DOPE  H11S 5349   1.365   5.223  14.833  0.8818 -0.8914 -1.0816
   42DOPE  C212 5350   1.398   5.055  14.979  0.2121  0.2170  0.5131
   42DOPE  H12R 5351   1.485   5.020  14.919 -0.2139  1.6951 -1.0445
   42DOPE  H12S 5352   1.347   4.961  15.009  0.6552 -0.4532 -0.7578
   42DOPE  C213 5353   1.441   5.129  15.104  0.2646  0.5897 -0.4318
   42DOPE  H13R 5354   1.534   5.090  15.151 -0.4422 -0.2545  0.2870
   42DOPE  H13S 5355   1.366   5.124  15.185 -0.3597 -1.8433 -1.0797
   42DOPE  C214 5356   1.462   5.279  15.078  0.2135 -0.4563  0.8151
   42DOPE  H14R 5357   1.371   5.331  15.041 -0.3380 -3.3527 -2.4144
   42DOPE  H14S 5358   1.535   5.292  14.995 -0.4791  2.2781  0.5458
   42DOPE  C215 5359   1.512   5.343  15.205 -0.5257  0.1231 -0.3128
   42DOPE  H15R 5360   1.610   5.303  15.238 -1.0597  0.8367  2.3415
   42DOPE  H15S 5361   1.441   5.331  15.289 -1.6791  0.3975 -1.2323
   42DOPE  C216 5362   1.526   5.492  15.199 -0.0237  0.8064 -0.4859
   42DOPE  H16R 5363   1.425   5.536  15.184 -1.7036 -2.8477 -1.0601
   42DOPE  H16S 5364   1.593   5.534  15.122  2.0146  0.8396  1.2248
   42DOPE  C217 5365   1.571   5.546  15.336 -0.0643 -0.5311  0.9629
   42DOPE  H17R 5366   1.672   5.507  15.360 -1.7113 -3.3084  4.1999
   42DOPE  H17S 5367   1.500   5.512  15.414  0.7093 -1.0841  1.4413
   42DOPE  C218 5368   1.575   5.700  15.337  0.8122 -0.1113  0.2634
   42DOPE  H18R 5369   1.655   5.735  15.269  0.9975 -0.0971  0.4848
   42DOPE  H18S 5370   1.604   5.742  15.436  1.2961  2.0194 -0.7203
   42DOPE  H18T 5371   1.476   5.744  15.314  1.8830  1.4914 -1.5722
   42DOPE   C33 5372   2.190   5.245  14.075  0.3161 -0.1648  0.5956
   42DOPE   H3X 5373   2.274   5.305  14.034 -0.4829  1.2044  0.9055
   42DOPE   H3Y 5374   2.217   5.179  14.161  0.3221  0.6045  1.1910
   42DOPE   C34 5375   2.075   5.351  14.109  0.7179  0.3002 -0.0258
   42DOPE   H4X 5376   2.114   5.436  14.170 -0.1076 -0.0019  0.9697
   42DOPE   H4Y 5377   2.032   5.403  14.021  2.2265  0.9763 -0.3829
   42DOPE   C35 5378   1.958   5.292  14.193 -0.5570 -0.0098  0.2706
   42DOPE   H5X 5379   1.887   5.227  14.138 -3.2873  1.7448  1.4867
   42DOPE   H5Y 5380   1.897   5.375  14.235 -0.4541 -0.0162  0.4342
   42DOPE   C36 5381   1.999   5.208  14.311 -0.6919  0.1739 -0.2992
   42DOPE   H6X 5382   2.088   5.238  14.369 -0.8176 -0.3761  0.1946
   42DOPE   H6Y 5383   2.026   5.108  14.270  0.0058 -0.0977  0.7996
   42DOPE   C37 5384   1.877   5.182  14.405 -0.6443 -0.1044 -0.2782
   42DOPE   H7X 5385   1.780   5.179  14.350 -1.8798 -1.7260  1.8265
   42DOPE   H7Y 5386   1.897   5.083  14.449  1.8740  0.9876  1.2173
   42DOPE   C38 5387   1.862   5.290  14.507 -0.1221 -0.4781  0.1387
   42DOPE   H8X 5388   1.841   5.385  14.454 -1.6895 -0.6741  0.3551
   42DOPE   H8Y 5389   1.965   5.302  14.548  1.2850 -1.4714 -2.8647
   42DOPE   C39 5390   1.761   5.262  14.613  0.2045 -0.3078 -0.8506
   42DOPE   H9X 5391   1.669   5.208  14.587  0.6304 -0.7847 -1.3876
   42DOPE  C310 5392   1.775   5.306  14.740  0.2334  0.5202  0.3015
   42DOPE  H10X 5393   1.702   5.272  14.815 -0.7252  1.9821  0.0561
   42DOPE  C311 5394   1.882   5.403  14.795 -0.1456  0.4206 -0.2883
   42DOPE  H11X 5395   1.916   5.355  14.890 -0.8013  2.1854  0.8800
   42DOPE  H11Y 5396   1.959   5.427  14.718  1.0564 -2.9976 -0.3591
   42DOPE  C312 5397   1.822   5.543  14.835 -0.6519 -0.1254 -0.2811
   42DOPE  H12X 5398   1.738   5.531  14.906 -0.8019  1.0888 -0.2395
   42DOPE  H12Y 5399   1.783   5.597  14.745  0.9837 -0.2848 -1.1244
   42DOPE  C313 5400   1.932   5.635  14.898 -0.2378  0.3940  0.2036
   42DOPE  H13X 5401   1.969   5.577  14.985 -2.8061  0.2551  1.2933
   42DOPE  H13Y 5402   2.013   5.661  14.826  0.0754  1.0130  0.7647
   42DOPE  C314 5403   1.881   5.760  14.963 -0.1554 -0.3820  0.3979
   42DOPE  H14X 5404   1.787   5.732  15.016 -0.0493  0.2739  0.9596
   42DOPE  H14Y 5405   1.858   5.836  14.885  0.3029 -1.2706 -0.6033
   42DOPE  C315 5406   1.972   5.822  15.063 -1.3152 -0.3609 -0.3710
   42DOPE  H15X 5407   1.978   5.932  15.046 -0.1572 -0.3397  0.0671
   42DOPE  H15Y 5408   2.076   5.782  15.057 -1.0301  0.2917  0.0229
   42DOPE  C316 5409   1.928   5.806  15.208  0.4723 -0.3657  0.0495
   42DOPE  H16X 5410   1.913   5.698  15.229  1.5269 -0.6486 -0.5542
   42DOPE  H16Y 5411   1.834   5.860  15.229 -1.2986 -1.8252 -3.4135
   42DOPE  C317 5412   2.030   5.855  15.312 -0.3406 -0.0195 -0.0128
   42DOPE  H17X 5413   2.128   5.816  15.277 -1.6833 -1.7366 -2.0959
   42DOPE  H17Y 5414   2.042   5.966  15.309  0.0189 -0.0067  1.3559
   42DOPE  C318 5415   2.002   5.815  15.456  0.6855 -0.2334  0.3813
   42DOPE  H18X 5416   1.988   5.705  15.458  1.4928 -0.3405  1.8155
   42DOPE  H18Y 5417   2.093   5.839  15.516  0.5241 -0.0093  0.5387
   42DOPE  H18Z 5418   1.912   5.869  15.494 -0.6991 -1.2287 -1.3662
   43DOPE     N 5419   1.950   3.234  13.360 -0.0436 -0.1919 -0.3628
   43DOPE   HN1 5420   2.050   3.229  13.388  0.2760  0.2095 -1.3917
   43DOPE   HN2 5421   1.894   3.270  13.440  0.4275  0.4403 -0.3136
   43DOPE   HN3 5422   1.915   3.137  13.350  1.6998 -0.8441 -0.4630
   43DOPE   C12 5423   1.945   3.315  13.234  0.0623 -0.5316  0.5382
   43DOPE  H12A 5424   1.998   3.258  13.155 -1.2720 -1.4039  0.2195
   43DOPE  H12B 5425   2.000   3.408  13.257 -0.7274  0.6396 -1.9398
   43DOPE   C11 5426   1.808   3.369  13.206  0.5345 -0.1215 -0.1636
   43DOPE  H11A 5427   1.735   3.289  13.182  0.1522  0.5453 -1.3287
   43DOPE  H11B 5428   1.805   3.439  13.119 -0.6710 -0.4440 -0.4025
   43DOPE     P 5429   1.649   3.390  13.418 -0.0041 -0.4977 -0.0772
   43DOPE   O13 5430   1.703   3.266  13.476 -0.3088 -0.2391 -0.6239
   43DOPE   O14 5431   1.522   3.387  13.341  0.3432 -0.0542  0.3206
   43DOPE   O11 5432   1.645   3.517  13.518  0.5496  0.1848  0.0639
   43DOPE   O12 5433   1.761   3.447  13.321 -0.3166  0.0555  0.0820
   43DOPE    C1 5434   1.744   3.536  13.620 -0.2594 -0.5277  0.1809
   43DOPE    HA 5435   1.735   3.645  13.637 -1.6921 -0.6397  0.2757
   43DOPE    HB 5436   1.845   3.509  13.582 -0.8273 -0.8552 -1.1283
   43DOPE    C2 5437   1.720   3.465  13.753  0.3197 -0.1214 -0.1535
   43DOPE    HS 5438   1.778   3.506  13.839 -1.5511 -2.6605  2.5467
   43DOPE   O21 5439   1.736   3.316  13.750 -0.1207 -0.7237 -0.3692
   43DOPE   C21 5440   1.854   3.268  13.752  0.0196  0.7091 -0.1379
   43DOPE   O22 5441   1.958   3.326  13.771 -1.0140  0.0313 -0.1110
   43DOPE   C22 5442   1.854   3.120  13.726  0.3872 -0.2209  0.9886
   43DOPE   H2R 5443   1.948   3.107  13.667 -0.7497 -0.7160 -0.7916
   43DOPE   H2S 5444   1.771   3.084  13.662  0.5182 -1.9111  1.7159
   43DOPE    C3 5445   1.573   3.492  13.791 -0.0489 -0.1754  0.1056
   43DOPE    HX 5446   1.510   3.440  13.715  0.0346  0.4419 -0.3912
   43DOPE    HY 5447   1.552   3.601  13.790 -1.8139 -0.3772  2.9716
   43DOPE   O31 5448   1.543   3.442  13.920  0.3188  0.1455 -0.8716
   43DOPE   C31 5449   1.433   3.476  13.976  0.7131 -0.1322 -0.3967
   43DOPE   O32 5450   1.346   3.546  13.923  0.1770 -0.2035  0.9854
   43DOPE   C32 5451   1.440   3.426  14.115  0.6740 -0.0556  0.0874
   43DOPE   H2X 5452   1.543   3.411  14.154  0.3768 -0.5011  0.7297
   43DOPE   H2Y 5453   1.407   3.505  14.186 -0.2639 -0.7729  0.4637
   43DOPE   C23 5454   1.868   3.056  13.863 -0.1430  0.6517  0.3816
   43DOPE   H3R 5455   1.960   3.077  13.922 -2.4145  3.2989  3.2646
   43DOPE   H3S 5456   1.866   2.951  13.827  0.9456  0.7530 -0.0065
   43DOPE   C24 5457   1.744   3.070  13.951 -0.3820  0.4878  0.0370
   43DOPE   H4R 5458   1.661   3.075  13.877 -1.5572 -1.5324  1.1470
   43DOPE   H4S 5459   1.751   3.160  14.017  1.6463  1.8546 -1.8880
   43DOPE   C25 5460   1.703   2.943  14.029 -0.1570 -0.4677 -0.5844
   43DOPE   H5R 5461   1.786   2.877  14.060 -2.2800 -2.0965  2.0029
   43DOPE   H5S 5462   1.635   2.879  13.970 -0.1552 -0.2144 -0.8654
   43DOPE   C26 5463   1.608   2.984  14.147 -0.3204  0.4861 -0.7452
   43DOPE   H6R 5464   1.506   3.010  14.113 -0.5804 -1.8141 -1.8957
   43DOPE   H6S 5465   1.662   3.070  14.191 -0.6205 -0.0617  0.7475
   43DOPE   C27 5466   1.599   2.869  14.252 -0.8074 -0.4032  0.1852
   43DOPE   H7R 5467   1.702   2.864  14.292 -0.7683  0.8830  0.3081
   43DOPE   H7S 5468   1.572   2.775  14.201  0.4244 -0.6085 -0.1200
   43DOPE   C28 5469   1.505   2.883  14.368  0.0687  0.1311 -0.1120
   43DOPE   H8R 5470   1.525   2.982  14.414 -1.1065  1.3626 -2.0890
   43DOPE   H8S 5471   1.533   2.797  14.432  0.1824 -0.7984 -1.3685
   43DOPE   C29 5472   1.360   2.879  14.331  0.5135 -0.6376  0.3686
   43DOPE   H9R 5473   1.332   2.894  14.226  1.2308  1.4872  0.4434
   43DOPE  C210 5474   1.267   2.882  14.425 -0.2723  0.0912 -0.4219
   43DOPE  H10R 5475   1.163   2.866  14.392 -1.0992  1.5422  1.3402
   43DOPE  C211 5476   1.282   2.870  14.581 -0.5478  0.5308  0.4736
   43DOPE  H11R 5477   1.281   2.975  14.618  0.6610  1.6388 -2.2819
   43DOPE  H11S 5478   1.379   2.823  14.605 -0.8134  0.6922  1.9634
   43DOPE  C212 5479   1.163   2.785  14.634  0.7806 -0.1500 -0.1172
   43DOPE  H12R 5480   1.180   2.773  14.743 -1.3431 -0.1129  0.2552
   43DOPE  H12S 5481   1.158   2.681  14.594  0.7149 -0.0617 -0.3392
   43DOPE  C213 5482   1.025   2.855  14.628 -0.7620  0.7112 -0.3259
   43DOPE  H13R 5483   0.989   2.846  14.524 -1.4363  3.1240 -0.3716
   43DOPE  H13S 5484   1.036   2.965  14.628  1.7020  0.5647 -2.9519
   43DOPE  C214 5485   0.916   2.797  14.723 -0.8227  0.8389  0.3819
   43DOPE  H14R 5486   0.961   2.813  14.823  1.1101  1.6790 -0.5847
   43DOPE  H14S 5487   0.914   2.686  14.714  1.3882  0.7801  0.2579
   43DOPE  C215 5488   0.772   2.862  14.720 -2.0872 -0.3977  0.0091
   43DOPE  H15R 5489   0.748   2.861  14.611 -0.8258 -0.3191 -0.2865
   43DOPE  H15S 5490   0.778   2.968  14.751 -0.4807 -0.8605  1.3993
   43DOPE  C216 5491   0.677   2.783  14.824 -0.5659 -0.1615  0.1558
   43DOPE  H16R 5492   0.647   2.685  14.781  0.6414 -0.5240  0.0952
   43DOPE  H16S 5493   0.581   2.837  14.833 -1.8021 -2.3738  1.3253
   43DOPE  C217 5494   0.734   2.752  14.966  0.0704  0.1540  0.2264
   43DOPE  H17R 5495   0.824   2.690  14.949 -1.7539 -3.0404  1.2937
   43DOPE  H17S 5496   0.660   2.691  15.023  0.9586 -0.1328  1.0937
   43DOPE  C218 5497   0.773   2.875  15.046 -0.1064 -1.3924 -0.4830
   43DOPE  H18R 5498   0.851   2.939  15.000 -0.1436 -1.3172 -0.4423
   43DOPE  H18S 5499   0.819   2.839  15.141 -0.8594  1.8991  1.2964
   43DOPE  H18T 5500   0.694   2.940  15.089  0.0964 -1.2947 -0.2486
   43DOPE   C33 5501   1.355   3.293  14.135 -0.4245  0.8465  0.8920
   43DOPE   H3X 5502   1.402   3.210  14.078 -4.0763 -0.5093 -0.4575
   43DOPE   H3Y 5503   1.255   3.306  14.087 -0.3174  0.8723  0.6715
   43DOPE   C34 5504   1.319   3.261  14.277  0.4560  0.7661 -0.1469
   43DOPE   H4X 5505   1.273   3.161  14.291 -2.0039  1.9639  0.8804
   43DOPE   H4Y 5506   1.407   3.260  14.344  0.6806  1.8473 -0.4054
   43DOPE   C35 5507   1.219   3.369  14.334 -0.3922  0.2835  0.4015
   43DOPE   H5X 5508   1.130   3.371  14.267  1.6935 -1.8937 -2.6856
   43DOPE   H5Y 5509   1.273   3.466  14.336  0.2457 -0.0719  1.0316
   43DOPE   C36 5510   1.170   3.357  14.478 -0.2686 -0.1430 -0.1650
   43DOPE   H6X 5511   1.140   3.460  14.505 -0.2453  0.5858 -2.6840
   43DOPE   H6Y 5512   1.261   3.336  14.538  0.4770  1.1173 -0.8155
   43DOPE   C37 5513   1.053   3.260  14.510  0.2704  0.0158  0.4087
   43DOPE   H7X 5514   0.969   3.272  14.438  0.4076 -1.2426  0.0214
   43DOPE   H7Y 5515   1.088   3.156  14.494 -0.1572 -0.1778  0.7002
   43DOPE   C38 5516   1.006   3.279  14.652 -0.5970  0.0114  1.0578
   43DOPE   H8X 5517   0.918   3.212  14.661 -0.1213 -0.4872  2.2732
   43DOPE   H8Y 5518   0.970   3.384  14.651  1.4598  0.7542  0.0557
   43DOPE   C39 5519   1.118   3.250  14.754  0.6715  0.3472 -0.2198
   43DOPE   H9X 5520   1.173   3.158  14.728 -1.7659 -1.1312 -0.5653
   43DOPE  C310 5521   1.157   3.330  14.857  0.0023  0.1564 -0.0958
   43DOPE  H10X 5522   1.225   3.285  14.930  1.8736  1.5723 -0.8925
   43DOPE  C311 5523   1.114   3.477  14.878 -0.4892 -0.3904 -0.8148
   43DOPE  H11X 5524   1.202   3.531  14.920 -0.7000 -1.7900  1.6316
   43DOPE  H11Y 5525   1.079   3.511  14.779 -0.4793 -1.3374 -1.1540
   43DOPE  C312 5526   0.992   3.489  14.973  0.1235 -0.0863  0.3968
   43DOPE  H12X 5527   0.959   3.595  14.986 -0.2917  0.0635 -1.4999
   43DOPE  H12Y 5528   1.023   3.453  15.073  0.5505  2.9678  1.4587
   43DOPE  C313 5529   0.868   3.412  14.918  0.4811  0.1541 -0.7277
   43DOPE  H13X 5530   0.838   3.447  14.817 -2.9489  0.7329  0.3822
   43DOPE  H13Y 5531   0.900   3.309  14.889 -0.4892  0.2369 -2.2113
   43DOPE  C314 5532   0.751   3.398  15.012  0.3506 -0.0486  0.1836
   43DOPE  H14X 5533   0.693   3.319  14.960  0.8434 -0.8597  0.8403
   43DOPE  H14Y 5534   0.705   3.499  15.021 -0.5269 -0.1365 -2.4730
   43DOPE  C315 5535   0.783   3.352  15.153 -0.4849  0.3432  0.0358
   43DOPE  H15X 5536   0.850   3.418  15.213  0.6281 -1.2020  0.5735
   43DOPE  H15Y 5537   0.837   3.255  15.145 -1.5706 -0.1673 -1.5024
   43DOPE  C316 5538   0.653   3.352  15.233  0.2006  0.4905  0.1825
   43DOPE  H16X 5539   0.572   3.303  15.175  0.0718  0.5501  0.3121
   43DOPE  H16Y 5540   0.613   3.455  15.241  1.4325  1.1132 -1.2660
   43DOPE  C317 5541   0.663   3.300  15.382 -0.2146 -0.3125 -0.8027
   43DOPE  H17X 5542   0.718   3.203  15.376 -1.4822 -1.0412 -1.0508
   43DOPE  H17Y 5543   0.718   3.379  15.437 -2.0110  0.8516 -0.5900
   43DOPE  C318 5544   0.527   3.287  15.451 -0.0348 -1.1180 -0.3207
   43DOPE  H18X 5545   0.488   3.391  15.454  2.3452 -0.1682  0.1068
   43DOPE  H18Y 5546   0.466   3.219  15.388 -0.6519 -0.9779  0.1231
   43DOPE  H18Z 5547   0.528   3.247  15.554  0.6637 -1.3666 -0.4200
   44DOPE     N 5548   3.015   3.588  13.256 -0.2523  0.5497 -0.3033
   44DOPE   HN1 5549   2.918   3.578  13.220 -0.8544 -1.0795  1.5902
   44DOPE   HN2 5550   3.043   3.677  13.301  4.1005 -1.1819  0.9389
   44DOPE   HN3 5551   3.075   3.594  13.171  0.8517  0.3952  0.4522
   44DOPE   C12 5552   3.068   3.470  13.323 -0.1155  0.0684 -0.2641
   44DOPE  H12A 5553   3.021   3.457  13.422 -0.2040  5.1829  0.6617
   44DOPE  H12B 5554   3.177   3.482  13.345  0.3785 -1.0132 -1.9199
   44DOPE   C11 5555   3.059   3.347  13.233 -0.4615 -0.0798  0.7262
   44DOPE  H11A 5556   3.115   3.266  13.283 -0.6132 -1.2212 -0.8933
   44DOPE  H11B 5557   3.107   3.364  13.134 -0.5779 -3.3461  0.0101
   44DOPE     P 5558   2.825   3.247  13.295  0.1668 -0.3356  0.0594
   44DOPE   O13 5559   2.806   3.110  13.251 -0.0650 -0.3093 -0.6629
   44DOPE   O14 5560   2.700   3.321  13.311 -0.2495  0.1487  0.6504
   44DOPE   O11 5561   2.910   3.255  13.429  0.4939 -0.0650  0.0089
   44DOPE   O12 5562   2.922   3.316  13.192  0.3684 -0.1539 -0.2336
   44DOPE    C1 5563   2.905   3.146  13.517 -0.2430 -0.1191 -0.5543
   44DOPE    HA 5564   2.978   3.072  13.478 -0.3787 -0.1744 -0.7059
   44DOPE    HB 5565   2.805   3.100  13.529 -0.0467 -0.8265 -1.5248
   44DOPE    C2 5566   2.952   3.204  13.660  0.4486 -0.5320 -0.4072
   44DOPE    HS 5567   3.063   3.209  13.662  0.4915 -1.3753 -0.0149
   44DOPE   O21 5568   2.899   3.119  13.765  0.0849  0.0902 -0.0067
   44DOPE   C21 5569   2.981   3.013  13.781 -0.3005 -0.3675  0.3031
   44DOPE   O22 5570   3.097   3.009  13.743 -0.4055  0.5829  0.3823
   44DOPE   C22 5571   2.922   2.934  13.892 -0.6106 -0.0166 -0.4085
   44DOPE   H2R 5572   2.824   2.903  13.849 -1.5042 -0.0593  1.5616
   44DOPE   H2S 5573   2.894   2.990  13.984  1.0701 -0.6158  0.5097
   44DOPE    C3 5574   2.892   3.353  13.689  0.9161  0.0045 -0.3278
   44DOPE    HX 5575   2.782   3.358  13.689  0.9489  0.8723  0.5674
   44DOPE    HY 5576   2.920   3.416  13.601 -0.2279  1.7285  0.4977
   44DOPE   O31 5577   2.945   3.403  13.822  0.2028 -0.8507 -0.3048
   44DOPE   C31 5578   3.051   3.481  13.810  0.3645 -0.3944  0.1579
   44DOPE   O32 5579   3.111   3.501  13.705 -0.8062 -0.2460  0.3020
   44DOPE   C32 5580   3.097   3.527  13.951 -0.6472  0.2085  0.4127
   44DOPE   H2X 5581   3.181   3.597  13.932  0.2871 -1.0707 -0.3011
   44DOPE   H2Y 5582   3.011   3.580  13.997 -0.5198  0.8671 -0.0845
   44DOPE   C23 5583   3.013   2.807  13.934  0.5122 -0.0804  0.2072
   44DOPE   H3R 5584   3.108   2.855  13.965  1.0537 -0.8484 -0.2206
   44DOPE   H3S 5585   3.035   2.750  13.841 -2.5577  1.8383 -1.9116
   44DOPE   C24 5586   2.948   2.711  14.027 -0.5804  0.7232 -0.2634
   44DOPE   H4R 5587   2.860   2.672  13.971  0.9352  0.7693 -2.8456
   44DOPE   H4S 5588   2.900   2.763  14.113 -1.7869 -2.1862  0.9693
   44DOPE   C25 5589   3.034   2.590  14.071  0.0850 -0.0443 -0.0464
   44DOPE   H5R 5590   2.969   2.528  14.136 -2.7824  0.6240 -2.1126
   44DOPE   H5S 5591   3.127   2.631  14.118 -0.5109  1.4106 -0.1015
   44DOPE   C26 5592   3.069   2.505  13.950  0.2390 -0.3569  0.3954
   44DOPE   H6R 5593   3.148   2.554  13.889 -1.3228 -0.0628 -1.4863
   44DOPE   H6S 5594   2.983   2.486  13.882  0.0587  0.4888  0.3737
   44DOPE   C27 5595   3.125   2.362  13.972 -0.2997  0.4339 -0.7031
   44DOPE   H7R 5596   3.189   2.366  14.063 -1.2069 -0.6360 -0.0014
   44DOPE   H7S 5597   3.178   2.328  13.881 -0.9633 -0.0615 -0.9115
   44DOPE   C28 5598   3.015   2.251  14.002 -0.4400 -0.9233  0.1692
   44DOPE   H8R 5599   2.937   2.246  13.924 -2.5577 -0.9537  2.1877
   44DOPE   H8S 5600   2.976   2.290  14.098  0.5513  0.9410 -0.1390
   44DOPE   C29 5601   3.080   2.117  14.024  0.2054 -0.0682 -0.4512
   44DOPE   H9R 5602   3.145   2.090  13.940  2.0947  0.2791  0.8331
   44DOPE  C210 5603   3.083   2.038  14.130 -0.2149  0.1684 -1.1046
   44DOPE  H10R 5604   3.142   1.946  14.121  1.2100  1.1726 -2.6881
   44DOPE  C211 5605   3.018   2.072  14.264  0.7029 -0.1344  0.1167
   44DOPE  H11R 5606   3.000   1.978  14.320 -2.0806  1.6438  2.5059
   44DOPE  H11S 5607   2.919   2.120  14.254  1.3203  1.2237  0.3462
   44DOPE  C212 5608   3.117   2.162  14.331 -0.1475 -0.1473  0.0584
   44DOPE  H12R 5609   3.133   2.251  14.267  0.4123  0.3454  0.8610
   44DOPE  H12S 5610   3.215   2.113  14.347  0.3168 -0.4263 -3.0332
   44DOPE  C213 5611   3.068   2.211  14.472 -0.6652 -1.0336  0.2683
   44DOPE  H13R 5612   3.131   2.296  14.507  0.6549 -1.3421 -1.2688
   44DOPE  H13S 5613   3.084   2.134  14.550  1.2942 -0.0240  0.9327
   44DOPE  C214 5614   2.919   2.245  14.487  0.7720 -0.1398 -0.9113
   44DOPE  H14R 5615   2.859   2.152  14.484  1.5349 -0.6151 -2.1969
   44DOPE  H14S 5616   2.875   2.317  14.415  0.2818 -0.1428 -0.6177
   44DOPE  C215 5617   2.900   2.282  14.636  0.5690  0.0375 -0.0010
   44DOPE  H15R 5618   2.932   2.198  14.701 -1.2701  0.2782  1.2961
   44DOPE  H15S 5619   2.790   2.285  14.653  0.6663 -2.0041  1.2993
   44DOPE  C216 5620   2.952   2.415  14.696  0.3645  0.7423  0.2822
   44DOPE  H16R 5621   2.897   2.498  14.646 -1.4476 -1.0134 -0.8348
   44DOPE  H16S 5622   3.060   2.424  14.672  1.0519  1.9636  3.3554
   44DOPE  C217 5623   2.936   2.422  14.846 -0.2928 -0.8648 -0.9919
   44DOPE  H17R 5624   2.975   2.334  14.902 -0.5639 -0.4122 -0.0737
   44DOPE  H17S 5625   2.827   2.410  14.863  0.0014  0.0026  2.3771
   44DOPE  C218 5626   2.996   2.550  14.912 -0.3305 -0.1704 -0.3687
   44DOPE  H18R 5627   2.968   2.556  15.019 -0.9572 -0.6852 -0.4961
   44DOPE  H18S 5628   2.946   2.637  14.863 -0.6894 -0.9809 -1.4749
   44DOPE  H18T 5629   3.105   2.554  14.892  0.3596 -2.1490  2.4796
   44DOPE   C33 5630   3.144   3.420  14.050 -0.2840 -0.2072  0.0105
   44DOPE   H3X 5631   3.202   3.474  14.128 -1.2540  0.1643  0.4913
   44DOPE   H3Y 5632   3.216   3.353  13.999  0.9188  0.6003  0.6027
   44DOPE   C34 5633   3.023   3.342  14.105  0.5508 -0.2583  0.5625
   44DOPE   H4X 5634   2.935   3.406  14.130  0.6140  0.1193 -0.1517
   44DOPE   H4Y 5635   2.975   3.274  14.032 -1.3382  0.3215  1.1909
   44DOPE   C35 5636   3.061   3.258  14.224  0.7094 -0.5661 -0.1945
   44DOPE   H5X 5637   3.101   3.327  14.301  0.9173 -1.1533  0.2319
   44DOPE   H5Y 5638   3.140   3.183  14.201  0.3039 -1.2771  0.6631
   44DOPE   C36 5639   2.945   3.169  14.278 -0.7618  0.6072  0.0829
   44DOPE   H6X 5640   2.866   3.148  14.203  0.5723  0.5944 -1.3857
   44DOPE   H6Y 5641   2.913   3.218  14.372  0.0325  0.8375  0.2434
   44DOPE   C37 5642   2.998   3.028  14.329 -0.7200 -0.2538 -0.6146
   44DOPE   H7X 5643   3.046   2.966  14.250  0.9817  0.5056 -0.2355
   44DOPE   H7Y 5644   3.074   3.055  14.405 -0.8400 -0.1575 -0.5310
   44DOPE   C38 5645   2.882   2.943  14.389 -0.5373  0.5949 -0.6060
   44DOPE   H8X 5646   2.806   2.934  14.309 -0.4697 -0.4357 -0.5633
   44DOPE   H8Y 5647   2.828   2.987  14.475  0.0739  0.6349 -0.2339
   44DOPE   C39 5648   2.936   2.810  14.434 -1.0217 -0.6585 -0.0268
   44DOPE   H9X 5649   2.953   2.730  14.361  0.8577 -1.2250  0.9706
   44DOPE  C310 5650   2.978   2.782  14.560  0.8088 -0.3852 -0.2441
   44DOPE  H10X 5651   3.017   2.682  14.584 -0.3509 -0.4900  1.3921
   44DOPE  C311 5652   2.977   2.861  14.693  0.6742 -0.0390  0.4171
   44DOPE  H11X 5653   2.940   2.965  14.684  0.5337 -0.2341 -1.6454
   44DOPE  H11Y 5654   2.900   2.812  14.757 -1.9993 -3.0384 -4.4247
   44DOPE  C312 5655   3.110   2.853  14.775  0.8875 -0.3090 -0.2784
   44DOPE  H12X 5656   3.182   2.911  14.713 -0.8969  0.2669 -1.9328
   44DOPE  H12Y 5657   3.138   2.747  14.790  0.6829 -0.5115 -1.2675
   44DOPE  C313 5658   3.095   2.923  14.910 -0.3552  0.2053  0.0643
   44DOPE  H13X 5659   3.086   3.030  14.883  1.8365  0.5611  0.5940
   44DOPE  H13Y 5660   3.000   2.898  14.963 -0.2004 -1.9757 -0.5802
   44DOPE  C314 5661   3.214   2.899  14.997 -0.2819  0.4261 -0.6063
   44DOPE  H14X 5662   3.309   2.940  14.955  0.1283  1.0015  0.8379
   44DOPE  H14Y 5663   3.234   2.790  14.983  0.0279  0.2725  0.9341
   44DOPE  C315 5664   3.214   2.949  15.139  0.8214 -0.5819  0.0172
   44DOPE  H15X 5665   3.140   2.886  15.193 -1.3566  1.0640 -0.8776
   44DOPE  H15Y 5666   3.178   3.051  15.164 -0.1433 -0.7399 -0.6373
   44DOPE  C316 5667   3.353   2.926  15.195 -0.3886  0.2586  0.5958
   44DOPE  H16X 5668   3.418   2.970  15.117 -0.0852 -4.1095 -1.9438
   44DOPE  H16Y 5669   3.387   2.821  15.199 -2.3792 -0.4308  0.6560
   44DOPE  C317 5670   3.388   2.984  15.332 -0.5707 -0.5034 -0.1385
   44DOPE  H17X 5671   3.366   3.093  15.326  0.9619 -0.0241  1.7586
   44DOPE  H17Y 5672   3.325   2.934  15.410  2.1801 -1.5376  1.5592
   44DOPE  C318 5673   3.540   2.977  15.372 -0.1576 -0.2474  0.1572
   44DOPE  H18X 5674   3.601   3.009  15.285  1.5480 -2.4082  0.4712
   44DOPE  H18Y 5675   3.571   3.023  15.468 -0.3859  0.9181 -0.3080
   44DOPE  H18Z 5676   3.567   2.870  15.373 -0.5668 -0.4209 -1.9588
   45DOPE     N 5677   3.463   1.367  13.028 -0.0745 -0.4297  0.0918
   45DOPE   HN1 5678   3.395   1.288  13.019 -0.1984 -0.4234  0.9017
   45DOPE   HN2 5679   3.445   1.402  13.124  1.5747  0.5353  0.0857
   45DOPE   HN3 5680   3.460   1.450  12.966  0.8099  0.7863  1.6023
   45DOPE   C12 5681   3.605   1.324  13.035 -0.3817 -0.9340 -0.3649
   45DOPE  H12A 5682   3.667   1.417  13.040  1.5448 -2.1578 -0.3800
   45DOPE  H12B 5683   3.631   1.278  12.938  1.0707 -0.0591 -0.4306
   45DOPE   C11 5684   3.624   1.241  13.157  0.2430 -0.2514  0.3931
   45DOPE  H11A 5685   3.733   1.222  13.162  0.3070 -0.4688 -1.2670
   45DOPE  H11B 5686   3.573   1.145  13.135  0.3123 -0.9133  2.7776
   45DOPE     P 5687   3.527   1.199  13.395 -0.1258  0.0715  0.1545
   45DOPE   O13 5688   3.653   1.157  13.451  0.2473  0.5967 -0.1090
   45DOPE   O14 5689   3.437   1.093  13.346  0.1598 -0.2730  0.6256
   45DOPE   O11 5690   3.453   1.282  13.508 -0.2510  0.3745  0.1352
   45DOPE   O12 5691   3.571   1.304  13.279  0.2576  0.6559  0.5704
   45DOPE    C1 5692   3.312   1.264  13.543  0.2205 -0.0234  0.1888
   45DOPE    HA 5693   3.270   1.163  13.523 -0.3962  0.3228 -0.2891
   45DOPE    HB 5694   3.249   1.338  13.490 -0.2468 -0.8221 -0.4125
   45DOPE    C2 5695   3.302   1.294  13.697  0.3570 -0.2590  0.9302
   45DOPE    HS 5696   3.323   1.401  13.717 -2.2521  0.4944 -0.0413
   45DOPE   O21 5697   3.390   1.202  13.756  0.8696 -0.4119 -0.1652
   45DOPE   C21 5698   3.505   1.250  13.800 -0.8710  0.1397 -0.4337
   45DOPE   O22 5699   3.537   1.369  13.804 -0.2444 -0.7167 -0.0260
   45DOPE   C22 5700   3.593   1.135  13.846  0.1540  0.6796  0.5805
   45DOPE   H2R 5701   3.653   1.116  13.754 -1.4926 -3.6638  0.1779
   45DOPE   H2S 5702   3.542   1.042  13.878  2.2758 -0.5233  0.7063
   45DOPE    C3 5703   3.155   1.265  13.744 -0.0335 -0.3273  0.5158
   45DOPE    HX 5704   3.138   1.156  13.726  2.1739 -0.5428 -0.6578
   45DOPE    HY 5705   3.088   1.320  13.673  0.7770 -1.1539 -0.9413
   45DOPE   O31 5706   3.138   1.307  13.881 -0.2122 -0.3031 -0.4963
   45DOPE   C31 5707   3.151   1.216  13.970 -0.4405 -0.4729  0.1805
   45DOPE   O32 5708   3.162   1.095  13.959  0.2586  0.1690 -0.4680
   45DOPE   C32 5709   3.145   1.297  14.102  1.0695  0.0960  0.2756
   45DOPE   H2X 5710   3.210   1.386  14.091  0.8110  0.1143 -1.2595
   45DOPE   H2Y 5711   3.042   1.325  14.133  1.2636 -0.7123  1.7466
   45DOPE   C23 5712   3.680   1.178  13.969  0.2757  0.4126 -0.4328
   45DOPE   H3R 5713   3.737   1.270  13.942 -0.8406  0.2539 -3.8836
   45DOPE   H3S 5714   3.759   1.101  13.984 -0.5662 -0.2686  0.5882
   45DOPE   C24 5715   3.585   1.195  14.086 -0.1987 -0.0655 -0.1522
   45DOPE   H4R 5716   3.535   1.098  14.109 -3.7126  1.3982 -1.0035
   45DOPE   H4S 5717   3.506   1.270  14.065  1.2309  1.1872 -1.2414
   45DOPE   C25 5718   3.651   1.236  14.219  0.5767 -0.0836 -0.5384
   45DOPE   H5R 5719   3.713   1.325  14.194  0.2731  0.0312 -0.8898
   45DOPE   H5S 5720   3.727   1.162  14.251 -0.4858 -0.7693  0.4518
   45DOPE   C26 5721   3.559   1.251  14.339  0.2380  0.1897  0.4034
   45DOPE   H6R 5722   3.516   1.155  14.373 -0.5110  0.5636  0.5515
   45DOPE   H6S 5723   3.465   1.299  14.303  0.2203 -0.6009 -0.6387
   45DOPE   C27 5724   3.623   1.336  14.452 -0.2900 -0.5238  0.0919
   45DOPE   H7R 5725   3.546   1.328  14.532  0.0809 -0.6003  0.4483
   45DOPE   H7S 5726   3.623   1.443  14.422  1.3984  0.2451  2.4870
   45DOPE   C28 5727   3.766   1.284  14.505  0.5824 -0.1111  0.6085
   45DOPE   H8R 5728   3.824   1.246  14.419 -0.1123  1.3838 -0.5578
   45DOPE   H8S 5729   3.739   1.197  14.569 -0.5219  0.3765  0.8331
   45DOPE   C29 5730   3.833   1.382  14.597  0.2247  0.3061  0.4740
   45DOPE   H9R 5731   3.790   1.380  14.698  0.7361  1.3706  0.7220
   45DOPE  C210 5732   3.933   1.468  14.572  0.1748 -0.6112  0.0467
   45DOPE  H10R 5733   3.958   1.537  14.654  1.5204 -0.1114 -0.7674
   45DOPE  C211 5734   3.998   1.484  14.440 -0.6822  0.2346  0.4594
   45DOPE  H11R 5735   3.987   1.395  14.376  0.0195 -0.5017  1.3306
   45DOPE  H11S 5736   4.106   1.502  14.455 -0.1392 -1.2648 -1.4021
   45DOPE  C212 5737   3.930   1.603  14.381  0.0606 -1.0875 -0.1592
   45DOPE  H12R 5738   3.930   1.689  14.451 -1.1496  1.1145 -2.7196
   45DOPE  H12S 5739   3.824   1.571  14.370  0.5593 -2.6929 -0.6375
   45DOPE  C213 5740   3.978   1.644  14.244 -0.6605 -0.6374  0.6809
   45DOPE  H13R 5741   3.976   1.560  14.171 -0.5672  0.7904 -1.0231
   45DOPE  H13S 5742   4.083   1.677  14.255 -0.2152 -0.5861 -2.5584
   45DOPE  C214 5743   3.887   1.759  14.191 -0.0659  0.2183  0.1950
   45DOPE  H14R 5744   3.891   1.853  14.250 -4.3890  1.1132 -0.6758
   45DOPE  H14S 5745   3.784   1.720  14.202  0.3291 -0.3501  2.3992
   45DOPE  C215 5746   3.902   1.786  14.040  0.0229 -0.5550  0.1889
   45DOPE  H15R 5747   4.007   1.816  14.020  0.0005  0.1133  1.0392
   45DOPE  H15S 5748   3.837   1.864  13.995  0.6343  0.0653  0.3629
   45DOPE  C216 5749   3.852   1.658  13.958  1.0489 -0.0474 -0.1146
   45DOPE  H16R 5750   3.745   1.636  13.978  0.2681  1.9023 -1.7428
   45DOPE  H16S 5751   3.920   1.571  13.967 -0.1204 -0.8275  1.9400
   45DOPE  C217 5752   3.839   1.692  13.806 -0.5442 -0.0703  0.5972
   45DOPE  H17R 5753   3.907   1.778  13.787  0.6622 -0.6853  1.8822
   45DOPE  H17S 5754   3.742   1.741  13.786  0.3836  1.7364  0.2823
   45DOPE  C218 5755   3.869   1.569  13.716  0.1093 -0.1242  0.0896
   45DOPE  H18R 5756   3.975   1.555  13.687  0.1545  0.3204  0.0251
   45DOPE  H18S 5757   3.813   1.577  13.620 -0.9322  2.8369  0.8374
   45DOPE  H18T 5758   3.820   1.482  13.765  0.0217 -0.8094 -1.1790
   45DOPE   C33 5759   3.191   1.219  14.226 -0.2353 -0.2903  0.7331
   45DOPE   H3X 5760   3.217   1.280  14.315  0.2847  2.2151 -1.0202
   45DOPE   H3Y 5761   3.288   1.174  14.196  0.2050  0.3800  1.1202
   45DOPE   C34 5762   3.083   1.115  14.263 -0.7746  0.3321 -0.3079
   45DOPE   H4X 5763   2.998   1.162  14.315 -0.4038 -0.7691  1.3848
   45DOPE   H4Y 5764   3.037   1.060  14.179 -1.8551 -0.2167  0.6169
   45DOPE   C35 5765   3.150   1.006  14.354  0.8724  0.0354 -0.5541
   45DOPE   H5X 5766   3.223   0.955  14.287  0.0177 -1.3324 -0.4782
   45DOPE   H5Y 5767   3.063   0.949  14.393  0.6298  0.4465 -0.4982
   45DOPE   C36 5768   3.222   1.059  14.486  0.5028 -0.2353  0.6781
   45DOPE   H6X 5769   3.292   1.140  14.456  0.8295 -0.4791  0.7682
   45DOPE   H6Y 5770   3.270   0.972  14.536  0.2663 -0.2978  0.7963
   45DOPE   C37 5771   3.125   1.123  14.583  0.2281  0.4857 -0.4604
   45DOPE   H7X 5772   3.071   1.210  14.541  0.5725  1.9219  1.9191
   45DOPE   H7Y 5773   3.054   1.040  14.605  0.4679  1.0737  3.0341
   45DOPE   C38 5774   3.195   1.175  14.714  0.1408 -0.6119 -0.7872
   45DOPE   H8X 5775   3.113   1.228  14.767  1.0234  0.6927 -0.6918
   45DOPE   H8Y 5776   3.275   1.248  14.691 -0.2339 -0.4011 -1.4540
   45DOPE   C39 5777   3.237   1.057  14.798  0.7561 -0.0403 -0.8126
   45DOPE   H9X 5778   3.148   1.003  14.833  0.5801  0.5339 -0.3454
   45DOPE  C310 5779   3.349   1.026  14.861  0.7299 -0.1344 -0.4612
   45DOPE  H10X 5780   3.346   0.937  14.926 -0.5789  1.2177  1.4467
   45DOPE  C311 5781   3.478   1.098  14.849  0.3354 -1.1220 -0.2649
   45DOPE  H11X 5782   3.563   1.027  14.837  1.9547 -0.2653  4.2247
   45DOPE  H11Y 5783   3.479   1.162  14.758 -1.0672 -0.1718  0.3556
   45DOPE  C312 5784   3.496   1.194  14.971 -0.7595 -0.6700  0.2647
   45DOPE  H12X 5785   3.460   1.143  15.063  0.2465 -2.3404 -0.2255
   45DOPE  H12Y 5786   3.450   1.294  14.959  0.2461 -0.1138  0.9372
   45DOPE  C313 5787   3.644   1.212  15.002 -0.6995  0.4176 -0.3537
   45DOPE  H13X 5788   3.675   1.107  15.024  0.0441  0.2999 -1.8250
   45DOPE  H13Y 5789   3.698   1.238  14.909  1.1374  0.3235  0.6270
   45DOPE  C314 5790   3.682   1.316  15.108  0.1087 -0.1409  0.4174
   45DOPE  H14X 5791   3.649   1.416  15.072  1.0205  0.3608  0.9178
   45DOPE  H14Y 5792   3.793   1.328  15.104  0.1232 -0.4392 -0.3229
   45DOPE  C315 5793   3.617   1.300  15.242  0.8628 -0.0942 -0.1846
   45DOPE  H15X 5794   3.630   1.195  15.275  0.6387 -1.8753 -5.0252
   45DOPE  H15Y 5795   3.510   1.322  15.223  0.7814  2.5574  2.4652
   45DOPE  C316 5796   3.668   1.399  15.339 -0.1152 -0.1377 -0.6348
   45DOPE  H16X 5797   3.637   1.502  15.315  1.0635  0.4935  0.4334
   45DOPE  H16Y 5798   3.779   1.396  15.345 -0.1807 -2.0661  0.8777
   45DOPE  C317 5799   3.612   1.381  15.480 -0.4170 -0.1024 -0.5129
   45DOPE  H17X 5800   3.501   1.383  15.479 -0.5078 -2.1494 -0.2485
   45DOPE  H17Y 5801   3.649   1.280  15.508  0.0911  0.4382  0.8451
   45DOPE  C318 5802   3.667   1.479  15.580  0.1366 -0.3294 -0.5467
   45DOPE  H18X 5803   3.674   1.586  15.549  1.3923  0.7395  2.8558
   45DOPE  H18Y 5804   3.608   1.484  15.674  2.9808  0.3906  1.3423
   45DOPE  H18Z 5805   3.774   1.452  15.594  0.2347  0.0637 -0.5054
   46DOPE     N 5806   3.775   7.378  13.275  0.2480 -0.1048  0.6110
   46DOPE   HN1 5807   3.732   7.330  13.357  1.4991 -1.2906  0.5959
   46DOPE   HN2 5808   3.864   7.418  13.312 -0.4996  2.3685 -0.0398
   46DOPE   HN3 5809   3.712   7.454  13.241  0.6107 -0.0397  0.0890
   46DOPE   C12 5810   3.795   7.285  13.162 -0.4636 -0.2079  0.5582
   46DOPE  H12A 5811   3.835   7.344  13.077  0.6811  0.6031  1.6268
   46DOPE  H12B 5812   3.701   7.232  13.135 -0.9923  1.0680 -0.1800
   46DOPE   C11 5813   3.894   7.174  13.197  0.3709 -0.4005  0.2013
   46DOPE  H11A 5814   3.995   7.218  13.210  0.0766 -0.4165  3.1480
   46DOPE  H11B 5815   3.887   7.106  13.109 -4.0138 -0.4787  0.4298
   46DOPE     P 5816   3.956   6.997  13.375  0.0906  0.0971  0.0899
   46DOPE   O13 5817   4.094   7.045  13.388  0.1433 -0.0888  0.1242
   46DOPE   O14 5818   3.922   6.876  13.289 -0.3052 -0.4457 -0.0717
   46DOPE   O11 5819   3.900   6.959  13.518  0.2041 -0.2179  0.1704
   46DOPE   O12 5820   3.865   7.114  13.325 -0.3602  0.2553 -0.2132
   46DOPE    C1 5821   3.815   7.049  13.592  0.1898 -0.0672  0.2993
   46DOPE    HA 5822   3.723   7.055  13.530 -0.0760  0.0551  0.7031
   46DOPE    HB 5823   3.852   7.153  13.595  1.5222 -0.5482  1.7548
   46DOPE    C2 5824   3.774   6.988  13.730 -0.1955  0.4286 -0.0925
   46DOPE    HS 5825   3.703   7.062  13.772 -1.6141  0.5837 -2.5769
   46DOPE   O21 5826   3.886   6.968  13.819 -0.5769  0.6530  0.2251
   46DOPE   C21 5827   3.971   7.060  13.831 -0.1387 -0.5691 -0.0036
   46DOPE   O22 5828   3.964   7.178  13.795 -0.2992 -0.6855  0.0739
   46DOPE   C22 5829   4.086   7.005  13.917  0.4820 -0.5499  0.2038
   46DOPE   H2R 5830   4.137   6.929  13.854 -0.3631 -1.5027  0.6473
   46DOPE   H2S 5831   4.038   6.958  14.005 -3.5912 -0.6117 -1.8088
   46DOPE    C3 5832   3.695   6.853  13.712  0.9352  0.1455 -0.6420
   46DOPE    HX 5833   3.760   6.776  13.665  0.5463 -0.2533 -0.5419
   46DOPE    HY 5834   3.616   6.864  13.634  1.5595 -0.7872 -1.4287
   46DOPE   O31 5835   3.645   6.793  13.830 -0.0194 -0.4921  0.2037
   46DOPE   C31 5836   3.528   6.850  13.872  0.2832  0.5722  0.2434
   46DOPE   O32 5837   3.470   6.939  13.816  0.4125 -0.3724 -0.0766
   46DOPE   C32 5838   3.494   6.794  14.006 -0.0991  0.1706 -0.1056
   46DOPE   H2X 5839   3.451   6.691  14.002  1.3013 -0.4332 -0.2566
   46DOPE   H2Y 5840   3.581   6.774  14.071 -0.6468  1.4994  1.0740
   46DOPE   C23 5841   4.192   7.107  13.958  0.0591 -0.1315 -0.2056
   46DOPE   H3R 5842   4.197   7.181  13.875  0.7345 -0.2856 -0.3029
   46DOPE   H3S 5843   4.292   7.061  13.970  0.6032  1.2734  1.0297
   46DOPE   C24 5844   4.174   7.176  14.092 -0.5467 -0.0727 -0.8013
   46DOPE   H4R 5845   4.166   7.101  14.173  0.8525  1.1709  0.5475
   46DOPE   H4S 5846   4.081   7.237  14.089 -0.5041 -0.0389 -2.1014
   46DOPE   C25 5847   4.293   7.263  14.128  0.4747 -0.3645 -0.1721
   46DOPE   H5R 5848   4.315   7.342  14.053 -0.0159  0.4861  0.5548
   46DOPE   H5S 5849   4.382   7.197  14.136  1.8480  1.2280 -1.5710
   46DOPE   C26 5850   4.286   7.335  14.262 -0.1870 -0.7009 -0.0969
   46DOPE   H6R 5851   4.220   7.424  14.257 -0.6028 -1.0217 -0.3971
   46DOPE   H6S 5852   4.389   7.370  14.282 -1.2111  1.7415  1.3388
   46DOPE   C27 5853   4.247   7.249  14.383  0.3322 -0.1522  0.2913
   46DOPE   H7R 5854   4.305   7.153  14.381  2.8287  1.2166  1.7061
   46DOPE   H7S 5855   4.138   7.229  14.375  0.1679  0.6968  0.3385
   46DOPE   C28 5856   4.287   7.326  14.510  0.9792  0.1696  1.0074
   46DOPE   H8R 5857   4.242   7.427  14.516 -2.5344 -1.3192  2.3750
   46DOPE   H8S 5858   4.392   7.361  14.524  1.4982 -0.5626 -0.7580
   46DOPE   C29 5859   4.251   7.264  14.638  0.3571  1.2168 -0.2459
   46DOPE   H9R 5860   4.296   7.164  14.644 -0.5650  0.6328 -2.1886
   46DOPE  C210 5861   4.156   7.303  14.726 -0.3924  0.6926  0.4308
   46DOPE  H10R 5862   4.151   7.234  14.812 -1.6810 -1.1037 -1.0029
   46DOPE  C211 5863   4.073   7.424  14.722  0.2078 -0.4487  0.1877
   46DOPE  H11R 5864   3.972   7.399  14.683 -0.2650  0.8650  0.5183
   46DOPE  H11S 5865   4.102   7.495  14.642  0.6963 -0.7669  0.0811
   46DOPE  C212 5866   4.030   7.479  14.857 -0.1517 -0.4146  0.3602
   46DOPE  H12R 5867   4.000   7.409  14.938  1.7822 -2.1263 -0.3204
   46DOPE  H12S 5868   3.956   7.561  14.847 -0.0459 -0.3315  0.2530
   46DOPE  C213 5869   4.146   7.563  14.915  0.4764  0.1112  0.2302
   46DOPE  H13R 5870   4.177   7.643  14.845  0.4562  0.2346  0.3594
   46DOPE  H13S 5871   4.239   7.507  14.941  1.0883  0.5849 -0.8963
   46DOPE  C214 5872   4.095   7.627  15.048  0.3007  0.3774  0.9705
   46DOPE  H14R 5873   4.053   7.548  15.114  1.0998  0.5805  1.7496
   46DOPE  H14S 5874   4.005   7.688  15.028  1.3267  1.8518  0.7521
   46DOPE  C215 5875   4.199   7.716  15.132 -0.2535  0.2031 -0.4698
   46DOPE  H15R 5876   4.211   7.806  15.069  0.6430  0.1622 -0.3676
   46DOPE  H15S 5877   4.292   7.663  15.162 -0.4555  0.3643  0.4786
   46DOPE  C216 5878   4.129   7.772  15.261  0.1670  0.2148 -0.1989
   46DOPE  H16R 5879   4.100   7.681  15.317 -1.0705 -0.6611 -2.1895
   46DOPE  H16S 5880   4.039   7.820  15.218  0.8427 -0.0151 -1.9713
   46DOPE  C217 5881   4.213   7.876  15.340  0.0079 -0.2734 -0.3947
   46DOPE  H17R 5882   4.195   7.974  15.291  1.3911  0.0625 -0.2788
   46DOPE  H17S 5883   4.320   7.852  15.319 -0.1202 -0.9292 -0.3113
   46DOPE  C218 5884   4.199   7.880  15.493  0.0086 -0.4342  0.6661
   46DOPE  H18R 5885   4.300   7.887  15.539  1.0108 -1.5240 -1.2608
   46DOPE  H18S 5886   4.147   7.789  15.531 -1.8975  1.0088  1.6928
   46DOPE  H18T 5887   4.133   7.964  15.524 -2.0883 -1.7106 -0.1122
   46DOPE   C33 5888   3.404   6.893  14.089 -0.0603 -0.2001  0.1759
   46DOPE   H3X 5889   3.309   6.892  14.031  1.2249  0.3887 -2.0633
   46DOPE   H3Y 5890   3.436   6.999  14.082  0.4143 -0.4146 -1.2691
   46DOPE   C34 5891   3.389   6.851  14.234  0.0494  0.1173  0.1810
   46DOPE   H4X 5892   3.332   6.755  14.239 -0.1249  0.2648  1.3809
   46DOPE   H4Y 5893   3.486   6.832  14.285  0.5615  0.4388 -0.6648
   46DOPE   C35 5894   3.316   6.967  14.312  0.9758 -0.3913  0.1515
   46DOPE   H5X 5895   3.206   6.964  14.292  0.5609  1.8906  1.7357
   46DOPE   H5Y 5896   3.360   7.064  14.283  0.6695 -0.3231 -0.0849
   46DOPE   C36 5897   3.308   6.943  14.464  0.2357  0.2433  0.0483
   46DOPE   H6X 5898   3.414   6.922  14.491  0.1637  0.1385  0.2504
   46DOPE   H6Y 5899   3.254   6.847  14.485  0.2576  0.2033 -0.0783
   46DOPE   C37 5900   3.260   7.062  14.534  0.1426 -0.0096  0.5141
   46DOPE   H7X 5901   3.331   7.148  14.529 -0.0536  0.1073 -2.0467
   46DOPE   H7Y 5902   3.172   7.101  14.478  1.1753  1.4514 -0.1840
   46DOPE   C38 5903   3.213   7.043  14.676  0.3139 -0.0364 -0.4073
   46DOPE   H8X 5904   3.115   6.993  14.684 -0.2276  1.1785  1.2092
   46DOPE   H8Y 5905   3.196   7.144  14.720  1.3401 -0.5494  1.2902
   46DOPE   C39 5906   3.329   6.976  14.757  0.1024  0.0496 -0.0620
   46DOPE   H9X 5907   3.427   6.971  14.709 -1.0240 -0.2028 -2.4897
   46DOPE  C310 5908   3.314   6.930  14.883  0.6894 -0.2458 -0.2999
   46DOPE  H10X 5909   3.398   6.874  14.926  1.0741  0.3852 -0.2314
   46DOPE  C311 5910   3.186   6.935  14.963  0.4454 -0.4336 -0.2386
   46DOPE  H11X 5911   3.102   6.985  14.912  0.8357  0.4103 -0.0790
   46DOPE  H11Y 5912   3.156   6.829  14.981 -0.7567 -0.0706 -0.0400
   46DOPE  C312 5913   3.201   7.007  15.094  0.0511 -0.5786 -0.1334
   46DOPE  H12X 5914   3.288   6.967  15.150  1.6655  1.5977 -0.9322
   46DOPE  H12Y 5915   3.106   6.989  15.148 -1.2488 -0.4263 -2.2311
   46DOPE  C313 5916   3.210   7.160  15.080 -0.1331 -0.1127  0.3452
   46DOPE  H13X 5917   3.290   7.186  15.007 -0.0622 -1.9621 -0.2902
   46DOPE  H13Y 5918   3.119   7.201  15.032 -1.2388 -0.3236  2.1576
   46DOPE  C314 5919   3.231   7.242  15.210 -0.0053  0.4740 -0.7221
   46DOPE  H14X 5920   3.313   7.188  15.262 -0.3317 -1.8727 -2.4702
   46DOPE  H14Y 5921   3.136   7.231  15.266 -1.2038  1.6794 -2.4155
   46DOPE  C315 5922   3.254   7.393  15.194 -0.4173  0.2196 -0.2765
   46DOPE  H15X 5923   3.180   7.415  15.114 -0.6154 -0.6330 -0.3328
   46DOPE  H15Y 5924   3.355   7.414  15.155  0.3835  2.1008  2.4829
   46DOPE  C316 5925   3.244   7.475  15.320 -0.1917 -0.2078 -0.0931
   46DOPE  H16X 5926   3.337   7.457  15.379 -0.6914  3.9588  2.3320
   46DOPE  H16Y 5927   3.154   7.427  15.365 -0.4469 -1.1163 -1.5075
   46DOPE  C317 5928   3.242   7.627  15.294 -0.2305 -0.3376 -0.2447
   46DOPE  H17X 5929   3.276   7.673  15.389 -2.0588  2.3697 -0.7785
   46DOPE  H17Y 5930   3.321   7.639  15.217  0.2260 -2.7175 -0.2297
   46DOPE  C318 5931   3.104   7.679  15.256  0.5853 -0.0114  0.4589
   46DOPE  H18X 5932   3.031   7.643  15.332 -0.3773  0.2200 -0.3471
   46DOPE  H18Y 5933   3.097   7.790  15.265 -2.6766 -0.1674  1.0989
   46DOPE  H18Z 5934   3.068   7.645  15.157 -1.2851 -1.2468  1.5113
   47DOPE     N 5935   1.656   6.192  13.099  0.2807  0.2259 -0.4993
   47DOPE   HN1 5936   1.678   6.094  13.127  0.6064  0.0126 -1.4567
   47DOPE   HN2 5937   1.632   6.179  12.998  0.5555 -0.2499 -0.5042
   47DOPE   HN3 5938   1.742   6.249  13.092 -0.6032  1.4521 -2.4772
   47DOPE   C12 5939   1.541   6.247  13.175  0.0016 -0.1669 -0.7508
   47DOPE  H12A 5940   1.521   6.352  13.143 -0.3086  0.4480  1.3133
   47DOPE  H12B 5941   1.566   6.243  13.283 -0.5630 -0.1700 -0.6144
   47DOPE   C11 5942   1.418   6.145  13.172  0.6197 -0.0853  0.0351
   47DOPE  H11A 5943   1.433   6.041  13.207 -1.9370 -0.6749 -0.3952
   47DOPE  H11B 5944   1.402   6.117  13.066 -0.6974 -2.5527  0.8257
   47DOPE     P 5945   1.251   6.183  13.372  0.0914  0.0992 -0.0536
   47DOPE   O13 5946   1.352   6.084  13.428  0.0370 -0.3826  0.0194
   47DOPE   O14 5947   1.109   6.144  13.374 -0.3818  0.6145 -0.4250
   47DOPE   O11 5948   1.272   6.335  13.407 -0.2327  0.9987  0.2201
   47DOPE   O12 5949   1.300   6.212  13.225 -0.8596  0.9560  0.2287
   47DOPE    C1 5950   1.335   6.350  13.536 -0.0664 -0.2032  0.2320
   47DOPE    HA 5951   1.384   6.450  13.529 -0.1740 -0.0451  1.4613
   47DOPE    HB 5952   1.426   6.290  13.553  0.7775  0.9586 -0.0548
   47DOPE    C2 5953   1.239   6.360  13.651 -0.2525  0.6681  0.2412
   47DOPE    HS 5954   1.298   6.417  13.725 -0.0479 -1.9863  2.2926
   47DOPE   O21 5955   1.193   6.234  13.700 -0.5276  0.5136 -0.5459
   47DOPE   C21 5956   1.165   6.228  13.836 -0.0214 -0.1994 -1.1050
   47DOPE   O22 5957   1.178   6.321  13.917 -0.3233  0.3441  0.1645
   47DOPE   C22 5958   1.103   6.093  13.865 -0.9450 -0.8165  1.1534
   47DOPE   H2R 5959   1.144   6.023  13.790  0.2407  0.6370  0.3831
   47DOPE   H2S 5960   0.994   6.116  13.861 -0.5419  1.9624  2.8862
   47DOPE    C3 5961   1.117   6.449  13.613 -0.1413  0.6639 -0.4181
   47DOPE    HX 5962   1.067   6.398  13.528 -1.3075 -0.5081  0.9319
   47DOPE    HY 5963   1.174   6.537  13.576  2.2929 -0.7308 -0.1622
   47DOPE   O31 5964   1.026   6.474  13.727 -0.3312  0.1899  0.6564
   47DOPE   C31 5965   0.947   6.581  13.697 -0.1708 -0.3885  0.0474
   47DOPE   O32 5966   0.939   6.629  13.585 -0.4971  0.3258  0.5601
   47DOPE   C32 5967   0.863   6.618  13.819 -0.5183 -0.2265  0.0260
   47DOPE   H2X 5968   0.772   6.555  13.823  0.4105 -1.6945 -0.8322
   47DOPE   H2Y 5969   0.924   6.597  13.910  0.6962 -1.6605 -1.0642
   47DOPE   C23 5970   1.130   6.032  14.002 -0.7780 -0.0327  0.5550
   47DOPE   H3R 5971   1.114   6.108  14.082 -0.0323  0.4860  0.2164
   47DOPE   H3S 5972   1.237   6.004  14.017 -0.8440  0.3050  1.8498
   47DOPE   C24 5973   1.056   5.906  14.034  0.5904  0.3620 -0.0506
   47DOPE   H4R 5974   1.052   5.848  13.939  1.8624 -1.2533  0.8268
   47DOPE   H4S 5975   0.956   5.938  14.069 -1.4788 -2.5199 -2.8287
   47DOPE   C25 5976   1.131   5.827  14.143  0.6207 -0.1537  0.4317
   47DOPE   H5R 5977   1.117   5.876  14.242 -0.9155 -2.6003  1.5209
   47DOPE   H5S 5978   1.239   5.827  14.116  0.4201  0.1690 -0.3888
   47DOPE   C26 5979   1.069   5.684  14.157 -0.0158 -0.6232  0.7014
   47DOPE   H6R 5980   1.053   5.632  14.061 -2.4211  1.9258 -0.4220
   47DOPE   H6S 5981   0.966   5.686  14.197 -0.6993 -1.2808 -0.9605
   47DOPE   C27 5982   1.151   5.598  14.260  0.0535 -0.7233 -0.2664
   47DOPE   H7R 5983   1.258   5.586  14.233  0.8517  1.1270  1.7315
   47DOPE   H7S 5984   1.097   5.501  14.258 -0.4035 -0.5537  1.7491
   47DOPE   C28 5985   1.149   5.659  14.406 -0.2808  0.5470 -0.4990
   47DOPE   H8R 5986   1.043   5.686  14.427 -0.2531  0.3608 -0.1136
   47DOPE   H8S 5987   1.212   5.750  14.406  0.1276  0.2837  0.7338
   47DOPE   C29 5988   1.213   5.560  14.503 -0.1705 -0.2269 -0.7750
   47DOPE   H9R 5989   1.135   5.506  14.559 -0.6891 -1.1262 -2.3032
   47DOPE  C210 5990   1.342   5.536  14.538 -0.8407 -0.0701  0.5496
   47DOPE  H10R 5991   1.355   5.439  14.587  0.0390  0.2827  1.0351
   47DOPE  C211 5992   1.468   5.588  14.468 -0.1536 -0.3068  0.7586
   47DOPE  H11R 5993   1.438   5.648  14.379  1.4232  0.5113  0.7407
   47DOPE  H11S 5994   1.516   5.496  14.429 -3.0888 -1.7108  0.1961
   47DOPE  C212 5995   1.548   5.674  14.559 -0.8085  0.4486 -0.1561
   47DOPE  H12R 5996   1.647   5.701  14.516  0.4939 -2.2552  0.8997
   47DOPE  H12S 5997   1.583   5.611  14.643  0.1982 -0.2426 -1.0562
   47DOPE  C213 5998   1.472   5.794  14.606  0.3740 -0.7348  0.0389
   47DOPE  H13R 5999   1.371   5.769  14.644 -0.2764  1.0259 -0.3980
   47DOPE  H13S 6000   1.462   5.856  14.514 -0.2964  0.0104  0.5963
   47DOPE  C214 6001   1.549   5.875  14.709 -0.8805 -0.1344  0.3975
   47DOPE  H14R 6002   1.658   5.868  14.688 -1.1959 -1.7917 -0.8706
   47DOPE  H14S 6003   1.539   5.823  14.807 -0.4882 -0.6686  0.1598
   47DOPE  C215 6004   1.520   6.026  14.715  0.1165  0.0838 -0.6277
   47DOPE  H15R 6005   1.413   6.044  14.741  0.5366  0.2829  1.1330
   47DOPE  H15S 6006   1.535   6.063  14.612 -0.1714  2.1872  0.0301
   47DOPE  C216 6007   1.599   6.121  14.808  0.3163 -0.5640 -0.0802
   47DOPE  H16R 6008   1.547   6.219  14.807 -0.0415 -0.7519 -1.0863
   47DOPE  H16S 6009   1.695   6.142  14.758 -0.7167 -1.1361 -2.4301
   47DOPE  C217 6010   1.613   6.077  14.955  0.6422  0.2485  0.1557
   47DOPE  H17R 6011   1.622   5.967  14.970  0.8876  0.5057  2.3069
   47DOPE  H17S 6012   1.525   6.099  15.019  0.3464  2.1300 -0.8330
   47DOPE  C218 6013   1.735   6.143  15.028  0.2680  0.1139 -0.0208
   47DOPE  H18R 6014   1.828   6.098  14.988  1.0758  0.7351  1.0854
   47DOPE  H18S 6015   1.739   6.105  15.132 -2.5456  0.5670  0.3346
   47DOPE  H18T 6016   1.722   6.253  15.015 -2.0735 -0.3663 -2.9275
   47DOPE   C33 6017   0.834   6.769  13.804  0.1595 -0.6183  0.0505
   47DOPE   H3X 6018   0.759   6.786  13.723 -1.6645  1.5542  2.0286
   47DOPE   H3Y 6019   0.925   6.828  13.780  1.1156 -2.3063 -0.6567
   47DOPE   C34 6020   0.782   6.830  13.941  0.1954  0.5234  0.0696
   47DOPE   H4X 6021   0.862   6.843  14.017 -1.3314  1.1518  1.6238
   47DOPE   H4Y 6022   0.757   6.937  13.926 -2.1389  0.0304  0.0476
   47DOPE   C35 6023   0.650   6.759  13.993 -0.4282  0.1217 -0.2686
   47DOPE   H5X 6024   0.642   6.649  13.981 -2.1172 -0.0438  1.8204
   47DOPE   H5Y 6025   0.560   6.805  13.949  0.4546  3.2170  0.9204
   47DOPE   C36 6026   0.624   6.777  14.144  0.5950 -0.1417 -0.0458
   47DOPE   H6X 6027   0.640   6.880  14.182 -2.1063  0.6520 -0.9023
   47DOPE   H6Y 6028   0.705   6.713  14.186  0.2653  0.3465  1.3920
   47DOPE   C37 6029   0.484   6.726  14.180  0.4100  0.0612  0.3835
   47DOPE   H7X 6030   0.410   6.779  14.116  1.4927 -1.7985 -2.6130
   47DOPE   H7Y 6031   0.472   6.617  14.163  1.1009  0.2733 -1.6563
   47DOPE   C38 6032   0.449   6.742  14.328  0.1832  0.6572  1.1853
   47DOPE   H8X 6033   0.343   6.709  14.322  0.8693 -1.4376 -1.5503
   47DOPE   H8Y 6034   0.454   6.844  14.371 -0.4201  0.4003  1.8990
   47DOPE   C39 6035   0.539   6.650  14.410 -0.1751 -0.2155  0.7966
   47DOPE   H9X 6036   0.507   6.547  14.394 -0.2155 -0.0838 -0.0173
   47DOPE  C310 6037   0.638   6.687  14.496  0.3417  0.0523 -0.1311
   47DOPE  H10X 6038   0.687   6.599  14.540  0.8898  0.4052 -0.0296
   47DOPE  C311 6039   0.681   6.830  14.514  0.2888 -0.1721  0.9654
   47DOPE  H11X 6040   0.680   6.888  14.419 -0.1838  0.8111  1.5665
   47DOPE  H11Y 6041   0.610   6.880  14.583 -1.0360 -1.5042  0.6201
   47DOPE  C312 6042   0.824   6.843  14.564 -0.3001 -0.1058  0.6620
   47DOPE  H12X 6043   0.831   6.792  14.662  0.8590 -1.3508 -0.0377
   47DOPE  H12Y 6044   0.846   6.950  14.588 -0.2300 -0.1496  0.7928
   47DOPE  C313 6045   0.935   6.794  14.470  0.2543 -0.2730  0.5104
   47DOPE  H13X 6046   1.027   6.791  14.532 -1.3053  0.6324  3.0084
   47DOPE  H13Y 6047   0.906   6.689  14.448 -0.4732  0.3114 -1.5781
   47DOPE  C314 6048   0.967   6.880  14.345 -1.0322 -0.1338 -0.2079
   47DOPE  H14X 6049   1.005   6.975  14.388  0.1335  0.4284 -2.3155
   47DOPE  H14Y 6050   0.867   6.898  14.301 -1.7651  0.7279  1.7258
   47DOPE  C315 6051   1.079   6.826  14.250 -0.4851 -0.7170  0.1524
   47DOPE  H15X 6052   1.177   6.817  14.302 -0.3209 -1.3342 -0.2639
   47DOPE  H15Y 6053   1.086   6.900  14.167  0.0705 -1.5495 -0.5525
   47DOPE  C316 6054   1.055   6.688  14.201 -0.5420  0.3687  0.5021
   47DOPE  H16X 6055   0.956   6.686  14.151 -0.2323 -2.4803 -0.1829
   47DOPE  H16Y 6056   1.050   6.630  14.295 -0.5314 -0.6993 -0.1377
   47DOPE  C317 6057   1.168   6.624  14.125  0.2558  0.1012 -0.3918
   47DOPE  H17X 6058   1.247   6.629  14.203  0.6289  2.0323 -0.8543
   47DOPE  H17Y 6059   1.154   6.518  14.096 -1.1599  0.3633 -0.7375
   47DOPE  C318 6060   1.211   6.684  13.990  0.0405 -0.2863 -0.4880
   47DOPE  H18X 6061   1.319   6.708  13.990 -0.3984  1.8321  0.2814
   47DOPE  H18Y 6062   1.176   6.607  13.917 -0.7063 -1.4487  1.0333
   47DOPE  H18Z 6063   1.154   6.778  13.972  1.1675  0.5176  0.0413
   48DOPE     N 6064   7.353   2.021  12.864 -0.2075 -0.1831 -0.0576
   48DOPE   HN1 6065   7.396   2.030  12.958 -0.6904  0.7220  0.0950
   48DOPE   HN2 6066   7.302   1.931  12.860 -1.4201  0.5189 -2.7722
   48DOPE   HN3 6067   7.427   2.016  12.791 -1.5667  0.6197 -1.5839
   48DOPE   C12 6068   7.250   2.123  12.841  0.2251  0.0612  0.7569
   48DOPE  H12A 6069   7.215   2.133  12.736  1.3687  0.7630  0.4317
   48DOPE  H12B 6070   7.289   2.222  12.873  0.3201  0.4250 -0.4503
   48DOPE   C11 6071   7.128   2.091  12.927 -0.7002  0.2187 -0.2786
   48DOPE  H11A 6072   7.060   2.179  12.925 -2.3513 -1.0060 -1.3683
   48DOPE  H11B 6073   7.169   2.085  13.030  3.0496  1.7841 -1.5012
   48DOPE     P 6074   6.930   1.928  12.955 -0.1364 -0.1830  0.1132
   48DOPE   O13 6075   6.884   1.796  12.906 -0.1307 -0.8959  0.1073
   48DOPE   O14 6076   6.825   2.035  12.938  0.0254  0.3227  0.3090
   48DOPE   O11 6077   6.958   1.917  13.108 -0.7097  0.1978  0.1085
   48DOPE   O12 6078   7.061   1.975  12.889 -0.4209  0.5389  0.0558
   48DOPE    C1 6079   7.047   1.819  13.159  0.4767 -0.3657 -0.9188
   48DOPE    HA 6080   7.134   1.876  13.198  0.3800  0.3682 -1.7501
   48DOPE    HB 6081   7.096   1.748  13.089  0.3483  1.2687 -2.7534
   48DOPE    C2 6082   6.991   1.748  13.286  0.2239 -0.2675 -0.3043
   48DOPE    HS 6083   6.923   1.665  13.256 -0.1324 -1.2031  2.7425
   48DOPE   O21 6084   6.902   1.838  13.356 -0.2128 -0.1395  0.5109
   48DOPE   C21 6085   6.827   1.773  13.449  0.0092  0.4132  0.0786
   48DOPE   O22 6086   6.817   1.648  13.456 -0.2056 -0.2634  0.0868
   48DOPE   C22 6087   6.758   1.880  13.538  0.0666  0.3356  0.0912
   48DOPE   H2R 6088   6.648   1.864  13.527 -0.0660  0.0733  1.6402
   48DOPE   H2S 6089   6.775   1.981  13.496 -2.0389 -0.4259 -2.9635
   48DOPE    C3 6090   7.091   1.677  13.379  0.3632 -0.7388 -0.0880
   48DOPE    HX 6091   7.096   1.758  13.455 -0.2838  2.5472 -3.2511
   48DOPE    HY 6092   7.189   1.692  13.329  1.0599  0.2775  1.4877
   48DOPE   O31 6093   7.062   1.546  13.432  0.8169 -0.0318 -0.7003
   48DOPE   C31 6094   7.092   1.445  13.352 -0.2649 -0.2731  0.0835
   48DOPE   O32 6095   7.119   1.453  13.232 -1.0079 -0.2105  0.2705
   48DOPE   C32 6096   7.079   1.315  13.429  0.1561  0.7596 -0.0471
   48DOPE   H2X 6097   6.985   1.326  13.486  0.8179 -1.4374  1.5999
   48DOPE   H2Y 6098   7.063   1.234  13.354  1.7427  1.2171 -0.9464
   48DOPE   C23 6099   6.804   1.873  13.682 -0.3935 -0.1113 -0.1105
   48DOPE   H3R 6100   6.915   1.882  13.676 -0.3020 -1.8200 -3.1879
   48DOPE   H3S 6101   6.769   1.777  13.725 -0.1408 -1.4168 -2.6222
   48DOPE   C24 6102   6.749   1.985  13.766 -0.4906 -0.6478 -0.5263
   48DOPE   H4R 6103   6.639   1.973  13.769 -0.3347 -2.1639  0.2294
   48DOPE   H4S 6104   6.762   2.083  13.715 -0.9656 -0.3892 -0.1576
   48DOPE   C25 6105   6.812   1.992  13.912 -0.5356 -0.3266 -0.4374
   48DOPE   H5R 6106   6.922   1.974  13.908 -0.8626 -2.3947 -1.2478
   48DOPE   H5S 6107   6.768   1.898  13.953  0.1578 -0.7852 -0.7154
   48DOPE   C26 6108   6.781   2.123  13.986  0.2301  0.3678 -0.0124
   48DOPE   H6R 6109   6.670   2.123  13.990  0.2085  0.0457 -0.5390
   48DOPE   H6S 6110   6.814   2.205  13.918  0.6032  0.9154  0.8071
   48DOPE   C27 6111   6.841   2.129  14.123 -0.0392 -0.8190  0.0666
   48DOPE   H7R 6112   6.813   2.221  14.178  0.7004 -1.3351  1.3594
   48DOPE   H7S 6113   6.952   2.130  14.116 -0.0191  0.4776  0.1818
   48DOPE   C28 6114   6.810   2.006  14.205  0.4410 -0.4437  0.2686
   48DOPE   H8R 6115   6.865   2.019  14.301 -0.5302  1.5008  0.5976
   48DOPE   H8S 6116   6.853   1.914  14.159  2.3083  0.5022  0.0386
   48DOPE   C29 6117   6.665   1.986  14.236  0.1460 -0.8843 -0.5832
   48DOPE   H9R 6118   6.595   2.025  14.160 -1.4158  1.4684  1.8738
   48DOPE  C210 6119   6.609   1.947  14.351 -0.2694 -0.1516 -0.2301
   48DOPE  H10R 6120   6.499   1.943  14.358 -0.2294 -0.2340  0.4256
   48DOPE  C211 6121   6.684   1.907  14.478 -0.1344  0.4801  0.2096
   48DOPE  H11R 6122   6.789   1.943  14.485  0.3538 -0.9379  0.4774
   48DOPE  H11S 6123   6.692   1.798  14.496  2.4795  0.9701  2.6144
   48DOPE  C212 6124   6.635   1.966  14.610  0.0152  0.0252  0.2847
   48DOPE  H12R 6125   6.528   1.938  14.624  0.6335 -2.4786  0.4669
   48DOPE  H12S 6126   6.638   2.077  14.619 -0.4761 -0.0744  2.1473
   48DOPE  C213 6127   6.712   1.907  14.733 -0.4032  0.2008  0.3259
   48DOPE  H13R 6128   6.816   1.885  14.704  0.2949  1.9385  1.3791
   48DOPE  H13S 6129   6.660   1.814  14.766  2.7558 -1.9096 -0.2131
   48DOPE  C214 6130   6.723   2.010  14.853  0.0554 -0.2293  0.1176
   48DOPE  H14R 6131   6.621   2.040  14.887 -0.1046  0.1974 -0.7164
   48DOPE  H14S 6132   6.777   2.099  14.816  1.0697 -0.9553 -0.2041
   48DOPE  C215 6133   6.802   1.960  14.973  0.6536 -0.4837 -0.9661
   48DOPE  H15R 6134   6.834   2.037  15.045 -1.1822 -1.7980  1.4245
   48DOPE  H15S 6135   6.903   1.934  14.937  1.5686 -0.2486  1.2807
   48DOPE  C216 6136   6.746   1.831  15.030 -0.3524  0.1053  0.2352
   48DOPE  H16R 6137   6.776   1.746  14.965  1.9309  1.8977 -1.2328
   48DOPE  H16S 6138   6.635   1.828  15.035 -0.4154 -0.4919 -1.0901
   48DOPE  C217 6139   6.802   1.806  15.164  0.0357 -0.2422 -0.0008
   48DOPE  H17R 6140   6.757   1.877  15.237 -1.1841 -1.6393  0.6690
   48DOPE  H17S 6141   6.908   1.837  15.158 -0.1345  0.1063 -1.7728
   48DOPE  C218 6142   6.790   1.655  15.212 -0.5982 -0.3904  0.2469
   48DOPE  H18R 6143   6.688   1.615  15.199 -0.6202 -1.4832  3.0817
   48DOPE  H18S 6144   6.808   1.628  15.318  0.4749 -0.6074  0.0233
   48DOPE  H18T 6145   6.854   1.588  15.150 -0.2798 -0.1393  0.3010
   48DOPE   C33 6146   7.199   1.275  13.522  0.5886 -0.3615 -0.6157
   48DOPE   H3X 6147   7.221   1.358  13.593  0.4418  1.4333 -2.5778
   48DOPE   H3Y 6148   7.288   1.274  13.456 -0.1199 -0.1080 -1.5882
   48DOPE   C34 6149   7.182   1.153  13.605  0.4018 -0.3223  0.4181
   48DOPE   H4X 6150   7.129   1.075  13.548 -3.0928  2.2638 -0.2101
   48DOPE   H4Y 6151   7.278   1.101  13.626  0.2382 -1.2907 -1.1115
   48DOPE   C35 6152   7.115   1.179  13.742 -0.5357  0.1789 -0.2315
   48DOPE   H5X 6153   7.008   1.210  13.736 -1.0638 -1.3343  0.7426
   48DOPE   H5Y 6154   7.184   1.257  13.780  0.4308 -0.6274 -0.2740
   48DOPE   C36 6155   7.120   1.056  13.834 -1.1903  0.3580  0.8872
   48DOPE   H6X 6156   7.227   1.025  13.842 -1.6053 -1.3395  0.2192
   48DOPE   H6Y 6157   7.075   0.972  13.778 -0.4919 -0.1650  1.0861
   48DOPE   C37 6158   7.054   1.086  13.970 -0.5902  0.4310 -0.1243
   48DOPE   H7X 6159   7.091   1.184  14.008 -3.5108  0.5845  2.7429
   48DOPE   H7Y 6160   6.944   1.090  13.955 -0.5626 -0.9597 -0.8945
   48DOPE   C38 6161   7.088   0.980  14.077  0.6497  0.4433 -0.4867
   48DOPE   H8X 6162   7.198   0.963  14.071  0.7725  0.9313  0.3058
   48DOPE   H8Y 6163   7.040   0.882  14.057  1.4273  0.0333 -0.3715
   48DOPE   C39 6164   7.036   1.033  14.205 -0.5581 -0.1019  0.6709
   48DOPE   H9X 6165   6.942   1.089  14.197  0.4847  1.7333  0.6262
   48DOPE  C310 6166   7.083   1.009  14.325 -0.2487  0.5177  0.3027
   48DOPE  H10X 6167   7.029   1.044  14.414  0.7172 -0.6104  1.3685
   48DOPE  C311 6168   7.201   0.922  14.361  0.0187 -0.3654 -0.4708
   48DOPE  H11X 6169   7.253   0.879  14.273  0.5961  1.6200 -1.1445
   48DOPE  H11Y 6170   7.278   0.983  14.413  0.7252 -1.8667  0.3025
   48DOPE  C312 6171   7.179   0.798  14.449  0.7837 -0.0521  0.8676
   48DOPE  H12X 6172   7.276   0.751  14.477  0.1573 -2.4932 -0.8011
   48DOPE  H12Y 6173   7.121   0.734  14.380 -1.0670 -0.2120  2.4914
   48DOPE  C313 6174   7.085   0.835  14.563 -0.1871  0.1626  0.5552
   48DOPE  H13X 6175   7.119   0.930  14.612  0.7524 -0.6156  1.4550
   48DOPE  H13Y 6176   6.986   0.844  14.514  0.5657  0.8289 -0.9240
   48DOPE  C314 6177   7.059   0.723  14.665 -0.3698  0.3987  0.0326
   48DOPE  H14X 6178   7.156   0.682  14.700  0.5627  3.1208  0.8250
   48DOPE  H14Y 6179   7.006   0.640  14.612  0.1697  1.2095 -1.8594
   48DOPE  C315 6180   6.986   0.764  14.798  0.1562  0.3419  0.7438
   48DOPE  H15X 6181   6.887   0.812  14.786  1.3299  3.0495  1.1777
   48DOPE  H15Y 6182   7.054   0.842  14.837  0.7009  0.1524  0.2004
   48DOPE  C316 6183   6.968   0.638  14.894 -0.2182 -0.0176  0.2160
   48DOPE  H16X 6184   6.944   0.679  14.994  1.2654 -1.3823  1.1728
   48DOPE  H16Y 6185   7.068   0.591  14.902  0.0899  0.4966 -0.4524
   48DOPE  C317 6186   6.853   0.532  14.856 -0.2534 -0.4862  0.8468
   48DOPE  H17X 6187   6.861   0.512  14.747 -0.4856  0.0780  0.7223
   48DOPE  H17Y 6188   6.863   0.443  14.922  0.3418 -1.1183 -0.0681
   48DOPE  C318 6189   6.703   0.589  14.873 -0.0190 -0.5229 -0.7186
   48DOPE  H18X 6190   6.701   0.689  14.826 -2.5024 -0.7718 -1.2778
   48DOPE  H18Y 6191   6.642   0.508  14.827  1.0532 -1.3820 -0.6468
   48DOPE  H18Z 6192   6.680   0.601  14.981  3.5803  1.2493 -0.0060
   49DOPE     N 6193   0.513   0.395  13.043  0.3641  0.5432  0.2157
   49DOPE   HN1 6194   0.557   0.329  12.975 -2.0580  0.1028 -1.0322
   49DOPE   HN2 6195   0.416   0.386  13.006  1.4512  0.8802 -3.0250
   49DOPE   HN3 6196   0.547   0.492  13.027 -1.2651  0.7953 -2.3478
   49DOPE   C12 6197   0.523   0.337  13.180  0.5003 -0.5986 -0.2169
   49DOPE  H12A 6198   0.465   0.243  13.186  0.9661 -0.8525  0.4677
   49DOPE  H12B 6199   0.475   0.405  13.254 -1.2823  1.0326 -2.7092
   49DOPE   C11 6200   0.666   0.314  13.206 -0.0306 -0.1348 -0.0325
   49DOPE  H11A 6201   0.702   0.327  13.311  1.6489  1.5672 -0.7564
   49DOPE  H11B 6202   0.733   0.387  13.157  0.6028  1.3243  2.7663
   49DOPE     P 6203   0.834   0.121  13.134  0.1514 -0.1847 -0.1388
   49DOPE   O13 6204   0.900   0.226  13.051 -0.5956 -0.2076  0.0656
   49DOPE   O14 6205   0.828  -0.018  13.077 -0.0778 -0.6405 -0.5107
   49DOPE   O11 6206   0.906   0.111  13.274 -0.4491  0.5430 -0.4086
   49DOPE   O12 6207   0.693   0.180  13.165 -0.3837  0.4159  0.2198
   49DOPE    C1 6208   0.842   0.041  13.382  0.4299  0.1665 -0.4175
   49DOPE    HA 6209   0.862  -0.068  13.376 -3.2219 -0.5987 -1.2151
   49DOPE    HB 6210   0.731   0.050  13.381  0.1130 -1.4564  3.3372
   49DOPE    C2 6211   0.899   0.088  13.518 -0.3647  0.1225 -0.4609
   49DOPE    HS 6212   0.897   0.199  13.520 -4.8125  0.2203 -0.0664
   49DOPE   O21 6213   1.024   0.024  13.536 -0.0645  0.5578  0.0143
   49DOPE   C21 6214   1.107   0.084  13.627  0.1910 -0.4005 -0.2006
   49DOPE   O22 6215   1.080   0.181  13.695 -0.3520 -0.1015  0.6522
   49DOPE   C22 6216   1.243   0.020  13.630  0.4192 -0.7361  0.6431
   49DOPE   H2R 6217   1.283   0.053  13.531 -2.1238 -1.6566 -0.7712
   49DOPE   H2S 6218   1.239  -0.090  13.620  0.3001 -0.7346  0.6704
   49DOPE    C3 6219   0.792   0.051  13.625  0.4857 -0.2471 -0.1600
   49DOPE    HX 6220   0.763  -0.055  13.604  0.2445 -0.1204 -0.4714
   49DOPE    HY 6221   0.707   0.112  13.589  1.5906  0.8320 -1.0009
   49DOPE   O31 6222   0.822   0.089  13.759  0.2376  0.0827 -0.3304
   49DOPE   C31 6223   0.859  -0.011  13.832  0.3971  0.1368  0.1122
   49DOPE   O32 6224   0.850  -0.131  13.802 -0.1578 -0.0308 -0.0060
   49DOPE   C32 6225   0.897   0.038  13.972 -0.4740  0.0961 -0.2409
   49DOPE   H2X 6226   1.005   0.061  13.980 -0.4371 -0.2690  0.3639
   49DOPE   H2Y 6227   0.833   0.126  13.994  1.8778  1.1253  3.3743
   49DOPE   C23 6228   1.331   0.075  13.747  0.5942  0.0367 -0.0103
   49DOPE   H3R 6229   1.285   0.050  13.845  2.0209 -1.3467  0.3431
   49DOPE   H3S 6230   1.336   0.186  13.734  0.2941 -0.0209 -0.6824
   49DOPE   C24 6231   1.477   0.024  13.751  0.0831  0.4085 -0.2272
   49DOPE   H4R 6232   1.529   0.063  13.662 -0.3048 -1.8198 -1.4964
   49DOPE   H4S 6233   1.477  -0.086  13.735 -0.7322  0.1732  1.1824
   49DOPE   C25 6234   1.552   0.060  13.877 -0.6336 -0.6910 -0.0893
   49DOPE   H5R 6235   1.658   0.030  13.862 -0.3951  0.2270 -0.2697
   49DOPE   H5S 6236   1.506  -0.004  13.955 -0.5048  1.8475  2.2014
   49DOPE   C26 6237   1.548   0.212  13.902 -0.2068  0.2925 -0.2945
   49DOPE   H6R 6238   1.457   0.239  13.960 -0.7962 -1.3618 -0.3977
   49DOPE   H6S 6239   1.555   0.282  13.816 -0.3663  1.0718  0.3196
   49DOPE   C27 6240   1.680   0.262  13.968 -0.1444  0.3035  0.6994
   49DOPE   H7R 6241   1.690   0.369  13.942 -0.1596  0.1192 -0.0889
   49DOPE   H7S 6242   1.768   0.211  13.923  0.2310  1.1615  0.4413
   49DOPE   C28 6243   1.685   0.253  14.125 -0.0697 -0.0962 -0.4969
   49DOPE   H8R 6244   1.789   0.242  14.162 -0.5879 -0.6614  0.8267
   49DOPE   H8S 6245   1.653   0.151  14.154 -0.2517 -0.1613 -0.9180
   49DOPE   C29 6246   1.612   0.373  14.189 -0.6120 -0.5307  0.1923
   49DOPE   H9R 6247   1.543   0.434  14.129 -1.9276 -2.3438 -0.2175
   49DOPE  C210 6248   1.632   0.419  14.314  0.5736 -0.2651  0.9805
   49DOPE  H10R 6249   1.572   0.506  14.344 -0.0500 -0.7236  1.0840
   49DOPE  C211 6250   1.725   0.359  14.414  0.1097  0.2637 -0.0139
   49DOPE  H11R 6251   1.811   0.429  14.422 -0.2865  0.5303  3.6014
   49DOPE  H11S 6252   1.771   0.263  14.382 -1.6362 -0.5329 -0.2457
   49DOPE  C212 6253   1.658   0.342  14.552  0.0246 -0.2198 -0.5126
   49DOPE  H12R 6254   1.574   0.271  14.534  0.8660 -1.4858  0.4152
   49DOPE  H12S 6255   1.622   0.438  14.594  1.5512 -0.4283  1.4159
   49DOPE  C213 6256   1.754   0.284  14.653 -0.0723  0.2712  0.5255
   49DOPE  H13R 6257   1.849   0.336  14.630 -0.3041  0.2325 -0.6000
   49DOPE  H13S 6258   1.774   0.176  14.639  1.5240  0.5410  0.5760
   49DOPE  C214 6259   1.714   0.314  14.796  0.2281 -0.7610 -0.8289
   49DOPE  H14R 6260   1.615   0.265  14.808 -0.1166 -0.5891 -2.5738
   49DOPE  H14S 6261   1.706   0.424  14.807  0.4898 -0.7296 -0.9442
   49DOPE  C215 6262   1.811   0.271  14.913  0.6096  0.0888  0.0896
   49DOPE  H15R 6263   1.815   0.160  14.914  0.1614  0.0171 -1.9321
   49DOPE  H15S 6264   1.769   0.321  15.003 -0.1014  1.3373 -0.8956
   49DOPE  C216 6265   1.960   0.318  14.904  0.4556  0.4505  0.3408
   49DOPE  H16R 6266   1.969   0.406  14.838 -0.7484 -1.3179 -2.3237
   49DOPE  H16S 6267   2.007   0.231  14.854 -0.1248 -0.2245  0.9338
   49DOPE  C217 6268   2.028   0.357  15.036 -0.4921  0.0607 -0.1365
   49DOPE  H17R 6269   1.958   0.426  15.087  0.4343  0.6900  0.3025
   49DOPE  H17S 6270   2.127   0.407  15.026 -0.4638 -0.2174 -1.5531
   49DOPE  C218 6271   2.060   0.238  15.117  0.2795  0.0382  0.0650
   49DOPE  H18R 6272   1.967   0.197  15.164  1.8831 -1.7480  1.8820
   49DOPE  H18S 6273   2.124   0.271  15.202  2.9505 -1.4328 -1.2684
   49DOPE  H18T 6274   2.111   0.158  15.060 -0.1350  1.3264 -2.2098
   49DOPE   C33 6275   0.884  -0.071  14.078  0.1234  0.1305 -0.2108
   49DOPE   H3X 6276   0.926  -0.168  14.043 -2.9850 -2.7167  3.0989
   49DOPE   H3Y 6277   0.777  -0.096  14.093 -0.3126  0.3093 -2.6835
   49DOPE   C34 6278   0.959  -0.048  14.211 -0.1222  0.0335 -1.0528
   49DOPE   H4X 6279   0.951  -0.139  14.274  1.2397 -0.9919 -2.2845
   49DOPE   H4Y 6280   1.066  -0.020  14.205 -0.1724  1.5786  2.8840
   49DOPE   C35 6281   0.890   0.062  14.301  0.2721 -0.0039  0.6038
   49DOPE   H5X 6282   0.782   0.039  14.293  0.6940 -1.4688 -1.6390
   49DOPE   H5Y 6283   0.892   0.164  14.257 -1.1305 -0.8903 -1.6884
   49DOPE   C36 6284   0.929   0.044  14.446  0.0573 -0.4477 -0.9634
   49DOPE   H6X 6285   1.039   0.060  14.455 -0.0785  0.4557 -0.7638
   49DOPE   H6Y 6286   0.907  -0.058  14.484  1.0671  0.0748  1.2428
   49DOPE   C37 6287   0.843   0.133  14.543 -0.3686  0.6263 -0.1690
   49DOPE   H7X 6288   0.876   0.239  14.535 -0.7072  0.6404 -1.5998
   49DOPE   H7Y 6289   0.738   0.123  14.508  0.4296 -3.0580 -2.1384
   49DOPE   C38 6290   0.850   0.090  14.694  0.1897  0.1989  0.3118
   49DOPE   H8X 6291   0.848  -0.021  14.697  0.8486  0.1992  1.1895
   49DOPE   H8Y 6292   0.764   0.116  14.758 -0.9656 -1.1959 -0.6244
   49DOPE   C39 6293   0.990   0.120  14.746  0.3061  0.4964  0.1301
   49DOPE   H9X 6294   1.078   0.077  14.696 -1.3317 -4.7023  1.1266
   49DOPE  C310 6295   1.025   0.200  14.846  0.2601 -0.8816 -0.6060
   49DOPE  H10X 6296   1.132   0.211  14.873  0.2156  1.0222 -1.0272
   49DOPE  C311 6297   0.935   0.290  14.933 -1.1025 -0.7914 -0.6996
   49DOPE  H11X 6298   0.873   0.358  14.870 -2.1816 -1.8219 -0.7671
   49DOPE  H11Y 6299   0.873   0.238  15.008  1.0859 -0.3430  1.5486
   49DOPE  C312 6300   1.021   0.383  15.025 -0.5242 -0.3289  0.1937
   49DOPE  H12X 6301   0.943   0.437  15.082 -0.5018  0.0536 -0.1321
   49DOPE  H12Y 6302   1.081   0.454  14.964 -0.8526 -0.7542 -0.6484
   49DOPE  C313 6303   1.112   0.303  15.123 -0.2632  0.2093  0.6105
   49DOPE  H13X 6304   1.050   0.232  15.180 -2.9860  0.7240 -1.4989
   49DOPE  H13Y 6305   1.195   0.247  15.075  0.0951  0.0435  1.4024
   49DOPE  C314 6306   1.185   0.381  15.229 -0.2798  0.8491  0.7297
   49DOPE  H14X 6307   1.212   0.304  15.305  1.7357 -0.5297 -1.2592
   49DOPE  H14Y 6308   1.113   0.450  15.278  0.3931  1.6463  0.6056
   49DOPE  C315 6309   1.304   0.467  15.184 -0.0476  0.2728 -0.1757
   49DOPE  H15X 6310   1.270   0.536  15.103 -1.8323 -0.4511 -0.0998
   49DOPE  H15Y 6311   1.383   0.401  15.144  2.0938  1.3550  2.0468
   49DOPE  C316 6312   1.346   0.545  15.311 -1.5305 -0.2820 -0.7412
   49DOPE  H16X 6313   1.248   0.585  15.347 -0.6669  1.1957  0.0435
   49DOPE  H16Y 6314   1.421   0.620  15.280 -0.6491 -1.1989 -0.8599
   49DOPE  C317 6315   1.411   0.466  15.431  0.7990  0.1054  0.5042
   49DOPE  H17X 6316   1.404   0.523  15.526 -0.8059  2.2684 -0.8124
   49DOPE  H17Y 6317   1.347   0.377  15.450 -0.4332  1.2859  2.2439
   49DOPE  C318 6318   1.555   0.423  15.405  0.3098 -0.0083  0.3449
   49DOPE  H18X 6319   1.581   0.353  15.488 -1.0611 -0.4269  0.4389
   49DOPE  H18Y 6320   1.571   0.361  15.314  2.7733 -0.2431  0.8601
   49DOPE  H18Z 6321   1.628   0.506  15.402  1.0779 -0.7148 -1.5813
   50DOPE     N 6322   1.543   4.508  13.412  0.5198 -0.2193  0.0988
   50DOPE   HN1 6323   1.547   4.458  13.321  0.5497  0.2875 -0.1835
   50DOPE   HN2 6324   1.612   4.472  13.480  0.3483 -0.9483 -0.1101
   50DOPE   HN3 6325   1.450   4.491  13.455  0.6625 -0.7492  0.2017
   50DOPE   C12 6326   1.565   4.662  13.395 -0.6279  0.3321 -0.3759
   50DOPE  H12A 6327   1.478   4.709  13.346 -1.3630 -0.7647 -0.1407
   50DOPE  H12B 6328   1.651   4.663  13.325 -0.3956  0.8201 -0.0920
   50DOPE   C11 6329   1.600   4.728  13.525  0.0503  0.3767 -0.2323
   50DOPE  H11A 6330   1.514   4.737  13.595  0.1591  3.4583 -0.3503
   50DOPE  H11B 6331   1.622   4.836  13.514  1.7443  0.0723 -0.2082
   50DOPE     P 6332   1.853   4.679  13.584  0.1953 -0.0431  0.0961
   50DOPE   O13 6333   1.880   4.795  13.493  0.1376  0.1729  0.3780
   50DOPE   O14 6334   1.918   4.552  13.546 -0.1191 -0.1918  0.1902
   50DOPE   O11 6335   1.885   4.724  13.731 -0.3539 -0.8639 -0.2350
   50DOPE   O12 6336   1.696   4.652  13.599  0.1724 -0.1897 -0.1992
   50DOPE    C1 6337   1.803   4.822  13.797  0.0110  0.3191 -0.4961
   50DOPE    HA 6338   1.696   4.791  13.791 -0.0032  0.6974 -3.7694
   50DOPE    HB 6339   1.825   4.924  13.759  1.8034  1.6124  3.4756
   50DOPE    C2 6340   1.842   4.833  13.948  0.2482 -0.4102 -0.3238
   50DOPE    HS 6341   1.946   4.870  13.945 -0.6136  2.2084 -0.5524
   50DOPE   O21 6342   1.818   4.700  14.006 -0.0056  0.2003  0.2370
   50DOPE   C21 6343   1.888   4.680  14.117 -0.1731 -0.4089 -0.4427
   50DOPE   O22 6344   1.984   4.755  14.145  0.1808 -0.2027 -0.2232
   50DOPE   C22 6345   1.835   4.574  14.194  0.5676  0.7043 -0.0125
   50DOPE   H2R 6346   1.831   4.478  14.137  2.7046 -0.3405  1.4810
   50DOPE   H2S 6347   1.727   4.589  14.218  0.4559 -0.4777  0.2933
   50DOPE    C3 6348   1.764   4.940  14.028 -0.3079  0.3589  0.4965
   50DOPE    HX 6349   1.809   5.038  14.000 -1.0825  1.2725  2.2446
   50DOPE    HY 6350   1.787   4.924  14.136  2.5069 -1.2610 -0.2563
   50DOPE   O31 6351   1.630   4.939  13.986 -0.1383 -0.2234  0.2474
   50DOPE   C31 6352   1.542   4.928  14.083  0.7038 -0.2981 -0.1570
   50DOPE   O32 6353   1.563   4.923  14.204  0.1229 -0.0195 -0.0228
   50DOPE   C32 6354   1.406   4.912  14.020  0.2360  0.5043 -0.2710
   50DOPE   H2X 6355   1.328   4.910  14.099 -0.1105 -1.0425 -0.6076
   50DOPE   H2Y 6356   1.380   5.005  13.966 -0.6936  1.2880  1.4518
   50DOPE   C23 6357   1.910   4.550  14.330  0.8925  0.8006  0.0239
   50DOPE   H3R 6358   1.837   4.520  14.409  0.4165  0.4503 -0.5454
   50DOPE   H3S 6359   1.966   4.641  14.361  1.8767  0.2640 -0.1326
   50DOPE   C24 6360   2.019   4.444  14.306 -0.5888  0.4055  0.3799
   50DOPE   H4R 6361   2.100   4.502  14.256 -0.3748  1.1126  1.5251
   50DOPE   H4S 6362   1.974   4.372  14.234 -1.8386  1.3384  0.1889
   50DOPE   C25 6363   2.068   4.376  14.429 -0.1740 -0.4190  0.1043
   50DOPE   H5R 6364   2.074   4.445  14.516 -1.4096 -1.2228  0.8617
   50DOPE   H5S 6365   2.169   4.335  14.407  0.3437  0.1799  1.2557
   50DOPE   C26 6366   1.982   4.258  14.480 -0.7922  0.2573 -0.2935
   50DOPE   H6R 6367   2.038   4.181  14.538  0.8370  0.8233 -1.0527
   50DOPE   H6S 6368   1.939   4.198  14.397 -0.3728  0.4114 -0.6234
   50DOPE   C27 6369   1.866   4.299  14.580 -0.0015  0.0130 -0.0488
   50DOPE   H7R 6370   1.776   4.322  14.518  0.3959 -0.0468 -0.6515
   50DOPE   H7S 6371   1.904   4.394  14.622  2.3138 -0.5394 -0.7396
   50DOPE   C28 6372   1.851   4.209  14.701  1.0277 -0.0487 -0.0977
   50DOPE   H8R 6373   1.949   4.167  14.730  1.1687  1.6902  2.3134
   50DOPE   H8S 6374   1.791   4.118  14.682  0.3114  0.2892  0.4993
   50DOPE   C29 6375   1.792   4.275  14.811  0.1859  0.5484  0.5474
   50DOPE   H9R 6376   1.711   4.340  14.777 -0.2318 -0.0490  0.3882
   50DOPE  C210 6377   1.828   4.274  14.936  0.5026 -0.2448 -0.2902
   50DOPE  H10R 6378   1.770   4.327  15.012 -0.1379  2.5045 -2.4960
   50DOPE  C211 6379   1.930   4.175  14.993 -1.0675  0.6170  0.8375
   50DOPE  H11R 6380   1.989   4.202  15.083  2.6804 -2.3770 -0.4557
   50DOPE  H11S 6381   2.007   4.134  14.924 -1.3676  0.8770  0.3443
   50DOPE  C212 6382   1.864   4.043  15.035  0.2841  0.3382  0.1608
   50DOPE  H12R 6383   1.943   3.976  15.075  1.2438  1.2621 -0.1374
   50DOPE  H12S 6384   1.820   3.997  14.944 -0.4189  0.5943  0.3648
   50DOPE  C213 6385   1.753   4.059  15.141  0.1247  0.2453  0.3538
   50DOPE  H13R 6386   1.666   4.117  15.106 -0.2556  1.4025  2.9872
   50DOPE  H13S 6387   1.800   4.103  15.232  1.3165 -1.7010  0.7369
   50DOPE  C214 6388   1.688   3.919  15.176 -0.1935  0.3265  0.7976
   50DOPE  H14R 6389   1.766   3.840  15.169  0.4467  0.9549  0.6448
   50DOPE  H14S 6390   1.619   3.890  15.094  1.3662 -0.0801 -0.4206
   50DOPE  C215 6391   1.616   3.919  15.309 -0.1008 -0.0152 -0.1420
   50DOPE  H15R 6392   1.696   3.927  15.385 -0.7509 -2.4526  0.8861
   50DOPE  H15S 6393   1.567   3.825  15.343  1.1056 -0.8225 -0.5736
   50DOPE  C216 6394   1.520   4.038  15.327  0.0077 -0.1618 -0.0810
   50DOPE  H16R 6395   1.448   4.027  15.243  0.3536  0.6989 -0.5069
   50DOPE  H16S 6396   1.576   4.131  15.305  0.0602 -0.1307  0.1766
   50DOPE  C217 6397   1.449   4.055  15.458 -0.2610  0.4841  0.0684
   50DOPE  H17R 6398   1.515   4.048  15.547 -0.4867  0.9484  0.2773
   50DOPE  H17S 6399   1.385   3.967  15.476  0.6835 -0.0250  1.0975
   50DOPE  C218 6400   1.365   4.179  15.455 -1.0027 -0.4445  0.1656
   50DOPE  H18R 6401   1.268   4.163  15.403 -2.5186  2.0151  1.9833
   50DOPE  H18S 6402   1.417   4.260  15.399 -0.5365 -0.3878  0.6741
   50DOPE  H18T 6403   1.343   4.215  15.558 -0.8771  0.0329  0.0277
   50DOPE   C33 6404   1.399   4.804  13.912  0.6101  0.3144  0.2277
   50DOPE   H3X 6405   1.427   4.701  13.944 -1.8740 -1.2587 -2.2166
   50DOPE   H3Y 6406   1.468   4.816  13.826  0.0270 -0.1984 -0.3222
   50DOPE   C34 6407   1.257   4.787  13.846  0.1724  0.0218 -0.2374
   50DOPE   H4X 6408   1.198   4.881  13.847  0.0068  0.0240 -2.7125
   50DOPE   H4Y 6409   1.275   4.770  13.737 -0.3231 -0.2114 -0.2850
   50DOPE   C35 6410   1.161   4.677  13.901  0.5292 -0.3012 -0.2963
   50DOPE   H5X 6411   1.201   4.575  13.881  0.2899 -0.6199  0.7785
   50DOPE   H5Y 6412   1.067   4.685  13.843  0.3974  1.2979  0.0771
   50DOPE   C36 6413   1.132   4.698  14.051  0.5640  0.2873 -0.9292
   50DOPE   H6X 6414   1.224   4.706  14.114  0.5649 -2.2984 -0.4814
   50DOPE   H6Y 6415   1.076   4.610  14.091  2.1003 -0.3268 -0.0351
   50DOPE   C37 6416   1.042   4.817  14.078 -0.4290 -0.4830  0.1934
   50DOPE   H7X 6417   1.100   4.909  14.054 -0.4159 -0.9367 -1.6314
   50DOPE   H7Y 6418   0.963   4.812  14.000  0.0703 -1.3081 -0.2704
   50DOPE   C38 6419   0.986   4.815  14.227  0.0573 -0.2152 -0.8243
   50DOPE   H8X 6420   1.078   4.813  14.289 -0.9516  1.8967  0.8805
   50DOPE   H8Y 6421   0.911   4.734  14.242  0.6706 -0.6778 -0.1612
   50DOPE   C39 6422   0.925   4.948  14.263 -0.1782  0.4809  0.1380
   50DOPE   H9X 6423   0.889   5.001  14.173  0.4850  3.1572  1.3617
   50DOPE  C310 6424   0.909   4.994  14.387 -0.3205 -0.5904 -0.3343
   50DOPE  H10X 6425   0.863   5.093  14.399 -0.5738 -0.7366 -0.0647
   50DOPE  C311 6426   0.933   4.918  14.516 -0.3717 -0.1101  0.5556
   50DOPE  H11X 6427   0.875   4.823  14.520 -1.2980  0.3647 -0.9388
   50DOPE  H11Y 6428   1.040   4.890  14.523 -0.4459 -0.0234  2.9720
   50DOPE  C312 6429   0.913   4.991  14.643  0.0894  0.3814 -0.3260
   50DOPE  H12X 6430   0.976   5.082  14.657 -1.3374  1.7430 -2.2729
   50DOPE  H12Y 6431   0.940   4.912  14.717  0.4545 -0.5605 -1.4240
   50DOPE  C313 6432   0.765   5.030  14.669 -0.4526 -0.0940 -0.0350
   50DOPE  H13X 6433   0.752   5.117  14.601  0.0190  1.3876  1.7054
   50DOPE  H13Y 6434   0.698   4.949  14.633 -0.7806  0.3358 -0.3986
   50DOPE  C314 6435   0.739   5.072  14.814 -0.4369  0.4988  0.9787
   50DOPE  H14X 6436   0.823   5.134  14.850  0.9561 -1.2115  0.7967
   50DOPE  H14Y 6437   0.751   4.979  14.873 -3.9856  0.4836  1.9363
   50DOPE  C315 6438   0.611   5.148  14.855  0.3885  0.4390  0.4533
   50DOPE  H15X 6439   0.615   5.247  14.806  1.2195  0.8315  1.2734
   50DOPE  H15Y 6440   0.594   5.169  14.963 -4.6881  0.0519 -0.0364
   50DOPE  C316 6441   0.473   5.082  14.801  0.2751  0.0928  0.7236
   50DOPE  H16X 6442   0.440   4.992  14.857  1.4674 -2.4857 -2.4386
   50DOPE  H16Y 6443   0.489   5.051  14.696 -0.9169  0.8217  0.3088
   50DOPE  C317 6444   0.360   5.186  14.793 -0.1561  0.2294  0.4737
   50DOPE  H17X 6445   0.255   5.158  14.768  0.0346  1.3436 -1.8988
   50DOPE  H17Y 6446   0.349   5.234  14.893 -1.0684 -0.6468  0.8116
   50DOPE  C318 6447   0.381   5.309  14.697 -0.2635  0.5036 -0.5378
   50DOPE  H18X 6448   0.365   5.282  14.590  0.9197  0.6497 -0.7616
   50DOPE  H18Y 6449   0.308   5.384  14.733  0.5838  0.9279  0.3411
   50DOPE  H18Z 6450   0.480   5.358  14.710  0.2326 -0.3607 -0.9478
   51DOPE     N 6451   3.217   0.289  13.199  0.0602  0.7729 -0.4553
   51DOPE   HN1 6452   3.192   0.276  13.299 -0.9096  0.0309 -0.7865
   51DOPE   HN2 6453   3.162   0.364  13.153  1.1045  0.8965 -1.5716
   51DOPE   HN3 6454   3.202   0.199  13.149 -3.7484  1.6073 -1.1025
   51DOPE   C12 6455   3.362   0.313  13.186  0.4827  0.5076  0.3754
   51DOPE  H12A 6456   3.379   0.414  13.226 -0.3075  1.6639 -1.9934
   51DOPE  H12B 6457   3.391   0.316  13.078  1.8355 -1.2890  0.6254
   51DOPE   C11 6458   3.445   0.212  13.264  0.1324  0.5799 -0.1321
   51DOPE  H11A 6459   3.427   0.211  13.373 -2.1034 -0.4643 -0.4579
   51DOPE  H11B 6460   3.547   0.244  13.231  0.0145  0.3496 -0.7460
   51DOPE     P 6461   3.502  -0.043  13.285  0.0443  0.0794  0.1197
   51DOPE   O13 6462   3.617  -0.094  13.207 -0.4430 -0.2367  0.2835
   51DOPE   O14 6463   3.391  -0.141  13.315  0.0753 -0.1648 -0.2518
   51DOPE   O11 6464   3.558   0.021  13.416  0.3946  0.4050  0.5156
   51DOPE   O12 6465   3.429   0.084  13.209  0.9579  0.7413 -0.3798
   51DOPE    C1 6466   3.690   0.065  13.437  0.2314  0.5152 -0.0426
   51DOPE    HA 6467   3.712   0.155  13.375  1.1971  0.7237  0.5688
   51DOPE    HB 6468   3.766  -0.012  13.411 -0.5856 -0.1251 -0.5821
   51DOPE    C2 6469   3.713   0.079  13.594  0.6404 -0.9624  0.7521
   51DOPE    HS 6470   3.819   0.103  13.618  0.3249  0.7306  0.6166
   51DOPE   O21 6471   3.652  -0.027  13.675  0.2785 -0.3836 -0.5869
   51DOPE   C21 6472   3.691  -0.147  13.671 -0.2469  0.7760  0.6546
   51DOPE   O22 6473   3.788  -0.184  13.602  0.6600 -0.2312  0.5422
   51DOPE   C22 6474   3.611  -0.241  13.752  0.6605  0.1668  0.0757
   51DOPE   H2R 6475   3.584  -0.326  13.685 -0.9005  0.0239  0.8389
   51DOPE   H2S 6476   3.515  -0.198  13.789  0.9364  1.5858 -0.8017
   51DOPE    C3 6477   3.645   0.213  13.625  0.2039  0.4408 -0.1467
   51DOPE    HX 6478   3.539   0.198  13.594  0.2233 -0.1865  0.0804
   51DOPE    HY 6479   3.680   0.299  13.565  1.8241  0.4927  0.8160
   51DOPE   O31 6480   3.673   0.252  13.758 -0.7274 -0.7832 -0.4737
   51DOPE   C31 6481   3.585   0.213  13.848 -0.0299  0.0754 -0.2362
   51DOPE   O32 6482   3.496   0.135  13.816 -0.2681  0.3713  0.2865
   51DOPE   C32 6483   3.630   0.254  13.988 -0.2517 -0.0248  0.0427
   51DOPE   H2X 6484   3.735   0.219  13.997 -0.1113 -0.1397 -1.8284
   51DOPE   H2Y 6485   3.618   0.362  14.008 -0.0760 -0.0334  0.1940
   51DOPE   C23 6486   3.690  -0.286  13.882  0.3339  0.2361 -0.2423
   51DOPE   H3R 6487   3.737  -0.201  13.936 -0.2755  1.9933 -2.3242
   51DOPE   H3S 6488   3.784  -0.340  13.859 -0.0803 -0.5175 -0.1890
   51DOPE   C24 6489   3.596  -0.378  13.963 -0.3539 -0.1485  0.3822
   51DOPE   H4R 6490   3.575  -0.474  13.912  1.5183 -2.1979  3.1176
   51DOPE   H4S 6491   3.499  -0.327  13.978  0.8347  2.2773  0.4085
   51DOPE   C25 6492   3.650  -0.425  14.102 -0.3134 -0.8436 -0.0303
   51DOPE   H5R 6493   3.567  -0.483  14.148 -2.7076  1.0155 -1.7016
   51DOPE   H5S 6494   3.663  -0.334  14.164 -0.8374 -0.8873  0.1460
   51DOPE   C26 6495   3.779  -0.510  14.110  0.4148 -0.3372 -0.8593
   51DOPE   H6R 6496   3.860  -0.456  14.056 -0.8112  2.6185  0.0571
   51DOPE   H6S 6497   3.755  -0.610  14.069 -0.2140 -0.2113 -0.8049
   51DOPE   C27 6498   3.836  -0.537  14.248 -0.2423  0.7713 -0.4018
   51DOPE   H7R 6499   3.816  -0.454  14.319 -2.3929 -0.6616  0.7588
   51DOPE   H7S 6500   3.941  -0.573  14.246 -1.7030 -4.1340 -0.1988
   51DOPE   C28 6501   3.761  -0.641  14.336 -0.0931  0.1875  0.6355
   51DOPE   H8R 6502   3.652  -0.617  14.336 -0.2995 -0.1930 -2.9757
   51DOPE   H8S 6503   3.791  -0.641  14.443 -1.6585  0.5509  1.1104
   51DOPE   C29 6504   3.789  -0.779  14.277  0.8695 -0.0356 -0.2817
   51DOPE   H9R 6505   3.709  -0.812  14.209 -0.7823  1.0180  1.0570
   51DOPE  C210 6506   3.904  -0.850  14.278  0.5865 -0.1170  0.7998
   51DOPE  H10R 6507   3.917  -0.935  14.210 -1.7394  0.0345  0.0983
   51DOPE  C211 6508   4.030  -0.805  14.348 -0.8820  0.2227  0.0895
   51DOPE  H11R 6509   4.006  -0.726  14.423  2.4060 -0.4602  2.1094
   51DOPE  H11S 6510   4.096  -0.750  14.278 -0.0163  0.0448  0.7419
   51DOPE  C212 6511   4.121  -0.917  14.399  0.4830 -0.1418  0.8446
   51DOPE  H12R 6512   4.212  -0.857  14.422  1.7888 -1.3588 -0.9352
   51DOPE  H12S 6513   4.138  -0.987  14.315 -2.3164  1.4430 -1.2258
   51DOPE  C213 6514   4.050  -0.992  14.517 -0.0859 -0.1197  0.0217
   51DOPE  H13R 6515   3.951  -1.027  14.481 -0.5791  1.6140 -0.4012
   51DOPE  H13S 6516   4.013  -0.923  14.596 -0.0028 -0.8037  0.6750
   51DOPE  C214 6517   4.130  -1.100  14.594 -0.3496 -0.5888 -0.6643
   51DOPE  H14R 6518   4.168  -1.183  14.530 -2.1007 -2.5011  0.6527
   51DOPE  H14S 6519   4.067  -1.157  14.665 -0.9362 -0.6715 -1.2309
   51DOPE  C215 6520   4.247  -1.034  14.675 -0.0087  0.0778 -0.1205
   51DOPE  H15R 6521   4.193  -0.968  14.747 -0.9419 -0.7879 -0.0036
   51DOPE  H15S 6522   4.305  -0.967  14.608  0.2336  0.8637  0.8388
   51DOPE  C216 6523   4.338  -1.131  14.751 -0.3011  0.3282  0.6895
   51DOPE  H16R 6524   4.337  -1.231  14.704  2.1722  0.3498  0.4663
   51DOPE  H16S 6525   4.300  -1.151  14.853  0.8092 -0.9321  0.8847
   51DOPE  C217 6526   4.479  -1.083  14.773 -0.2078  0.4460 -0.3865
   51DOPE  H17R 6527   4.541  -1.068  14.682  0.6535  1.2349  0.3285
   51DOPE  H17S 6528   4.521  -1.164  14.836 -0.5859  1.3946  1.1481
   51DOPE  C218 6529   4.477  -0.962  14.866 -0.0746  0.6172  0.2788
   51DOPE  H18R 6530   4.473  -0.870  14.804 -1.8596 -0.1093 -0.7804
   51DOPE  H18S 6531   4.571  -0.967  14.925  1.5109 -0.6117 -2.2164
   51DOPE  H18T 6532   4.401  -0.971  14.947  3.1835 -0.4634  3.4677
   51DOPE   C33 6533   3.548   0.192  14.097  0.9914  0.0018 -0.4959
   51DOPE   H3X 6534   3.589   0.093  14.125  2.1784  1.0856  1.8502
   51DOPE   H3Y 6535   3.447   0.172  14.054  0.9143 -1.0322  0.1392
   51DOPE   C34 6536   3.524   0.282  14.225 -0.5890 -0.1842 -0.1394
   51DOPE   H4X 6537   3.463   0.372  14.200  0.9129  0.8299 -0.3094
   51DOPE   H4Y 6538   3.459   0.226  14.296 -1.3188  0.7325 -0.0526
   51DOPE   C35 6539   3.651   0.336  14.290  0.0656  0.1582 -0.3812
   51DOPE   H5X 6540   3.692   0.417  14.226  0.5301 -1.0506 -1.6866
   51DOPE   H5Y 6541   3.732   0.259  14.290  0.8699  0.8375 -3.5730
   51DOPE   C36 6542   3.628   0.410  14.423  0.2925  0.1775 -0.4062
   51DOPE   H6X 6543   3.571   0.503  14.401  0.7965  0.9780  1.4178
   51DOPE   H6Y 6544   3.727   0.435  14.466  0.0049 -1.1973  1.2086
   51DOPE   C37 6545   3.547   0.328  14.532 -0.4028  0.1466  0.2091
   51DOPE   H7X 6546   3.538   0.402  14.614  0.3801  2.5704 -1.7625
   51DOPE   H7Y 6547   3.444   0.293  14.507 -0.7919  0.4370  1.3676
   51DOPE   C38 6548   3.615   0.203  14.594  0.8827 -0.5117  0.0734
   51DOPE   H8X 6549   3.713   0.240  14.630  0.2242  3.0646 -1.3455
   51DOPE   H8Y 6550   3.637   0.133  14.511  0.9063 -1.6653  1.0178
   51DOPE   C39 6551   3.525   0.137  14.705  0.1333 -0.0051 -0.6308
   51DOPE   H9X 6552   3.450   0.064  14.671 -0.2749  1.2181 -2.4945
   51DOPE  C310 6553   3.524   0.169  14.839 -0.2008  0.7931 -0.1395
   51DOPE  H10X 6554   3.462   0.103  14.901  2.4519 -1.4600  0.3247
   51DOPE  C311 6555   3.599   0.278  14.912  0.4241 -0.3065 -0.5431
   51DOPE  H11X 6556   3.694   0.235  14.951 -0.6680 -2.5875 -0.2147
   51DOPE  H11Y 6557   3.625   0.369  14.855  2.1061  0.4043  1.2306
   51DOPE  C312 6558   3.514   0.340  15.036  0.7022  0.2384 -0.0227
   51DOPE  H12X 6559   3.481   0.253  15.098 -1.1185 -0.9382 -2.4662
   51DOPE  H12Y 6560   3.421   0.385  14.997 -0.1776  1.0105  2.7506
   51DOPE  C313 6561   3.593   0.442  15.116 -0.1629  0.2698  0.2066
   51DOPE  H13X 6562   3.547   0.460  15.215  1.4258 -0.5190  1.1437
   51DOPE  H13Y 6563   3.691   0.390  15.128 -0.8124 -0.8342  0.8866
   51DOPE  C314 6564   3.607   0.578  15.040 -0.6576  0.3035  0.2061
   51DOPE  H14X 6565   3.506   0.624  15.034 -0.1904  2.0032  3.2072
   51DOPE  H14Y 6566   3.634   0.558  14.934 -1.6242  2.2167 -0.4554
   51DOPE  C315 6567   3.713   0.680  15.094 -0.9680  0.3197  0.2659
   51DOPE  H15X 6568   3.711   0.765  15.022 -2.9358  0.2751  0.1942
   51DOPE  H15Y 6569   3.808   0.627  15.075 -0.7744  0.6493  0.3147
   51DOPE  C316 6570   3.685   0.750  15.222  0.4530 -0.1170 -0.6863
   51DOPE  H16X 6571   3.766   0.823  15.242 -0.0197  0.6082 -1.3374
   51DOPE  H16Y 6572   3.674   0.675  15.304  0.1000  0.8643  0.1869
   51DOPE  C317 6573   3.550   0.828  15.223  0.2519 -0.1548 -0.1458
   51DOPE  H17X 6574   3.564   0.921  15.164 -2.3450  0.2856 -0.1722
   51DOPE  H17Y 6575   3.464   0.766  15.189 -0.7338 -0.0776  2.0173
   51DOPE  C318 6576   3.508   0.877  15.369  0.5333  0.4347 -0.2083
   51DOPE  H18X 6577   3.405   0.919  15.369  0.5511  0.4863  0.2103
   51DOPE  H18Y 6578   3.505   0.785  15.432  0.6756  0.0558 -0.7516
   51DOPE  H18Z 6579   3.582   0.954  15.400 -0.3052  1.1804 -0.0225
   52DOPE     N 6580   0.112   4.558  13.429  0.3397  0.2928 -0.3163
   52DOPE   HN1 6581   0.187   4.604  13.374  0.1832 -1.5467 -2.2097
   52DOPE   HN2 6582   0.085   4.466  13.388 -0.3796  0.8722 -1.1686
   52DOPE   HN3 6583   0.031   4.622  13.415 -1.3284 -1.7939 -0.8122
   52DOPE   C12 6584   0.141   4.550  13.579 -0.1429  0.0519  0.1961
   52DOPE  H12A 6585   0.220   4.471  13.580  1.1569  1.3030  1.2487
   52DOPE  H12B 6586   0.048   4.521  13.633 -0.1001 -0.8325 -0.1945
   52DOPE   C11 6587   0.190   4.690  13.624  0.1300  0.5162  0.4704
   52DOPE  H11A 6588   0.207   4.678  13.733 -0.8222  1.5819  0.7586
   52DOPE  H11B 6589   0.111   4.767  13.609  2.3383  2.3108 -4.0876
   52DOPE     P 6590   0.430   4.796  13.604 -0.5411 -0.1798  0.3590
   52DOPE   O13 6591   0.384   4.917  13.672  0.0380 -0.2254  0.3751
   52DOPE   O14 6592   0.532   4.814  13.501 -0.8473  0.2165 -0.4424
   52DOPE   O11 6593   0.487   4.687  13.704 -0.7344 -0.6016 -0.2296
   52DOPE   O12 6594   0.302   4.724  13.543 -0.0085 -0.2973 -0.5902
   52DOPE    C1 6595   0.615   4.701  13.763  0.0884  0.6764 -0.5094
   52DOPE    HA 6596   0.691   4.766  13.715 -0.0072  0.7740 -0.5299
   52DOPE    HB 6597   0.678   4.609  13.761  0.3622  0.8013  1.0546
   52DOPE    C2 6598   0.611   4.742  13.912 -0.1264 -0.3564 -0.7006
   52DOPE    HS 6599   0.712   4.720  13.953 -0.0672  1.6533  0.3629
   52DOPE   O21 6600   0.508   4.671  13.980  0.7883 -0.3420 -0.8083
   52DOPE   C21 6601   0.530   4.539  13.993 -0.1152 -0.2126 -0.2736
   52DOPE   O22 6602   0.640   4.493  13.972 -0.6828 -0.1784 -0.3807
   52DOPE   C22 6603   0.404   4.470  14.056 -0.7914 -0.7362  0.0361
   52DOPE   H2R 6604   0.341   4.436  13.970 -0.4179  1.0856 -1.0055
   52DOPE   H2S 6605   0.341   4.541  14.114  0.6802  2.1832 -1.7413
   52DOPE    C3 6606   0.575   4.891  13.938  0.1138 -1.1271 -0.1032
   52DOPE    HX 6607   0.468   4.913  13.915  0.3119  1.1960  0.9451
   52DOPE    HY 6608   0.639   4.955  13.874 -1.6244  2.3584  1.3511
   52DOPE   O31 6609   0.595   4.925  14.079 -0.2844 -0.5569 -0.6455
   52DOPE   C31 6610   0.491   4.913  14.158  0.4046 -0.1966 -0.4424
   52DOPE   O32 6611   0.374   4.914  14.131  0.1562 -0.7815  0.3827
   52DOPE   C32 6612   0.541   4.921  14.301  0.1067  0.0677 -0.2616
   52DOPE   H2X 6613   0.624   4.995  14.308  1.7591 -1.8083  1.1097
   52DOPE   H2Y 6614   0.457   4.956  14.366 -0.3867  0.3347 -1.0210
   52DOPE   C23 6615   0.446   4.352  14.142 -0.5674  1.4391 -0.2903
   52DOPE   H3R 6616   0.486   4.388  14.240  0.5095  0.2952 -0.2868
   52DOPE   H3S 6617   0.523   4.291  14.091  0.5110  2.8579 -0.3982
   52DOPE   C24 6618   0.335   4.252  14.168  0.0786 -0.3486  0.2074
   52DOPE   H4R 6619   0.365   4.185  14.251 -0.5119 -0.3312  0.4439
   52DOPE   H4S 6620   0.304   4.199  14.075 -0.7086  2.5894 -1.3350
   52DOPE   C25 6621   0.193   4.308  14.224 -0.6125  0.8242  0.7447
   52DOPE   H5R 6622   0.122   4.222  14.224  1.8264 -1.3863 -1.4125
   52DOPE   H5S 6623   0.157   4.385  14.153 -0.6132 -1.0387 -1.3675
   52DOPE   C26 6624   0.195   4.365  14.359 -0.1134  0.6800  0.1491
   52DOPE   H6R 6625   0.280   4.437  14.368  1.2973 -1.0139  0.8438
   52DOPE   H6S 6626   0.220   4.282  14.428 -2.9394 -1.4850 -1.2468
   52DOPE   C27 6627   0.053   4.401  14.400 -0.4582  0.5858  1.2614
   52DOPE   H7R 6628   0.006   4.312  14.447  1.4210 -1.0304  0.2257
   52DOPE   H7S 6629  -0.005   4.441  14.314  1.8325 -0.3089 -0.8244
   52DOPE   C28 6630   0.048   4.520  14.498 -0.1391 -0.2125  0.3825
   52DOPE   H8R 6631  -0.051   4.570  14.513  0.1068 -0.2029  2.2976
   52DOPE   H8S 6632   0.101   4.604  14.450 -0.7794 -0.3027 -0.5237
   52DOPE   C29 6633   0.106   4.494  14.631  0.0822 -0.0523 -0.1987
   52DOPE   H9R 6634   0.119   4.389  14.659 -1.3042  0.1613  1.3967
   52DOPE  C210 6635   0.163   4.593  14.710 -0.1103 -0.5473 -0.3205
   52DOPE  H10R 6636   0.216   4.571  14.804 -0.6322  1.9909  0.6400
   52DOPE  C211 6637   0.159   4.742  14.680  0.0887  0.3808  0.4210
   52DOPE  H11R 6638   0.058   4.773  14.647 -0.1863 -0.9821 -0.0793
   52DOPE  H11S 6639   0.230   4.763  14.597  0.5294  0.2936  0.7780
   52DOPE  C212 6640   0.205   4.829  14.797 -0.0011 -0.2633  0.0709
   52DOPE  H12R 6641   0.196   4.939  14.784  0.6732  0.4102  4.0297
   52DOPE  H12S 6642   0.313   4.816  14.820  0.1731 -0.0850 -0.6200
   52DOPE  C213 6643   0.118   4.796  14.923  0.7085  0.0486 -0.0618
   52DOPE  H13R 6644   0.156   4.699  14.962  2.5752  0.9203  0.4319
   52DOPE  H13S 6645   0.010   4.794  14.899  1.1541  0.7874 -2.4794
   52DOPE  C214 6646   0.144   4.906  15.028  0.2084 -0.4452 -0.3475
   52DOPE  H14R 6647   0.070   4.988  15.013  0.8714  0.2213 -0.0656
   52DOPE  H14S 6648   0.239   4.957  15.001 -0.5890  1.5650  0.4189
   52DOPE  C215 6649   0.141   4.872  15.176 -1.1088  0.0279 -0.5934
   52DOPE  H15R 6650   0.211   4.789  15.201 -1.5687 -0.1882  0.0105
   52DOPE  H15S 6651   0.036   4.836  15.186 -1.0123  0.0633  0.7409
   52DOPE  C216 6652   0.172   4.999  15.262  0.2508 -0.3221 -0.3448
   52DOPE  H16R 6653   0.137   4.987  15.366  3.6426 -0.8570  0.8567
   52DOPE  H16S 6654   0.101   5.080  15.233 -0.4242 -0.2739  1.3337
   52DOPE  C217 6655   0.319   5.041  15.260 -0.2067 -0.2144  0.1054
   52DOPE  H17R 6656   0.348   5.050  15.153 -0.7423 -0.0843 -0.0312
   52DOPE  H17S 6657   0.368   4.950  15.300 -0.5811 -0.6478 -0.3988
   52DOPE  C218 6658   0.362   5.161  15.350 -0.2827  0.4918 -0.2152
   52DOPE  H18R 6659   0.470   5.181  15.335  0.4221 -3.9028 -2.5209
   52DOPE  H18S 6660   0.293   5.243  15.320 -1.2076 -0.3733 -0.5134
   52DOPE  H18T 6661   0.347   5.135  15.457  0.0377 -1.3465 -0.5958
   52DOPE   C33 6662   0.591   4.785  14.360 -0.0109 -0.7696 -0.3413
   52DOPE   H3X 6663   0.654   4.813  14.447  0.7124  0.1302 -1.1275
   52DOPE   H3Y 6664   0.664   4.739  14.290  0.6963  1.7804 -1.3908
   52DOPE   C34 6665   0.479   4.683  14.403  0.2647 -0.7395  0.0678
   52DOPE   H4X 6666   0.401   4.751  14.444  1.3254  0.7770 -0.3392
   52DOPE   H4Y 6667   0.437   4.642  14.309  0.4615 -0.6503 -0.0596
   52DOPE   C35 6668   0.523   4.576  14.505 -0.1490 -0.3039  0.5006
   52DOPE   H5X 6669   0.614   4.518  14.479 -0.0090 -0.3272  1.0290
   52DOPE   H5Y 6670   0.436   4.509  14.520 -0.5998  0.2864  0.5633
   52DOPE   C36 6671   0.543   4.626  14.643 -0.2574  0.2011  0.4393
   52DOPE   H6X 6672   0.459   4.691  14.676  0.1014 -0.0138  1.8834
   52DOPE   H6Y 6673   0.642   4.674  14.656 -0.2994  0.2998  0.3951
   52DOPE   C37 6674   0.546   4.504  14.734  0.4185 -0.4709  0.1527
   52DOPE   H7X 6675   0.451   4.448  14.730  1.3313 -2.0352 -2.0176
   52DOPE   H7Y 6676   0.621   4.436  14.687 -1.0558 -2.7554  0.9205
   52DOPE   C38 6677   0.579   4.539  14.882 -0.0450  0.0973  0.1006
   52DOPE   H8X 6678   0.663   4.612  14.876 -1.1907  1.6390  1.9169
   52DOPE   H8Y 6679   0.614   4.444  14.928 -1.8928 -1.4259 -1.4763
   52DOPE   C39 6680   0.461   4.594  14.957 -0.5847  0.7954 -0.4871
   52DOPE   H9X 6681   0.434   4.701  14.953  0.0909  0.9604 -3.8185
   52DOPE  C310 6682   0.391   4.514  15.040  0.6015 -0.4305  0.1372
   52DOPE  H10X 6683   0.313   4.564  15.100  0.2732  1.8362 -2.0106
   52DOPE  C311 6684   0.401   4.365  15.061  0.4908 -0.0527  0.4438
   52DOPE  H11X 6685   0.464   4.303  14.994 -2.0267 -2.3757  0.0807
   52DOPE  H11Y 6686   0.430   4.345  15.167 -1.2989 -0.6180  0.8539
   52DOPE  C312 6687   0.268   4.294  15.045 -0.1746 -0.0077  0.3276
   52DOPE  H12X 6688   0.190   4.364  15.082  0.7144  0.8875  0.5360
   52DOPE  H12Y 6689   0.268   4.207  15.114  2.2204  0.9248  1.6221
   52DOPE  C313 6690   0.231   4.248  14.904 -0.0372  0.3537 -0.3790
   52DOPE  H13X 6691   0.121   4.235  14.902  0.0445 -0.4245 -2.6233
   52DOPE  H13Y 6692   0.244   4.334  14.835  0.3455  0.0437 -0.7005
   52DOPE  C314 6693   0.297   4.119  14.852 -0.3261 -0.0567 -0.0221
   52DOPE  H14X 6694   0.257   4.039  14.918 -1.2157  1.2985  1.1211
   52DOPE  H14Y 6695   0.406   4.137  14.866 -0.5556  1.5922 -0.1156
   52DOPE  C315 6696   0.270   4.074  14.703  0.2656 -0.1388  0.1560
   52DOPE  H15X 6697   0.234   4.159  14.641 -1.8792 -3.0156 -2.8618
   52DOPE  H15Y 6698   0.195   3.993  14.711 -0.2102  0.3806  1.0906
   52DOPE  C316 6699   0.393   4.018  14.643 -0.7028  0.4422 -0.0489
   52DOPE  H16X 6700   0.437   3.929  14.693 -0.3209  0.3178 -0.5934
   52DOPE  H16Y 6701   0.473   4.095  14.658 -1.0934  0.3790  2.9072
   52DOPE  C317 6702   0.367   3.983  14.499  0.1368 -0.1315  0.6651
   52DOPE  H17X 6703   0.284   3.910  14.483 -0.4559  1.1611 -3.7618
   52DOPE  H17Y 6704   0.335   4.073  14.441  3.1861 -0.5201 -1.8874
   52DOPE  C318 6705   0.488   3.927  14.427  0.3028 -0.2188  0.3067
   52DOPE  H18X 6706   0.528   3.840  14.483  0.0414 -1.2309 -1.0338
   52DOPE  H18Y 6707   0.452   3.906  14.324  0.8735  0.4102 -0.0341
   52DOPE  H18Z 6708   0.569   4.004  14.417 -0.3717  0.5563  0.6560
   53DOPE     N 6709   4.523   7.672  13.257 -0.1637  0.4038 -0.3635
   53DOPE   HN1 6710   4.563   7.582  13.224 -4.4320 -1.7011 -0.5424
   53DOPE   HN2 6711   4.420   7.683  13.249 -0.4536 -0.4624  1.5038
   53DOPE   HN3 6712   4.574   7.751  13.213 -2.6986  2.6451  0.4307
   53DOPE   C12 6713   4.552   7.667  13.399  0.6334  0.8678 -0.1883
   53DOPE  H12A 6714   4.499   7.574  13.430 -1.2335  1.4610 -1.4278
   53DOPE  H12B 6715   4.509   7.757  13.447 -0.4464  1.1411 -1.5931
   53DOPE   C11 6716   4.707   7.647  13.426  0.2989 -0.6685  0.1474
   53DOPE  H11A 6717   4.724   7.650  13.536  0.2978 -0.6465  0.1465
   53DOPE  H11B 6718   4.771   7.727  13.382  0.1890  0.3550  1.7303
   53DOPE     P 6719   4.887   7.472  13.348  0.2858  0.0190  0.1192
   53DOPE   O13 6720   4.932   7.535  13.224 -0.1604  0.5742 -0.4778
   53DOPE   O14 6721   4.874   7.320  13.344 -0.7116  0.7310 -0.3315
   53DOPE   O11 6722   4.977   7.513  13.472  0.4992  0.1104 -0.0560
   53DOPE   O12 6723   4.742   7.521  13.378  0.2606  0.9817 -0.1797
   53DOPE    C1 6724   5.109   7.569  13.449  0.0083  0.1415  0.7563
   53DOPE    HA 6725   5.099   7.651  13.374 -1.3423 -0.2447  0.4936
   53DOPE    HB 6726   5.184   7.492  13.421  0.8593  0.0644  3.0221
   53DOPE    C2 6727   5.186   7.627  13.572  0.1348 -0.2776 -0.3451
   53DOPE    HS 6728   5.275   7.681  13.535  0.8769  0.0117  1.7734
   53DOPE   O21 6729   5.218   7.519  13.666  0.3130 -0.6418 -0.4802
   53DOPE   C21 6730   5.332   7.543  13.730 -0.3335  0.6682  0.6221
   53DOPE   O22 6731   5.411   7.631  13.705  0.2217  0.3662 -0.3428
   53DOPE   C22 6732   5.338   7.464  13.854  0.1368  0.2321 -0.3589
   53DOPE   H2R 6733   5.440   7.465  13.896 -0.2441  1.3557  0.6004
   53DOPE   H2S 6734   5.318   7.358  13.826  1.4140  0.1101 -0.8526
   53DOPE    C3 6735   5.084   7.736  13.634 -0.8450  0.2372 -0.3124
   53DOPE    HX 6736   4.989   7.686  13.661 -0.6442 -0.8804 -1.5757
   53DOPE    HY 6737   5.058   7.801  13.548  0.7851  1.0507 -0.2316
   53DOPE   O31 6738   5.142   7.813  13.745 -0.5183 -0.3841  0.3806
   53DOPE   C31 6739   5.245   7.895  13.715  0.2888 -0.1278 -0.0626
   53DOPE   O32 6740   5.281   7.922  13.602  0.0055  0.3162  0.1893
   53DOPE   C32 6741   5.295   7.955  13.849  0.2841 -0.3301  0.9930
   53DOPE   H2X 6742   5.206   7.989  13.904  0.3639  2.7727 -0.5886
   53DOPE   H2Y 6743   5.337   7.866  13.900  1.0861 -1.5955 -1.6864
   53DOPE   C23 6744   5.233   7.500  13.961 -0.0496 -0.2266 -0.1412
   53DOPE   H3R 6745   5.222   7.429  14.045 -0.4593 -0.1079 -0.0919
   53DOPE   H3S 6746   5.134   7.512  13.912 -0.0310 -0.6927 -0.2910
   53DOPE   C24 6747   5.281   7.618  14.048 -0.8466  0.0322 -0.1697
   53DOPE   H4R 6748   5.345   7.682  13.984 -3.0136  2.1258 -0.4039
   53DOPE   H4S 6749   5.337   7.579  14.135  0.0938 -0.1223 -0.8282
   53DOPE   C25 6750   5.171   7.702  14.107 -0.0149 -0.2508  0.3404
   53DOPE   H5R 6751   5.113   7.626  14.163 -0.6052 -0.5815 -0.6903
   53DOPE   H5S 6752   5.095   7.735  14.033 -0.7946 -0.2010  1.1579
   53DOPE   C26 6753   5.221   7.821  14.194 -0.4148  0.3351  0.2224
   53DOPE   H6R 6754   5.311   7.862  14.145  0.0578  1.7745  2.1856
   53DOPE   H6S 6755   5.261   7.782  14.290 -1.2389 -0.6492  0.1865
   53DOPE   C27 6756   5.117   7.930  14.207 -0.1528 -0.1707  0.1068
   53DOPE   H7R 6757   5.042   7.889  14.278 -1.7425 -1.3204 -2.1286
   53DOPE   H7S 6758   5.064   7.961  14.115  1.1649  2.8826  0.2794
   53DOPE   C28 6759   5.185   8.057  14.252  0.3880  0.5869 -0.1724
   53DOPE   H8R 6760   5.268   8.084  14.185  3.0220 -0.1245  2.5668
   53DOPE   H8S 6761   5.234   8.041  14.351  0.2761 -1.2783 -0.3862
   53DOPE   C29 6762   5.085   8.169  14.265 -0.2439  0.1290 -0.5036
   53DOPE   H9R 6763   5.085   8.233  14.176 -1.1513 -1.0128 -1.3462
   53DOPE  C210 6764   5.013   8.195  14.380 -0.1872 -0.5828  0.4813
   53DOPE  H10R 6765   4.968   8.294  14.393  0.1648 -0.2217 -0.8400
   53DOPE  C211 6766   5.016   8.110  14.507 -0.1018  0.0726  0.5011
   53DOPE  H11R 6767   5.072   8.016  14.485 -1.2525 -0.5531  0.1750
   53DOPE  H11S 6768   4.910   8.081  14.523 -0.3577  0.3873 -0.5635
   53DOPE  C212 6769   5.069   8.189  14.632 -0.0024 -0.2504  0.5597
   53DOPE  H12R 6770   5.005   8.279  14.649  0.9025  0.7051 -0.8529
   53DOPE  H12S 6771   5.172   8.227  14.617  0.0756 -0.5174  0.4092
   53DOPE  C213 6772   5.075   8.099  14.753 -0.0343  0.5015 -0.1713
   53DOPE  H13R 6773   5.100   8.161  14.842 -0.9812  1.4636 -0.5603
   53DOPE  H13S 6774   5.153   8.020  14.741 -1.1405 -0.8717  1.2946
   53DOPE  C214 6775   4.952   8.023  14.793 -0.3832 -0.1667  0.8817
   53DOPE  H14R 6776   4.932   7.928  14.738  0.0663  0.1899  0.0896
   53DOPE  H14S 6777   4.872   8.094  14.763  0.3043 -0.2656 -1.4285
   53DOPE  C215 6778   4.965   7.986  14.934  0.1170 -0.4397 -0.7056
   53DOPE  H15R 6779   5.072   7.972  14.959 -0.2779 -0.0827  1.3676
   53DOPE  H15S 6780   4.914   7.888  14.949 -0.5759  0.0749  0.3491
   53DOPE  C216 6781   4.898   8.090  15.031 -0.0284  0.3427 -0.4189
   53DOPE  H16R 6782   4.787   8.079  15.024 -0.2096  1.5797  0.2159
   53DOPE  H16S 6783   4.919   8.189  14.985  0.2076 -0.4698 -2.1511
   53DOPE  C217 6784   4.944   8.089  15.174  0.3764 -0.4662  0.5647
   53DOPE  H17R 6785   4.870   8.147  15.233  0.6206 -0.2647  0.6749
   53DOPE  H17S 6786   5.038   8.149  15.172  0.7067 -0.8244  2.9508
   53DOPE  C218 6787   4.968   7.959  15.249 -0.2576  0.6336 -0.2357
   53DOPE  H18R 6788   4.979   7.986  15.356 -0.2520  0.9254 -0.3104
   53DOPE  H18S 6789   5.069   7.917  15.228 -1.4773 -2.0370 -1.1318
   53DOPE  H18T 6790   4.896   7.878  15.226 -1.5139  0.6895  2.9873
   53DOPE   C33 6791   5.395   8.073  13.828 -0.0284  0.1520  0.5131
   53DOPE   H3X 6792   5.474   8.059  13.750 -2.5000  1.9620 -2.5648
   53DOPE   H3Y 6793   5.443   8.096  13.925  0.2726 -0.3766  0.4925
   53DOPE   C34 6794   5.332   8.205  13.778 -0.6009 -0.0477 -0.6130
   53DOPE   H4X 6795   5.414   8.258  13.726  0.5913 -0.2736  0.9654
   53DOPE   H4Y 6796   5.258   8.191  13.697 -0.1659  0.9297 -1.1963
   53DOPE   C35 6797   5.275   8.296  13.888 -0.0674  0.7955  0.4354
   53DOPE   H5X 6798   5.351   8.312  13.967  0.3782  1.0562 -0.0366
   53DOPE   H5Y 6799   5.194   8.242  13.941 -1.5667  1.2071 -1.3160
   53DOPE   C36 6800   5.225   8.421  13.819 -0.9282 -0.3303 -0.7764
   53DOPE   H6X 6801   5.143   8.398  13.749  0.0316  0.6402 -2.2811
   53DOPE   H6Y 6802   5.313   8.457  13.761  1.0604 -0.6579  1.8324
   53DOPE   C37 6803   5.183   8.527  13.920  0.0232  0.3492 -0.0154
   53DOPE   H7X 6804   5.110   8.597  13.873  1.1455  1.6881  0.1786
   53DOPE   H7Y 6805   5.135   8.474  14.005  2.2722  0.3128  1.2961
   53DOPE   C38 6806   5.302   8.612  13.982  0.1391  0.4400  0.2227
   53DOPE   H8X 6807   5.353   8.664  13.898 -0.5764  0.4374 -0.2236
   53DOPE   H8Y 6808   5.373   8.538  14.024  0.2552  0.2836 -0.2387
   53DOPE   C39 6809   5.244   8.711  14.083  0.3944  0.1714  0.6679
   53DOPE   H9X 6810   5.207   8.804  14.038 -1.1897 -1.6999 -2.2096
   53DOPE  C310 6811   5.261   8.687  14.214 -0.1880  0.4037 -0.6361
   53DOPE  H10X 6812   5.216   8.760  14.283 -1.0868 -0.0389 -0.7400
   53DOPE  C311 6813   5.317   8.569  14.287 -0.1753 -0.1349  0.1721
   53DOPE  H11X 6814   5.248   8.483  14.296 -1.0241  0.0315 -3.2690
   53DOPE  H11Y 6815   5.406   8.530  14.232  0.0374 -3.5022  2.5955
   53DOPE  C312 6816   5.360   8.612  14.436  0.7181 -1.0510 -0.3970
   53DOPE  H12X 6817   5.418   8.707  14.431 -0.0162 -0.6555 -2.3558
   53DOPE  H12Y 6818   5.429   8.534  14.475  0.8953  0.4565  2.5956
   53DOPE  C313 6819   5.230   8.605  14.530  0.7362  0.1038 -0.3974
   53DOPE  H13X 6820   5.153   8.669  14.480  0.2731 -1.4658 -1.7760
   53DOPE  H13Y 6821   5.190   8.502  14.540 -0.5696  0.7262  1.3655
   53DOPE  C314 6822   5.239   8.668  14.670 -0.5994 -0.9538  0.1492
   53DOPE  H14X 6823   5.153   8.730  14.702  0.0453 -0.9020  1.8582
   53DOPE  H14Y 6824   5.323   8.740  14.664 -1.4692  0.2278  1.6658
   53DOPE  C315 6825   5.270   8.563  14.782  0.0688  1.0212  0.3579
   53DOPE  H15X 6826   5.323   8.474  14.741 -2.1790  0.4539 -1.5067
   53DOPE  H15Y 6827   5.177   8.527  14.830  0.1946  2.0508  1.4175
   53DOPE  C316 6828   5.358   8.630  14.896  0.7041  0.1185  0.3130
   53DOPE  H16X 6829   5.302   8.721  14.927 -1.1167 -0.5038 -0.9595
   53DOPE  H16Y 6830   5.457   8.664  14.859 -0.2840  1.1159 -1.5648
   53DOPE  C317 6831   5.381   8.545  15.018 -0.0785  0.6004  0.2493
   53DOPE  H17X 6832   5.444   8.459  14.985 -0.5298  1.4616 -3.3200
   53DOPE  H17Y 6833   5.446   8.599  15.090 -1.1265  0.1566  1.5649
   53DOPE  C318 6834   5.252   8.497  15.086 -0.3727 -1.0522 -0.1862
   53DOPE  H18X 6835   5.186   8.586  15.094  1.3574  0.2155  0.6324
   53DOPE  H18Y 6836   5.199   8.411  15.040 -1.2739  0.6796 -2.6067
   53DOPE  H18Z 6837   5.276   8.466  15.190 -0.4582  1.2935  0.5855
   54DOPE     N 6838   0.363   2.509  13.460 -0.0628 -0.6166  0.0036
   54DOPE   HN1 6839   0.444   2.546  13.514 -1.4674 -0.9075  2.4127
   54DOPE   HN2 6840   0.292   2.565  13.511  0.9697  0.4003  0.3772
   54DOPE   HN3 6841   0.347   2.407  13.471 -1.7332 -0.3853 -0.1138
   54DOPE   C12 6842   0.383   2.549  13.315  0.2500 -0.3996 -0.0134
   54DOPE  H12A 6843   0.282   2.560  13.271 -0.2617 -1.1255  0.9481
   54DOPE  H12B 6844   0.431   2.466  13.259 -0.9516 -0.5652 -0.8243
   54DOPE   C11 6845   0.462   2.680  13.299 -0.5612 -0.2378 -0.8048
   54DOPE  H11A 6846   0.488   2.671  13.192  1.6937 -0.1799 -0.3164
   54DOPE  H11B 6847   0.559   2.677  13.354 -0.6180  0.1738 -0.6798
   54DOPE     P 6848   0.445   2.938  13.348  0.1281  0.0550 -0.2519
   54DOPE   O13 6849   0.357   3.015  13.444 -0.4584 -0.5446 -0.2003
   54DOPE   O14 6850   0.455   2.977  13.206  0.0492 -0.5517  0.0123
   54DOPE   O11 6851   0.588   2.914  13.422 -0.4237  0.1013  0.4985
   54DOPE   O12 6852   0.387   2.790  13.335  0.3571  0.3133 -0.1328
   54DOPE    C1 6853   0.591   2.858  13.550 -0.6119 -0.4731 -0.3587
   54DOPE    HA 6854   0.678   2.789  13.549 -0.1627  0.0848 -1.7486
   54DOPE    HB 6855   0.503   2.794  13.573 -0.8405  0.5370  1.8816
   54DOPE    C2 6856   0.598   2.967  13.657  0.1272  0.0468  0.4988
   54DOPE    HS 6857   0.512   3.034  13.636  0.3577 -0.0082 -0.6909
   54DOPE   O21 6858   0.715   3.049  13.646 -0.1898  0.0163 -0.3611
   54DOPE   C21 6859   0.732   3.158  13.716  0.4942 -1.0840  0.1336
   54DOPE   O22 6860   0.652   3.202  13.801 -0.7090 -0.2796 -0.4199
   54DOPE   C22 6861   0.850   3.229  13.646 -0.2784 -0.6642  0.0324
   54DOPE   H2R 6862   0.817   3.242  13.541  0.3164  0.1500 -0.0605
   54DOPE   H2S 6863   0.934   3.158  13.653 -1.2337 -1.9110 -0.7182
   54DOPE    C3 6864   0.599   2.902  13.795  0.0863  0.2699 -0.5036
   54DOPE    HX 6865   0.621   2.977  13.874  1.3944  0.6631 -1.2033
   54DOPE    HY 6866   0.682   2.829  13.795  0.5586  0.8001 -0.5949
   54DOPE   O31 6867   0.474   2.834  13.824  0.6172 -0.2394  0.0205
   54DOPE   C31 6868   0.480   2.725  13.903  0.4510  0.0343  0.0625
   54DOPE   O32 6869   0.582   2.681  13.941  0.4242 -0.0766  0.5436
   54DOPE   C32 6870   0.339   2.676  13.933  0.6488  0.1903 -0.2382
   54DOPE   H2X 6871   0.308   2.757  14.002 -0.3014 -1.6580  1.5990
   54DOPE   H2Y 6872   0.271   2.689  13.846  0.6058 -1.7565 -0.5437
   54DOPE   C23 6873   0.860   3.376  13.693  0.0112  0.9001  0.9447
   54DOPE   H3R 6874   0.765   3.428  13.717  0.1387  1.1493  0.9229
   54DOPE   H3S 6875   0.918   3.434  13.618  0.5893  1.9764  2.1820
   54DOPE   C24 6876   0.947   3.377  13.814 -0.7219  0.1589 -0.5579
   54DOPE   H4R 6877   1.049   3.339  13.790 -0.3659  1.5360 -1.3981
   54DOPE   H4S 6878   0.914   3.307  13.893 -1.2370  0.5766 -0.3938
   54DOPE   C25 6879   0.982   3.514  13.894  0.1684 -0.4322  0.6553
   54DOPE   H5R 6880   1.027   3.584  13.820 -1.3410  0.1805  0.2877
   54DOPE   H5S 6881   1.051   3.500  13.980  0.5452  2.5772  0.9324
   54DOPE   C26 6882   0.863   3.585  13.947  0.4298 -0.1606  0.7562
   54DOPE   H6R 6883   0.804   3.638  13.870  0.5424  0.2511  0.9526
   54DOPE   H6S 6884   0.885   3.665  14.021 -0.8153  0.0584  0.9085
   54DOPE   C27 6885   0.766   3.490  14.024  0.0040  0.3470  0.5148
   54DOPE   H7R 6886   0.810   3.440  14.113 -0.2380 -0.5839  0.1177
   54DOPE   H7S 6887   0.718   3.411  13.963 -2.0039  1.0743  1.0571
   54DOPE   C28 6888   0.639   3.565  14.074  0.0314 -0.6535 -0.2501
   54DOPE   H8R 6889   0.554   3.496  14.096  1.8162 -3.0815 -0.6247
   54DOPE   H8S 6890   0.608   3.617  13.981 -1.8248  0.2020  0.7652
   54DOPE   C29 6891   0.678   3.663  14.190 -0.2980 -0.0349 -0.3409
   54DOPE   H9R 6892   0.745   3.745  14.162 -1.1122  0.3343 -1.2377
   54DOPE  C210 6893   0.650   3.648  14.321  0.3365 -0.9365  0.7598
   54DOPE  H10R 6894   0.701   3.728  14.379  0.5797  0.3112 -1.0914
   54DOPE  C211 6895   0.555   3.558  14.385  0.3699  0.5574 -0.0898
   54DOPE  H11R 6896   0.506   3.494  14.309  0.2832 -0.4754  0.8119
   54DOPE  H11S 6897   0.477   3.615  14.440  0.7053  1.5674 -0.6384
   54DOPE  C212 6898   0.634   3.477  14.492 -0.1846 -0.5582 -0.3651
   54DOPE  H12R 6899   0.666   3.552  14.568  0.0572 -2.4586  1.4832
   54DOPE  H12S 6900   0.720   3.432  14.438  1.6325  2.2355 -0.0465
   54DOPE  C213 6901   0.539   3.375  14.548 -0.7037  0.1752 -0.2266
   54DOPE  H13R 6902   0.481   3.328  14.466 -2.9767  0.4326  1.1468
   54DOPE  H13S 6903   0.466   3.428  14.613  0.2850  1.6267 -0.2487
   54DOPE  C214 6904   0.620   3.264  14.623  0.1022  0.7743 -0.1959
   54DOPE  H14R 6905   0.671   3.321  14.702  1.8988 -1.6959  0.5650
   54DOPE  H14S 6906   0.702   3.218  14.562 -1.4490 -1.1786 -0.9360
   54DOPE  C215 6907   0.531   3.150  14.669  0.5068  0.3839  0.4589
   54DOPE  H15R 6908   0.585   3.091  14.746  0.2925  0.9550  1.0591
   54DOPE  H15S 6909   0.510   3.087  14.580  1.0974  0.7623  0.0425
   54DOPE  C216 6910   0.394   3.190  14.723  1.1101  1.0159  0.7105
   54DOPE  H16R 6911   0.340   3.224  14.632  2.7634  1.1189 -0.2755
   54DOPE  H16S 6912   0.394   3.281  14.786 -2.4020  0.3712  1.8606
   54DOPE  C217 6913   0.323   3.082  14.798  0.1200 -0.7013  0.4348
   54DOPE  H17R 6914   0.325   2.981  14.752  0.1777 -0.2295 -0.6204
   54DOPE  H17S 6915   0.215   3.107  14.793 -0.2388 -2.2558 -0.2791
   54DOPE  C218 6916   0.377   3.080  14.944  0.3053  0.1315 -0.5995
   54DOPE  H18R 6917   0.328   3.001  15.004 -1.1362  0.0902 -1.7939
   54DOPE  H18S 6918   0.345   3.174  14.994 -1.6767 -0.9084  0.1647
   54DOPE  H18T 6919   0.488   3.067  14.946  0.5020  1.7110  1.0335
   54DOPE   C33 6920   0.330   2.534  13.995 -0.2523 -0.6471  0.0929
   54DOPE   H3X 6921   0.358   2.547  14.101 -1.0499  1.4231  0.1035
   54DOPE   H3Y 6922   0.409   2.474  13.945 -0.8046 -2.1921  1.0086
   54DOPE   C34 6923   0.190   2.464  13.984 -0.3011  0.0113  1.0827
   54DOPE   H4X 6924   0.154   2.480  13.880  1.2681  0.2921  0.5668
   54DOPE   H4Y 6925   0.193   2.354  14.001 -1.1382 -0.1169  0.4826
   54DOPE   C35 6926   0.091   2.528  14.083 -0.2780  0.0994  0.9989
   54DOPE   H5X 6927  -0.011   2.486  14.067  0.4835 -1.2170 -0.5825
   54DOPE   H5Y 6928   0.086   2.638  14.066  1.8817  0.1022  0.1903
   54DOPE   C36 6929   0.121   2.513  14.237 -0.3269 -0.4045 -0.3112
   54DOPE   H6X 6930   0.036   2.562  14.288 -1.2672 -1.4644 -0.8100
   54DOPE   H6Y 6931   0.204   2.586  14.245 -0.7946  0.1479 -0.4242
   54DOPE   C37 6932   0.172   2.377  14.293  0.5242 -0.4835 -0.3344
   54DOPE   H7X 6933   0.243   2.322  14.228  1.7603  1.9111 -1.1307
   54DOPE   H7Y 6934   0.247   2.408  14.368  0.6845  0.0685 -0.7149
   54DOPE   C38 6935   0.052   2.309  14.367  0.4649 -0.5705 -0.2689
   54DOPE   H8X 6936  -0.033   2.298  14.296 -0.2224  1.3749  0.2033
   54DOPE   H8Y 6937   0.022   2.385  14.441  0.6470 -1.4554  0.7318
   54DOPE   C39 6938   0.094   2.182  14.431  0.3108  0.0488  0.5232
   54DOPE   H9X 6939   0.103   2.100  14.358 -0.3743 -0.5477  1.0964
   54DOPE  C310 6940   0.134   2.163  14.561 -0.0013  1.0710  1.2966
   54DOPE  H10X 6941   0.156   2.061  14.595  1.2880  0.2006 -1.8081
   54DOPE  C311 6942   0.136   2.259  14.677  0.4194  0.0047 -0.8154
   54DOPE  H11X 6943   0.104   2.361  14.645  0.1327  0.3386  0.4585
   54DOPE  H11Y 6944   0.059   2.223  14.749  0.8225  0.9028  0.1005
   54DOPE  C312 6945   0.275   2.269  14.738  0.2948 -0.2275  0.2470
   54DOPE  H12X 6946   0.344   2.299  14.656  0.6668  0.1270  0.6811
   54DOPE  H12Y 6947   0.299   2.167  14.776 -0.3347 -0.1430  0.8818
   54DOPE  C313 6948   0.273   2.361  14.859  0.0913 -0.3585  0.6338
   54DOPE  H13X 6949   0.259   2.463  14.816  0.1102 -0.5764  0.0998
   54DOPE  H13Y 6950   0.200   2.333  14.938  1.2764 -1.3425  1.4134
   54DOPE  C314 6951   0.416   2.374  14.927 -0.9509 -0.2039  0.5729
   54DOPE  H14X 6952   0.482   2.431  14.859 -1.3921 -1.0408 -0.5858
   54DOPE  H14Y 6953   0.460   2.273  14.939  2.3470  0.6406 -2.6011
   54DOPE  C315 6954   0.431   2.441  15.070  0.3707  0.0985  0.7480
   54DOPE  H15X 6955   0.537   2.448  15.104  1.0632  1.6482 -1.4374
   54DOPE  H15Y 6956   0.383   2.364  15.133 -1.4015  0.1851 -0.4406
   54DOPE  C316 6957   0.378   2.586  15.072 -0.5798  0.1481 -0.3053
   54DOPE  H16X 6958   0.278   2.584  15.024 -0.3713 -0.3017 -0.7289
   54DOPE  H16Y 6959   0.445   2.659  15.022  0.0326  0.2265  0.5895
   54DOPE  C317 6960   0.359   2.636  15.211 -0.7730 -0.2364 -1.0688
   54DOPE  H17X 6961   0.276   2.577  15.255  1.1863 -1.4736  1.1348
   54DOPE  H17Y 6962   0.455   2.608  15.259 -0.4873  0.3620 -1.2862
   54DOPE  C318 6963   0.324   2.786  15.229  0.1502 -0.5411 -0.1140
   54DOPE  H18X 6964   0.310   2.808  15.337 -1.3359  2.8430 -0.8581
   54DOPE  H18Y 6965   0.413   2.839  15.190  1.2403 -2.2574 -0.0648
   54DOPE  H18Z 6966   0.239   2.820  15.166  0.6926 -1.1815 -1.2355
   55DOPE     N 6967   0.938   6.568  13.093 -0.3585  0.1191 -0.0979
   55DOPE   HN1 6968   1.030   6.582  13.139 -0.2873 -0.9743  0.1117
   55DOPE   HN2 6969   0.875   6.550  13.173 -2.6727  1.9844 -1.3827
   55DOPE   HN3 6970   0.942   6.487  13.028  0.0144 -1.0366  1.3039
   55DOPE   C12 6971   0.899   6.702  13.030  1.1728  0.3258 -0.5305
   55DOPE  H12A 6972   0.978   6.722  12.955  1.1399 -0.7420 -0.8628
   55DOPE  H12B 6973   0.908   6.777  13.112 -0.4698 -0.2925  0.2673
   55DOPE   C11 6974   0.749   6.700  12.983 -0.0851  0.8976  0.0684
   55DOPE  H11A 6975   0.743   6.606  12.923  3.5114  0.9096 -0.5369
   55DOPE  H11B 6976   0.741   6.791  12.920  2.7157  0.6519 -0.7846
   55DOPE     P 6977   0.544   6.786  13.108 -0.3175  0.2509  0.1489
   55DOPE   O13 6978   0.435   6.725  13.029  0.4353 -0.1277  0.3795
   55DOPE   O14 6979   0.574   6.930  13.096  0.9664  0.4541 -0.1269
   55DOPE   O11 6980   0.499   6.767  13.262 -0.3817 -0.1618 -0.4802
   55DOPE   O12 6981   0.666   6.701  13.100 -0.0406  0.3315 -0.2940
   55DOPE    C1 6982   0.467   6.640  13.309  0.5454 -0.8257 -0.3810
   55DOPE    HA 6983   0.560   6.589  13.341  0.9640  0.0280 -0.2230
   55DOPE    HB 6984   0.405   6.576  13.242 -0.7905  0.3278 -0.3040
   55DOPE    C2 6985   0.380   6.652  13.445 -0.8726  0.4523 -0.3073
   55DOPE    HS 6986   0.381   6.547  13.480 -0.4443  0.4025 -0.4546
   55DOPE   O21 6987   0.251   6.695  13.401 -0.2934 -0.5284 -0.1284
   55DOPE   C21 6988   0.149   6.653  13.468 -0.0509 -0.0621  0.0333
   55DOPE   O22 6989   0.158   6.569  13.558  0.0329 -0.3587  0.7194
   55DOPE   C22 6990   0.014   6.717  13.421  0.4950  0.0636  0.0951
   55DOPE   H2R 6991  -0.014   6.649  13.338 -0.6946 -1.2760  1.5058
   55DOPE   H2S 6992   0.031   6.820  13.385 -1.2944  0.7822  1.1715
   55DOPE    C3 6993   0.445   6.747  13.553 -0.3726  0.2584  0.2136
   55DOPE    HX 6994   0.400   6.846  13.529 -0.7975  0.7170  2.7099
   55DOPE    HY 6995   0.556   6.745  13.552 -0.3578 -0.8822  1.9359
   55DOPE   O31 6996   0.403   6.708  13.684 -0.7388 -0.5061  0.0468
   55DOPE   C31 6997   0.451   6.589  13.733 -0.1052 -0.2328  0.2248
   55DOPE   O32 6998   0.526   6.517  13.668  0.4111  0.0215 -0.4181
   55DOPE   C32 6999   0.383   6.561  13.856 -0.0992  0.3101  0.0795
   55DOPE   H2X 7000   0.453   6.507  13.923 -0.8094  0.6095  1.0879
   55DOPE   H2Y 7001   0.347   6.655  13.903  0.3144  0.4389  0.1434
   55DOPE   C23 7002  -0.105   6.711  13.520  0.5282 -0.1289 -0.4366
   55DOPE   H3R 7003  -0.085   6.638  13.601 -0.1137  0.8055  0.5829
   55DOPE   H3S 7004  -0.194   6.677  13.463  1.4569 -2.3137 -0.6931
   55DOPE   C24 7005  -0.140   6.849  13.580  0.6810 -0.3439 -0.3168
   55DOPE   H4R 7006  -0.234   6.824  13.634  0.1874 -1.4831 -1.6543
   55DOPE   H4S 7007  -0.162   6.921  13.499 -0.1187 -0.3235 -0.0889
   55DOPE   C25 7008  -0.023   6.907  13.665  0.1053  0.4019 -0.0308
   55DOPE   H5R 7009  -0.050   7.012  13.691 -0.3986  0.3719 -0.4212
   55DOPE   H5S 7010   0.072   6.910  13.606  1.3286 -1.1762  1.7269
   55DOPE   C26 7011   0.002   6.843  13.807  0.9292  0.1289 -0.2024
   55DOPE   H6R 7012   0.033   6.738  13.788 -0.1695 -0.7279  2.2507
   55DOPE   H6S 7013  -0.096   6.837  13.859  0.6562 -2.5831 -0.8945
   55DOPE   C27 7014   0.107   6.902  13.902 -0.4943  0.3339  0.5101
   55DOPE   H7R 7015   0.076   7.007  13.917  0.5229  0.6717  0.3032
   55DOPE   H7S 7016   0.198   6.912  13.838 -1.6940 -0.8483 -1.5005
   55DOPE   C28 7017   0.131   6.814  14.028  0.3579  0.0763 -0.8341
   55DOPE   H8R 7018   0.209   6.875  14.080 -2.8140  2.2987  1.6936
   55DOPE   H8S 7019   0.155   6.708  14.007  0.9936 -0.1274  0.7562
   55DOPE   C29 7020   0.008   6.820  14.115  0.3647 -0.1764  1.0046
   55DOPE   H9R 7021  -0.069   6.751  14.076  1.1119 -0.5319  0.1252
   55DOPE  C210 7022  -0.018   6.892  14.225 -0.0976 -0.0296  0.4169
   55DOPE  H10R 7023  -0.123   6.899  14.259 -0.7108  0.3125 -1.4612
   55DOPE  C211 7024   0.078   6.998  14.278 -0.4899 -0.5031 -0.1198
   55DOPE  H11R 7025   0.180   6.986  14.237  0.3921  1.0270  1.4901
   55DOPE  H11S 7026   0.095   6.973  14.384  0.6522  2.4570  0.4849
   55DOPE  C212 7027   0.035   7.139  14.252 -0.2915 -0.4643 -0.7062
   55DOPE  H12R 7028   0.047   7.155  14.143  0.0584  1.1667 -0.4626
   55DOPE  H12S 7029   0.100   7.215  14.301 -0.9014 -0.9930  0.9878
   55DOPE  C213 7030  -0.103   7.180  14.297  0.3976  0.0240  0.0995
   55DOPE  H13R 7031  -0.175   7.123  14.234  1.9447 -1.5806 -0.2807
   55DOPE  H13S 7032  -0.123   7.289  14.283  0.9478  0.0656 -0.3725
   55DOPE  C214 7033  -0.138   7.124  14.434  0.7194  0.4886 -0.1669
   55DOPE  H14R 7034  -0.055   7.145  14.505  1.3854  0.4793 -0.9186
   55DOPE  H14S 7035  -0.144   7.013  14.428  3.2102  0.3182 -0.9476
   55DOPE  C215 7036  -0.273   7.168  14.492 -0.0947 -0.2048 -0.3674
   55DOPE  H15R 7037  -0.345   7.147  14.410 -0.4650 -0.7364  0.0899
   55DOPE  H15S 7038  -0.263   7.279  14.498 -3.1530  0.1394  0.4037
   55DOPE  C216 7039  -0.300   7.108  14.635  0.4397  0.0971  0.9282
   55DOPE  H16R 7040  -0.224   7.133  14.711  0.7477 -1.6075  1.2256
   55DOPE  H16S 7041  -0.320   6.999  14.626  1.8594 -0.1481  0.5858
   55DOPE  C217 7042  -0.418   7.187  14.682 -0.8521 -0.6055 -0.0602
   55DOPE  H17R 7043  -0.499   7.187  14.605  0.0936 -1.5268 -1.0857
   55DOPE  H17S 7044  -0.381   7.291  14.684 -1.4466 -0.2978 -2.3717
   55DOPE  C218 7045  -0.464   7.135  14.820  1.0906 -0.0210  0.5985
   55DOPE  H18R 7046  -0.492   7.029  14.806  1.1541  0.2413 -1.9857
   55DOPE  H18S 7047  -0.541   7.197  14.871  0.5182  0.4880 -0.8201
   55DOPE  H18T 7048  -0.373   7.120  14.882  1.1708 -0.1086  0.4614
   55DOPE   C33 7049   0.258   6.469  13.843  0.0409  0.2213  0.3637
   55DOPE   H3X 7050   0.283   6.389  13.770  3.3010  2.4407 -1.2459
   55DOPE   H3Y 7051   0.181   6.539  13.805  0.4478  0.5017  0.0354
   55DOPE   C34 7052   0.207   6.415  13.973  0.2758 -0.0309 -0.1655
   55DOPE   H4X 7053   0.227   6.492  14.051 -0.7957  1.0988 -0.9510
   55DOPE   H4Y 7054   0.098   6.395  13.963 -0.1321  0.9970  1.6678
   55DOPE   C35 7055   0.278   6.286  14.013  0.1814 -0.2852  0.2664
   55DOPE   H5X 7056   0.379   6.306  14.053 -0.2724 -0.0869  1.3482
   55DOPE   H5Y 7057   0.292   6.221  13.923  1.3631  0.9754 -0.4784
   55DOPE   C36 7058   0.196   6.216  14.118  0.1510 -0.2663  0.1273
   55DOPE   H6X 7059   0.255   6.126  14.144 -0.2595 -0.3052  0.9480
   55DOPE   H6Y 7060   0.101   6.168  14.085  0.0839  0.2362 -0.4373
   55DOPE   C37 7061   0.162   6.287  14.257 -0.7368  0.0813 -0.6493
   55DOPE   H7X 7062   0.083   6.362  14.236 -0.1875  1.5200  2.0280
   55DOPE   H7Y 7063   0.121   6.209  14.325  2.0043 -1.9119 -1.0778
   55DOPE   C38 7064   0.279   6.355  14.327 -0.3284 -0.6757 -0.3432
   55DOPE   H8X 7065   0.227   6.414  14.406 -0.1274 -3.1818  1.8204
   55DOPE   H8Y 7066   0.314   6.423  14.247 -0.6135  0.3196  0.3542
   55DOPE   C39 7067   0.376   6.259  14.389 -0.2320  0.2565 -0.2364
   55DOPE   H9X 7068   0.451   6.223  14.317  0.2332  1.9731 -0.6625
   55DOPE  C310 7069   0.381   6.218  14.522 -0.0841 -0.2325 -0.1830
   55DOPE  H10X 7070   0.450   6.138  14.550 -0.7111 -0.9746 -0.7222
   55DOPE  C311 7071   0.283   6.266  14.625  0.1111  0.7962 -0.2328
   55DOPE  H11X 7072   0.182   6.287  14.584  0.5016  0.3094 -1.4933
   55DOPE  H11Y 7073   0.268   6.186  14.701 -0.7125  1.6354  0.5089
   55DOPE  C312 7074   0.323   6.389  14.695 -0.2022 -0.1550  0.1323
   55DOPE  H12X 7075   0.322   6.472  14.620  0.3790 -0.7374 -0.5350
   55DOPE  H12Y 7076   0.426   6.392  14.736 -0.0712  0.3574 -0.2203
   55DOPE  C313 7077   0.224   6.428  14.813 -0.0565 -0.7886  0.4507
   55DOPE  H13X 7078   0.126   6.446  14.764  0.7359  0.1179 -0.8690
   55DOPE  H13Y 7079   0.203   6.349  14.888 -2.4292 -0.1399  0.5594
   55DOPE  C314 7080   0.259   6.555  14.882 -0.2830 -0.3951 -0.4182
   55DOPE  H14X 7081   0.268   6.634  14.804 -2.2126  1.0987  0.7893
   55DOPE  H14Y 7082   0.359   6.546  14.931 -0.6349  1.6085  0.7704
   55DOPE  C315 7083   0.153   6.588  14.985 -0.5535  0.1631 -0.0187
   55DOPE  H15X 7084   0.143   6.504  15.057 -0.7598 -1.3315 -1.7177
   55DOPE  H15Y 7085   0.058   6.610  14.932  0.3273  2.8960 -0.6231
   55DOPE  C316 7086   0.198   6.717  15.065  0.3228 -0.2863  0.3385
   55DOPE  H16X 7087   0.203   6.803  14.996 -0.0012 -0.2969  0.3017
   55DOPE  H16Y 7088   0.297   6.692  15.109  1.3351  0.4219 -1.4314
   55DOPE  C317 7089   0.096   6.759  15.174 -0.4311  0.0815  0.1391
   55DOPE  H17X 7090  -0.005   6.735  15.133 -0.1021  0.3910 -0.9013
   55DOPE  H17Y 7091   0.105   6.683  15.254  0.0066 -0.6064 -0.5399
   55DOPE  C318 7092   0.125   6.900  15.233  0.2280  0.1222  0.7071
   55DOPE  H18X 7093   0.032   6.916  15.292 -1.2591 -0.6571 -1.3356
   55DOPE  H18Y 7094   0.209   6.893  15.306  1.3602 -0.7738 -0.6409
   55DOPE  H18Z 7095   0.141   6.975  15.154  0.7744  0.7300  1.3752
   56DOPE     N 7096   0.334   7.316  13.297 -0.1252 -0.2620  0.1148
   56DOPE   HN1 7097   0.301   7.346  13.203 -0.1415 -0.0203  0.1962
   56DOPE   HN2 7098   0.386   7.228  13.279 -0.8542 -0.9529  1.2402
   56DOPE   HN3 7099   0.245   7.293  13.346  0.7735 -0.5878  1.6289
   56DOPE   C12 7100   0.412   7.430  13.361 -0.4369  0.4645 -0.3370
   56DOPE  H12A 7101   0.435   7.397  13.465 -0.5062 -1.1019 -0.7966
   56DOPE  H12B 7102   0.342   7.515  13.364  1.2014  1.8405  0.6606
   56DOPE   C11 7103   0.541   7.454  13.288  0.5327  0.4668 -0.5848
   56DOPE  H11A 7104   0.595   7.538  13.334 -0.2999  1.3515 -1.1816
   56DOPE  H11B 7105   0.522   7.498  13.188 -1.0232  0.3337 -0.3767
   56DOPE     P 7106   0.720   7.292  13.394 -0.5132  0.3756 -0.3615
   56DOPE   O13 7107   0.843   7.367  13.373 -0.3305 -0.0564 -0.0367
   56DOPE   O14 7108   0.722   7.145  13.395 -0.0816  0.4124  0.2236
   56DOPE   O11 7109   0.653   7.347  13.525 -0.0826  0.3722  0.1000
   56DOPE   O12 7110   0.624   7.339  13.274  0.3536 -0.0072  0.0758
   56DOPE    C1 7111   0.658   7.290  13.657 -0.5691 -0.0013  0.5028
   56DOPE    HA 7112   0.667   7.370  13.733 -0.5556  3.4217 -2.7621
   56DOPE    HB 7113   0.741   7.217  13.664 -1.3115 -0.9049  0.0832
   56DOPE    C2 7114   0.524   7.214  13.686  0.4055 -0.3982  0.1402
   56DOPE    HS 7115   0.509   7.153  13.595 -0.9507  0.3218 -0.1553
   56DOPE   O21 7116   0.414   7.309  13.703 -0.4149  0.3775 -0.0162
   56DOPE   C21 7117   0.298   7.256  13.680  0.9977 -0.5857 -0.0890
   56DOPE   O22 7118   0.275   7.142  13.643 -0.2967  0.2097  0.1060
   56DOPE   C22 7119   0.190   7.363  13.718 -0.0790  0.1683 -0.8080
   56DOPE   H2R 7120   0.200   7.449  13.650  0.9050  0.5242 -0.2435
   56DOPE   H2S 7121   0.201   7.401  13.822 -1.7553  1.8466 -1.1966
   56DOPE    C3 7122   0.532   7.124  13.812  0.4094  1.0884 -0.6655
   56DOPE    HX 7123   0.586   7.032  13.782 -0.7106  0.4485 -0.7617
   56DOPE    HY 7124   0.428   7.093  13.833  0.5529  1.5062  0.7819
   56DOPE   O31 7125   0.605   7.185  13.919  0.5117 -0.3702 -0.1418
   56DOPE   C31 7126   0.552   7.196  14.038 -0.1503  0.2039 -0.1014
   56DOPE   O32 7127   0.452   7.142  14.079  0.0744 -0.2542 -0.1045
   56DOPE   C32 7128   0.651   7.289  14.126  0.5800  0.1688  0.3211
   56DOPE   H2X 7129   0.755   7.257  14.106  0.1212 -1.3601  0.2966
   56DOPE   H2Y 7130   0.627   7.396  14.107 -0.7689  0.0829  1.3853
   56DOPE   C23 7131   0.050   7.306  13.712 -1.2577  1.0707  0.6605
   56DOPE   H3R 7132   0.035   7.227  13.789 -0.7897  0.2330 -0.0959
   56DOPE   H3S 7133   0.028   7.247  13.621  3.5057  0.4470 -0.3268
   56DOPE   C24 7134  -0.056   7.409  13.741  0.5013  1.3038  0.2727
   56DOPE   H4R 7135  -0.075   7.452  13.640  1.6871 -1.2071 -1.1186
   56DOPE   H4S 7136  -0.027   7.487  13.814  0.9001 -0.4452  2.0749
   56DOPE   C25 7137  -0.192   7.341  13.787 -0.1127  0.2147 -0.0613
   56DOPE   H5R 7138  -0.205   7.257  13.715  0.7776  0.1012 -0.0919
   56DOPE   H5S 7139  -0.283   7.404  13.776 -1.8357 -2.4395 -2.8673
   56DOPE   C26 7140  -0.202   7.300  13.939 -0.1948  0.3872  0.8860
   56DOPE   H6R 7141  -0.212   7.395  13.995 -0.7352  1.5410 -1.0808
   56DOPE   H6S 7142  -0.108   7.249  13.970 -1.4442  0.7611  6.1964
   56DOPE   C27 7143  -0.315   7.204  13.964 -0.1092  0.2612  0.1474
   56DOPE   H7R 7144  -0.387   7.238  13.887 -0.9844  0.6904  1.1386
   56DOPE   H7S 7145  -0.357   7.220  14.066  1.9482 -0.7304  1.2011
   56DOPE   C28 7146  -0.274   7.054  13.942  0.2394 -0.3669  0.2159
   56DOPE   H8R 7147  -0.221   7.006  14.027  2.2382 -0.1518 -0.8504
   56DOPE   H8S 7148  -0.189   7.062  13.871 -0.7987 -0.5702 -1.0839
   56DOPE   C29 7149  -0.393   6.980  13.895  1.0427  0.5377 -0.4303
   56DOPE   H9R 7150  -0.405   6.976  13.786 -0.4011  0.4717 -0.2969
   56DOPE  C210 7151  -0.479   6.900  13.966 -0.1572  0.1238  0.2599
   56DOPE  H10R 7152  -0.576   6.878  13.920 -0.9128  1.5996  1.0745
   56DOPE  C211 7153  -0.477   6.862  14.115 -0.2793 -0.7228 -0.4385
   56DOPE  H11R 7154  -0.375   6.846  14.157 -0.9883 -4.1725  0.2962
   56DOPE  H11S 7155  -0.523   6.763  14.132 -2.2708  0.0102 -1.2952
   56DOPE  C212 7156  -0.565   6.968  14.191  0.5504 -0.6114 -0.1202
   56DOPE  H12R 7157  -0.673   6.965  14.166  0.3093 -0.3553  0.8852
   56DOPE  H12S 7158  -0.526   7.069  14.168 -0.1844 -0.1881  0.4828
   56DOPE  C213 7159  -0.554   6.949  14.343  0.1582  0.4876 -0.4166
   56DOPE  H13R 7160  -0.607   7.030  14.398  0.1900  0.6189 -0.5774
   56DOPE  H13S 7161  -0.444   6.959  14.357  0.4014 -1.3223 -0.8057
   56DOPE  C214 7162  -0.603   6.820  14.399  0.2609  0.0366  0.3992
   56DOPE  H14R 7163  -0.594   6.741  14.321 -0.2035 -0.5903  0.9726
   56DOPE  H14S 7164  -0.712   6.818  14.417  0.1417  0.6605 -0.2014
   56DOPE  C215 7165  -0.515   6.780  14.521 -0.4040 -0.7018  0.1758
   56DOPE  H15R 7166  -0.498   6.872  14.581 -1.1064  2.1293 -3.5817
   56DOPE  H15S 7167  -0.410   6.756  14.494 -0.1108 -0.0075  0.6499
   56DOPE  C216 7168  -0.577   6.679  14.620  0.7630 -0.3980 -0.1778
   56DOPE  H16R 7169  -0.595   6.580  14.573  1.2214 -0.7518  0.3806
   56DOPE  H16S 7170  -0.685   6.705  14.627  0.6085 -1.3217  1.5982
   56DOPE  C217 7171  -0.503   6.668  14.754 -0.1252 -0.0214  0.1780
   56DOPE  H17R 7172  -0.501   6.767  14.805  1.4937 -0.4518  0.9908
   56DOPE  H17S 7173  -0.397   6.649  14.729  0.5409  1.2029  1.8737
   56DOPE  C218 7174  -0.569   6.559  14.850  0.2571  0.3492  0.6009
   56DOPE  H18R 7175  -0.674   6.584  14.876  0.2958  0.5161  0.5977
   56DOPE  H18S 7176  -0.517   6.541  14.947 -0.4684 -2.3050  0.5894
   56DOPE  H18T 7177  -0.575   6.464  14.792 -1.3138 -0.2303  1.6370
   56DOPE   C33 7178   0.617   7.251  14.274  0.3803 -0.2098  0.2541
   56DOPE   H3X 7179   0.608   7.142  14.295 -0.1367 -0.0999  0.6194
   56DOPE   H3Y 7180   0.525   7.302  14.310  1.4203  3.2497 -1.5296
   56DOPE   C34 7181   0.722   7.298  14.367 -0.4058  0.1875  1.0371
   56DOPE   H4X 7182   0.818   7.246  14.350 -0.5137  0.4412 -0.4936
   56DOPE   H4Y 7183   0.736   7.407  14.351  0.5527  0.0569  0.9555
   56DOPE   C35 7184   0.666   7.264  14.503  0.0963  0.0309 -0.0912
   56DOPE   H5X 7185   0.633   7.158  14.507 -0.4171  0.0968 -1.6167
   56DOPE   H5Y 7186   0.572   7.321  14.520 -0.0769  0.3955 -1.9952
   56DOPE   C36 7187   0.766   7.295  14.609  0.6223 -0.9239 -0.5995
   56DOPE   H6X 7188   0.804   7.399  14.609 -0.6394 -0.4480 -0.4744
   56DOPE   H6Y 7189   0.853   7.235  14.576  0.7500 -1.8664  1.3235
   56DOPE   C37 7190   0.721   7.252  14.750  0.0022  0.2250  0.0517
   56DOPE   H7X 7191   0.627   7.300  14.785 -0.1052 -0.3385  0.5452
   56DOPE   H7Y 7192   0.697   7.143  14.754 -0.5908  0.1199 -3.1743
   56DOPE   C38 7193   0.818   7.290  14.861  0.4579  0.0401  0.0993
   56DOPE   H8X 7194   0.920   7.248  14.843  0.3549  0.2880 -1.1069
   56DOPE   H8Y 7195   0.785   7.234  14.951  1.9053 -0.0882  0.5819
   56DOPE   C39 7196   0.838   7.438  14.876 -0.5000 -0.2947  0.2536
   56DOPE   H9X 7197   0.870   7.491  14.785  0.4806 -2.5908 -0.8166
   56DOPE  C310 7198   0.861   7.501  14.997 -0.2544  0.2523  0.6880
   56DOPE  H10X 7199   0.879   7.610  14.992 -0.0513  0.1890 -0.1466
   56DOPE  C311 7200   0.877   7.435  15.133  1.0581 -0.4634  0.0004
   56DOPE  H11X 7201   0.779   7.458  15.179  0.7917 -1.8347  0.1609
   56DOPE  H11Y 7202   0.898   7.326  15.130  2.7391 -0.1804  0.6699
   56DOPE  C312 7203   0.982   7.499  15.224 -0.3046  0.0276  0.3032
   56DOPE  H12X 7204   1.073   7.502  15.160 -1.3225 -0.8233 -1.2614
   56DOPE  H12Y 7205   1.005   7.432  15.309  1.1732 -1.8907 -1.4912
   56DOPE  C313 7206   0.943   7.644  15.261  0.6127 -0.0835 -0.6272
   56DOPE  H13X 7207   1.036   7.696  15.291  1.9419 -1.9511 -1.2955
   56DOPE  H13Y 7208   0.906   7.713  15.183  0.1949  1.0033  0.5182
   56DOPE  C314 7209   0.838   7.643  15.372 -0.9964 -0.4576  0.0203
   56DOPE  H14X 7210   0.883   7.598  15.464  0.9113  0.7450 -0.2621
   56DOPE  H14Y 7211   0.744   7.594  15.340 -0.2558  0.6937 -4.5245
   56DOPE  C315 7212   0.801   7.783  15.411  0.5100 -0.4801  0.3839
   56DOPE  H15X 7213   0.715   7.816  15.349 -1.5433 -1.4952  2.5298
   56DOPE  H15Y 7214   0.881   7.859  15.405 -0.2100  0.2663 -0.0143
   56DOPE  C316 7215   0.743   7.803  15.558 -0.1948 -0.0646  0.3859
   56DOPE  H16X 7216   0.695   7.903  15.560 -1.1655 -0.5265  0.3461
   56DOPE  H16Y 7217   0.826   7.798  15.631 -1.6134  4.9542  2.7694
   56DOPE  C317 7218   0.639   7.702  15.588 -0.2611 -0.2323  0.0088
   56DOPE  H17X 7219   0.548   7.706  15.524  0.0844  1.1877 -0.4268
   56DOPE  H17Y 7220   0.688   7.602  15.593  3.3062  1.3904  0.9652
   56DOPE  C318 7221   0.586   7.717  15.738 -0.0783  0.3464  0.3199
   56DOPE  H18X 7222   0.669   7.736  15.809 -1.5527 -0.6398  2.4131
   56DOPE  H18Y 7223   0.525   7.809  15.747  0.8226  0.9363  0.5444
   56DOPE  H18Z 7224   0.530   7.624  15.762 -0.6336  0.3285 -0.9346
   57DOPE     N 7225   1.127   2.298  13.369  0.4383 -0.0971 -0.3253
   57DOPE   HN1 7226   1.181   2.343  13.293 -1.5247 -0.7020 -2.1625
   57DOPE   HN2 7227   1.145   2.196  13.360  2.4603  0.0678  1.0464
   57DOPE   HN3 7228   1.025   2.314  13.356  0.7340  0.9981 -1.5260
   57DOPE   C12 7229   1.185   2.350  13.500 -0.0776 -0.9825  0.9260
   57DOPE  H12A 7230   1.288   2.385  13.476 -0.9578  0.6047 -0.8489
   57DOPE  H12B 7231   1.198   2.264  13.569  1.5150 -3.2904 -1.9949
   57DOPE   C11 7232   1.097   2.468  13.544 -0.0499  0.2220  0.1244
   57DOPE  H11A 7233   1.146   2.511  13.634  1.9705  1.7634 -1.6020
   57DOPE  H11B 7234   1.003   2.424  13.584 -1.9497  0.7054 -3.3980
   57DOPE     P 7235   0.928   2.630  13.451  0.2631  0.1418 -0.0728
   57DOPE   O13 7236   0.826   2.526  13.421  0.4919  0.0938 -0.0441
   57DOPE   O14 7237   0.939   2.749  13.368 -0.2247 -0.7225  0.1884
   57DOPE   O11 7238   0.915   2.676  13.606  0.3463  0.1480  0.1991
   57DOPE   O12 7239   1.073   2.569  13.451  0.0215 -0.3441  0.2303
   57DOPE    C1 7240   0.960   2.804  13.653  0.6446  0.9756  0.1333
   57DOPE    HA 7241   0.884   2.840  13.725  1.4832 -0.0348  1.5804
   57DOPE    HB 7242   0.964   2.878  13.570 -1.0972 -0.0095 -0.8869
   57DOPE    C2 7243   1.097   2.792  13.711 -0.0238  0.0111 -0.0512
   57DOPE    HS 7244   1.156   2.742  13.632 -2.1627 -2.6645 -0.1419
   57DOPE   O21 7245   1.088   2.695  13.825  0.4195 -0.2175  0.1302
   57DOPE   C21 7246   1.206   2.663  13.878 -0.1906  0.5545 -0.1338
   57DOPE   O22 7247   1.311   2.699  13.826 -0.3035  0.4774 -0.0055
   57DOPE   C22 7248   1.186   2.573  14.001 -0.7056 -0.4109 -0.1385
   57DOPE   H2R 7249   1.278   2.555  14.060 -0.3180  0.0160 -0.5959
   57DOPE   H2S 7250   1.149   2.476  13.961 -0.7318  0.4694 -2.4075
   57DOPE    C3 7251   1.156   2.930  13.740 -0.0066  0.6595  0.0240
   57DOPE    HX 7252   1.164   2.983  13.643  0.7710  1.0102  0.2707
   57DOPE    HY 7253   1.260   2.916  13.777 -0.1536 -1.7261 -0.3542
   57DOPE   O31 7254   1.073   3.000  13.837 -0.9203  0.3696  0.0205
   57DOPE   C31 7255   1.105   2.975  13.965 -0.7014  0.5827 -0.5156
   57DOPE   O32 7256   1.196   2.901  14.008  0.3127  0.3967 -0.3972
   57DOPE   C32 7257   1.016   3.059  14.054 -0.8645 -0.2128 -0.1110
   57DOPE   H2X 7258   1.078   3.146  14.084  3.0232 -1.8741 -2.4870
   57DOPE   H2Y 7259   0.923   3.084  14.000 -0.2468  2.4347 -0.0757
   57DOPE   C23 7260   1.085   2.628  14.104  0.1994  0.0312 -0.2780
   57DOPE   H3R 7261   0.981   2.635  14.065 -1.0604 -1.3752  2.5353
   57DOPE   H3S 7262   1.120   2.729  14.134 -0.3513  0.2325 -0.3034
   57DOPE   C24 7263   1.078   2.532  14.224  0.4792 -0.5138 -0.8101
   57DOPE   H4R 7264   1.177   2.529  14.275 -0.9822 -0.0350  2.2451
   57DOPE   H4S 7265   1.039   2.433  14.192 -0.3521 -0.4155 -0.1362
   57DOPE   C25 7266   0.981   2.580  14.335  0.6357  0.7027  0.5541
   57DOPE   H5R 7267   1.024   2.678  14.363  2.2146  0.1990 -0.0246
   57DOPE   H5S 7268   0.989   2.510  14.421  1.3186 -1.5637 -1.2460
   57DOPE   C26 7269   0.833   2.606  14.294  0.5952 -0.0344  0.6072
   57DOPE   H6R 7270   0.792   2.508  14.258  2.9016 -0.6184 -0.5827
   57DOPE   H6S 7271   0.829   2.688  14.220 -0.8072  1.1595  1.9277
   57DOPE   C27 7272   0.748   2.674  14.409 -0.2477  0.2090  0.4742
   57DOPE   H7R 7273   0.797   2.771  14.432  0.6485  0.0774 -0.7653
   57DOPE   H7S 7274   0.742   2.615  14.503 -0.0180 -2.0127 -0.8461
   57DOPE   C28 7275   0.607   2.688  14.359  0.1503  0.1527  0.6222
   57DOPE   H8R 7276   0.550   2.593  14.354 -3.4271  2.0803  1.1396
   57DOPE   H8S 7277   0.609   2.747  14.264  1.4302  1.7891  1.5958
   57DOPE   C29 7278   0.527   2.777  14.451  0.1489  0.3962  0.1683
   57DOPE   H9R 7279   0.581   2.872  14.467 -0.7815  0.8191  0.9512
   57DOPE  C210 7280   0.428   2.745  14.541  0.2344  0.2285  0.0823
   57DOPE  H10R 7281   0.398   2.824  14.610 -0.4523  0.0665 -0.0292
   57DOPE  C211 7282   0.349   2.619  14.559  0.3938  0.2905  0.3530
   57DOPE  H11R 7283   0.404   2.554  14.631 -0.4448  0.2026  0.9195
   57DOPE  H11S 7284   0.356   2.568  14.460 -0.0208  2.2419 -0.7259
   57DOPE  C212 7285   0.205   2.646  14.600  0.0841 -0.0662 -0.2391
   57DOPE  H12R 7286   0.155   2.548  14.620  0.5347 -0.7918 -2.3609
   57DOPE  H12S 7287   0.153   2.686  14.511  2.4639  1.1372 -1.1540
   57DOPE  C213 7288   0.189   2.725  14.731  0.2620 -1.1236 -0.1259
   57DOPE  H13R 7289   0.186   2.829  14.691  1.9372 -0.9419  0.1673
   57DOPE  H13S 7290   0.277   2.709  14.797  1.9557 -1.5361 -2.3736
   57DOPE  C214 7291   0.057   2.690  14.808  0.1871 -0.4777  0.4306
   57DOPE  H14R 7292   0.063   2.586  14.847  2.1397 -0.2859  0.7514
   57DOPE  H14S 7293  -0.026   2.693  14.734  0.3165 -1.2958  0.2424
   57DOPE  C215 7294   0.023   2.776  14.927 -0.1282 -0.0504 -0.6139
   57DOPE  H15R 7295   0.011   2.882  14.896 -0.0191  0.1793  0.1031
   57DOPE  H15S 7296   0.119   2.782  14.983 -0.0056  0.0425 -0.8339
   57DOPE  C216 7297  -0.098   2.743  15.010  0.3265  0.1617 -0.6063
   57DOPE  H16R 7298  -0.138   2.649  14.966  2.5868  0.1585 -2.9285
   57DOPE  H16S 7299  -0.182   2.816  15.014  0.7865  0.7503 -1.4360
   57DOPE  C217 7300  -0.051   2.718  15.150 -0.4835  0.2870  0.0087
   57DOPE  H17R 7301   0.038   2.652  15.151 -1.2757 -0.8127 -0.1819
   57DOPE  H17S 7302  -0.130   2.659  15.200 -0.5586  0.6314  0.3013
   57DOPE  C218 7303  -0.031   2.848  15.231  0.2014  0.1461  0.1552
   57DOPE  H18R 7304  -0.133   2.888  15.251 -0.6981 -2.3834  0.9519
   57DOPE  H18S 7305   0.025   2.931  15.183 -0.2051  0.3197 -0.0224
   57DOPE  H18T 7306   0.017   2.823  15.328 -1.1536 -1.7118  0.3887
   57DOPE   C33 7307   0.959   2.994  14.180  0.1039  0.8832  0.0905
   57DOPE   H3X 7308   1.039   2.980  14.255 -0.1077 -2.5398 -0.1412
   57DOPE   H3Y 7309   0.907   2.896  14.167  2.5543 -0.7648  1.8613
   57DOPE   C34 7310   0.854   3.076  14.252  0.1651 -0.3540  0.1830
   57DOPE   H4X 7311   0.850   3.065  14.363 -1.4185 -1.3996  0.0571
   57DOPE   H4Y 7312   0.883   3.182  14.237  2.7909 -1.0568 -0.1227
   57DOPE   C35 7313   0.713   3.058  14.194 -0.0478 -0.0687 -0.5150
   57DOPE   H5X 7314   0.685   2.953  14.219 -0.0457  0.2331  0.8288
   57DOPE   H5Y 7315   0.704   3.091  14.088  1.6705  1.0763 -0.3318
   57DOPE   C36 7316   0.605   3.136  14.276 -0.3271 -0.1547 -0.5471
   57DOPE   H6X 7317   0.635   3.237  14.309  0.3706 -1.2549  2.6059
   57DOPE   H6Y 7318   0.570   3.089  14.371 -0.9108  0.1299 -0.6158
   57DOPE   C37 7319   0.472   3.158  14.193  0.2184  0.6210 -0.3405
   57DOPE   H7X 7320   0.406   3.231  14.246 -1.7600 -1.6465  0.4731
   57DOPE   H7Y 7321   0.484   3.199  14.090 -1.7196 -0.3369 -0.9986
   57DOPE   C38 7322   0.393   3.028  14.173  0.1472 -0.3583  0.9313
   57DOPE   H8X 7323   0.385   2.990  14.277 -2.0063 -0.9172  0.6078
   57DOPE   H8Y 7324   0.445   2.956  14.106 -0.7753 -0.7159  0.5856
   57DOPE   C39 7325   0.254   3.062  14.120  0.1725  0.0519 -0.1214
   57DOPE   H9X 7326   0.256   3.137  14.041 -2.5731 -0.0118 -0.3438
   57DOPE  C310 7327   0.139   2.996  14.141  0.2809 -0.1154 -0.0152
   57DOPE  H10X 7328   0.051   3.042  14.095  0.6965  1.3799  0.6232
   57DOPE  C311 7329   0.132   2.883  14.238 -0.6483 -0.9416  0.0950
   57DOPE  H11X 7330   0.185   2.794  14.198 -0.6218 -1.2269  0.7492
   57DOPE  H11Y 7331   0.186   2.909  14.332  2.7609 -3.5706 -0.9023
   57DOPE  C312 7332  -0.010   2.848  14.284  0.2580  0.4875 -0.8650
   57DOPE  H12X 7333  -0.014   2.765  14.358  0.1931  1.1722 -0.0949
   57DOPE  H12Y 7334  -0.082   2.818  14.205 -0.5474  0.0563  0.0144
   57DOPE  C313 7335  -0.086   2.963  14.352 -0.3506 -0.4225 -0.5807
   57DOPE  H13X 7336  -0.078   3.054  14.288  0.7808 -0.6650 -0.8033
   57DOPE  H13Y 7337  -0.194   2.936  14.358 -0.5982  0.8636  1.7620
   57DOPE  C314 7338  -0.041   2.993  14.497  0.0445  0.5227 -0.8189
   57DOPE  H14X 7339   0.057   3.045  14.492 -1.2388  3.0244 -1.6481
   57DOPE  H14Y 7340  -0.033   2.899  14.554 -0.5293  1.8774  1.6419
   57DOPE  C315 7341  -0.150   3.086  14.563 -0.0873  0.2682 -0.1694
   57DOPE  H15X 7342  -0.248   3.071  14.514 -0.9339  1.0235  1.2390
   57DOPE  H15Y 7343  -0.121   3.193  14.559 -1.1050  0.5824  0.5550
   57DOPE  C316 7344  -0.174   3.039  14.705 -0.0198 -1.1843 -0.0236
   57DOPE  H16X 7345  -0.079   3.063  14.759 -0.9616  2.5918  0.2421
   57DOPE  H16Y 7346  -0.209   2.935  14.725 -0.5329 -0.8804  0.7265
   57DOPE  C317 7347  -0.284   3.128  14.778 -0.5421  0.3723 -0.3699
   57DOPE  H17X 7348  -0.255   3.234  14.766 -0.3882  0.6655  2.0427
   57DOPE  H17Y 7349  -0.383   3.107  14.731 -0.1577 -0.8969 -0.6607
   57DOPE  C318 7350  -0.294   3.087  14.930  0.6004 -0.0234  0.4981
   57DOPE  H18X 7351  -0.377   3.145  14.977  0.5062  1.5709 -1.4560
   57DOPE  H18Y 7352  -0.324   2.981  14.935  2.0481 -0.5877 -1.3402
   57DOPE  H18Z 7353  -0.200   3.098  14.988 -0.9898 -1.1670  3.4765
   58DOPE     N 7354   7.175   6.630  13.038  0.2518 -0.3816 -0.8255
   58DOPE   HN1 7355   7.136   6.539  13.007  1.2034 -1.1790  0.2203
   58DOPE   HN2 7356   7.180   6.611  13.140  0.6170  0.7507 -0.6167
   58DOPE   HN3 7357   7.103   6.702  13.019 -0.1714 -0.1121  1.5144
   58DOPE   C12 7358   7.308   6.656  12.980  0.4426 -0.6119 -0.2834
   58DOPE  H12A 7359   7.333   6.762  13.001 -1.3319 -0.0923 -0.6447
   58DOPE  H12B 7360   7.306   6.650  12.869 -0.4352 -0.6224 -0.2708
   58DOPE   C11 7361   7.417   6.563  13.046 -1.0234 -0.3610 -0.3074
   58DOPE  H11A 7362   7.429   6.578  13.155  1.3308 -1.9807 -0.2581
   58DOPE  H11B 7363   7.517   6.584  13.002 -0.6938 -0.2245  0.4951
   58DOPE     P 7364   7.458   6.301  13.071 -0.1134 -0.0238 -0.2642
   58DOPE   O13 7365   7.593   6.301  13.010  0.1528  0.0745 -0.1717
   58DOPE   O14 7366   7.371   6.182  13.049 -0.0922  0.2636  0.2416
   58DOPE   O11 7367   7.478   6.312  13.229  0.2813  0.1987 -0.2497
   58DOPE   O12 7368   7.377   6.426  13.018 -0.6873  0.5634 -0.3200
   58DOPE    C1 7369   7.357   6.313  13.306  0.2384 -0.2530  0.6592
   58DOPE    HA 7370   7.313   6.211  13.312 -1.9410  0.3155 -2.8256
   58DOPE    HB 7371   7.287   6.387  13.261 -0.5668 -1.5276 -0.2839
   58DOPE    C2 7372   7.389   6.339  13.459 -0.0557 -0.7654  0.2487
   58DOPE    HS 7373   7.429   6.443  13.465 -1.2810  0.0592 -3.5359
   58DOPE   O21 7374   7.485   6.239  13.503 -0.6037  0.4712  0.1693
   58DOPE   C21 7375   7.579   6.279  13.584 -0.4966  0.0271  0.2928
   58DOPE   O22 7376   7.593   6.397  13.621 -0.1709  0.1083 -0.6276
   58DOPE   C22 7377   7.661   6.157  13.632  0.0817 -0.0662 -0.7631
   58DOPE   H2R 7378   7.766   6.194  13.628  1.2215 -2.9168  0.4766
   58DOPE   H2S 7379   7.650   6.071  13.563  0.9940 -0.6967 -0.1436
   58DOPE    C3 7380   7.261   6.326  13.554  0.0492  0.4264  0.1496
   58DOPE    HX 7381   7.255   6.216  13.564 -0.0928  0.2508 -1.4963
   58DOPE    HY 7382   7.164   6.360  13.511 -0.2296 -2.2482 -1.5247
   58DOPE   O31 7383   7.271   6.383  13.684 -0.1621  0.3245  0.3410
   58DOPE   C31 7384   7.258   6.518  13.691  0.5815  0.0327  0.1414
   58DOPE   O32 7385   7.243   6.596  13.599 -0.0605  0.7502 -0.3640
   58DOPE   C32 7386   7.255   6.556  13.837  0.4360  0.2804 -0.5208
   58DOPE   H2X 7387   7.285   6.662  13.850  1.6583 -0.2648  1.6008
   58DOPE   H2Y 7388   7.157   6.537  13.886  0.9609  0.2613  0.5513
   58DOPE   C23 7389   7.635   6.122  13.780  0.1640 -0.4855  0.0460
   58DOPE   H3R 7390   7.650   6.212  13.843 -0.3424 -0.3048 -0.0847
   58DOPE   H3S 7391   7.711   6.050  13.817  0.7000 -0.6616 -1.3551
   58DOPE   C24 7392   7.500   6.054  13.800  0.4059 -0.1199 -0.3922
   58DOPE   H4R 7393   7.495   5.973  13.724 -0.3556 -1.2377  0.8114
   58DOPE   H4S 7394   7.423   6.132  13.779  1.2294  1.0473  0.7473
   58DOPE   C25 7395   7.490   5.992  13.942 -0.0469 -0.1009  0.0730
   58DOPE   H5R 7396   7.500   6.077  14.013  3.0872 -0.3581  0.1052
   58DOPE   H5S 7397   7.574   5.920  13.957  0.9505  0.6769 -1.5209
   58DOPE   C26 7398   7.359   5.917  13.968  0.0228 -0.2499 -0.0433
   58DOPE   H6R 7399   7.359   5.818  13.917 -0.7639 -0.5702  0.5520
   58DOPE   H6S 7400   7.267   5.960  13.924 -0.7465 -3.4235 -1.8997
   58DOPE   C27 7401   7.344   5.890  14.122  0.3318  0.5817 -0.2896
   58DOPE   H7R 7402   7.436   5.847  14.165 -0.7349 -1.1401  0.3501
   58DOPE   H7S 7403   7.255   5.825  14.135  0.6730  0.2142  0.2177
   58DOPE   C28 7404   7.308   6.018  14.208 -0.7153 -0.2801  0.2339
   58DOPE   H8R 7405   7.239   6.071  14.138 -0.3986 -0.5650 -0.3050
   58DOPE   H8S 7406   7.395   6.085  14.225 -1.8782  0.9036  1.8072
   58DOPE   C29 7407   7.240   5.972  14.340 -0.8207 -0.6776 -0.5166
   58DOPE   H9R 7408   7.144   5.920  14.328 -2.4399  1.6276  1.3660
   58DOPE  C210 7409   7.287   5.990  14.467  0.1645  0.6228  0.1676
   58DOPE  H10R 7410   7.223   5.945  14.544 -0.0291  2.1492  0.9202
   58DOPE  C211 7411   7.418   6.056  14.504 -0.2474 -0.3465  0.9382
   58DOPE  H11R 7412   7.393   6.145  14.565  0.4881 -0.7436  1.8359
   58DOPE  H11S 7413   7.469   6.099  14.415  2.7076 -0.6343  2.3942
   58DOPE  C212 7414   7.515   5.978  14.588  0.6367  0.4945  0.4862
   58DOPE  H12R 7415   7.464   5.946  14.681  3.3159  0.3387  2.0135
   58DOPE  H12S 7416   7.595   6.051  14.615  0.8245  0.4220  0.1321
   58DOPE  C213 7417   7.577   5.857  14.519  0.5616 -0.2295  0.1750
   58DOPE  H13R 7418   7.627   5.896  14.428  1.7669  0.2341  1.0210
   58DOPE  H13S 7419   7.492   5.795  14.483 -1.0949  1.5165  0.9436
   58DOPE  C214 7420   7.668   5.787  14.619 -0.4877  0.4590  0.3766
   58DOPE  H14R 7421   7.616   5.776  14.716  1.3163 -1.4732  1.1886
   58DOPE  H14S 7422   7.754   5.857  14.625  0.6073 -0.8708  0.5688
   58DOPE  C215 7423   7.730   5.655  14.575 -0.7681 -0.8094  0.1833
   58DOPE  H15R 7424   7.646   5.592  14.538 -0.1568 -2.1600  1.0326
   58DOPE  H15S 7425   7.775   5.599  14.660  1.3764  1.5043  0.6945
   58DOPE  C216 7426   7.848   5.662  14.472 -0.3521 -0.2825  0.1609
   58DOPE  H16R 7427   7.829   5.760  14.422 -4.9683 -0.8836  0.3010
   58DOPE  H16S 7428   7.832   5.575  14.404  0.3812  0.9775 -1.6856
   58DOPE  C217 7429   7.985   5.661  14.539  0.4766 -0.3295  0.7543
   58DOPE  H17R 7430   8.061   5.673  14.459  1.4700  0.0971  1.7421
   58DOPE  H17S 7431   7.999   5.564  14.592 -1.4788 -1.0006  0.1415
   58DOPE  C218 7432   8.023   5.766  14.643  0.2101 -0.1941 -0.7568
   58DOPE  H18R 7433   7.993   5.869  14.615 -0.4399  0.1491  1.0909
   58DOPE  H18S 7434   8.132   5.770  14.661  0.2842  2.1694 -1.4172
   58DOPE  H18T 7435   7.967   5.744  14.736  1.2320  1.0460  0.1789
   58DOPE   C33 7436   7.350   6.471  13.924 -0.4585  0.5050 -0.2225
   58DOPE   H3X 7437   7.449   6.474  13.873  0.6627  0.1769  1.8497
   58DOPE   H3Y 7438   7.332   6.361  13.923 -0.5226  0.5164 -0.7480
   58DOPE   C34 7439   7.359   6.526  14.067  0.9531  0.2321 -0.3572
   58DOPE   H4X 7440   7.421   6.618  14.073 -0.5587  1.2048  1.9552
   58DOPE   H4Y 7441   7.260   6.562  14.102  1.8468  2.8285 -0.2748
   58DOPE   C35 7442   7.395   6.424  14.177  0.1786  0.4795 -0.5809
   58DOPE   H5X 7443   7.494   6.376  14.163  0.6633  0.3299  2.6704
   58DOPE   H5Y 7444   7.324   6.340  14.158 -0.1196  0.6900 -0.4084
   58DOPE   C36 7445   7.385   6.482  14.314 -0.0213 -0.4039 -1.3423
   58DOPE   H6X 7446   7.387   6.402  14.391 -0.2058 -0.9568 -1.9016
   58DOPE   H6Y 7447   7.287   6.529  14.335  0.3126 -1.2942  3.0921
   58DOPE   C37 7448   7.500   6.582  14.355  0.2400  0.6181 -0.0215
   58DOPE   H7X 7449   7.569   6.551  14.273  0.6338  1.4926 -0.0250
   58DOPE   H7Y 7450   7.469   6.687  14.338  0.3631  0.4731 -1.2649
   58DOPE   C38 7451   7.563   6.546  14.491 -0.1143 -0.3737 -0.2323
   58DOPE   H8X 7452   7.594   6.439  14.487 -2.2777 -1.0699  0.2092
   58DOPE   H8Y 7453   7.496   6.555  14.579 -1.3730  0.4419 -1.2449
   58DOPE   C39 7454   7.684   6.641  14.519 -0.2081 -0.1228 -0.5847
   58DOPE   H9X 7455   7.782   6.609  14.481  1.2996  1.3616  1.8077
   58DOPE  C310 7456   7.679   6.746  14.595  0.2193 -0.7729 -0.3709
   58DOPE  H10X 7457   7.772   6.801  14.619 -1.0007  1.3526 -0.2142
   58DOPE  C311 7458   7.557   6.813  14.664  0.1487 -0.4497  1.4366
   58DOPE  H11X 7459   7.576   6.920  14.641  1.8281 -0.9989  0.0662
   58DOPE  H11Y 7460   7.459   6.778  14.626  0.9871  0.0043 -1.3818
   58DOPE  C312 7461   7.565   6.789  14.813  0.1980 -0.2344 -0.3876
   58DOPE  H12X 7462   7.666   6.817  14.850 -0.1109 -0.0636  0.3373
   58DOPE  H12Y 7463   7.551   6.679  14.823  2.7430 -0.8901 -2.8558
   58DOPE  C313 7464   7.450   6.870  14.886  0.0197  0.0018  0.0214
   58DOPE  H13X 7465   7.475   6.975  14.860  1.6282 -0.7431 -1.6517
   58DOPE  H13Y 7466   7.352   6.853  14.836  0.2696 -1.1675 -0.0856
   58DOPE  C314 7467   7.425   6.832  15.027 -0.8993 -0.3556 -0.3509
   58DOPE  H14X 7468   7.513   6.867  15.085 -0.7173 -0.5649 -0.5029
   58DOPE  H14Y 7469   7.431   6.721  15.029  2.1303 -0.2628 -0.3826
   58DOPE  C315 7470   7.299   6.897  15.090  0.0769  0.3196 -0.0556
   58DOPE  H15X 7471   7.244   6.841  15.168  0.4307 -0.1928 -0.1703
   58DOPE  H15Y 7472   7.225   6.922  15.011  0.0070  0.3928  0.0331
   58DOPE  C316 7473   7.335   7.029  15.167 -0.1833  0.0177 -0.5928
   58DOPE  H16X 7474   7.386   7.100  15.098 -1.5837  2.1551  0.4667
   58DOPE  H16Y 7475   7.402   7.015  15.255 -0.4353  2.4674  0.0715
   58DOPE  C317 7476   7.213   7.104  15.236 -0.0889  0.1334  0.1483
   58DOPE  H17X 7477   7.134   7.144  15.169 -1.4344  0.8682  2.0890
   58DOPE  H17Y 7478   7.161   7.019  15.285  0.9467 -0.4746  0.2180
   58DOPE  C318 7479   7.257   7.220  15.327 -0.2046  0.3739 -0.1417
   58DOPE  H18X 7480   7.300   7.178  15.420 -1.0000  0.5396  0.3098
   58DOPE  H18Y 7481   7.336   7.280  15.276  1.2043 -1.5689 -0.3477
   58DOPE  H18Z 7482   7.172   7.286  15.357  1.1831  1.9225  0.5092
   59DOPE     N 7483   7.648   2.199  13.642  0.4642  0.0660  0.6620
   59DOPE   HN1 7484   7.599   2.190  13.733 -0.1967 -2.3607  0.1539
   59DOPE   HN2 7485   7.667   2.298  13.618 -5.2209  0.5977 -3.4469
   59DOPE   HN3 7486   7.571   2.179  13.575 -1.7026  0.5933  2.8386
   59DOPE   C12 7487   7.763   2.109  13.619 -0.1412  0.3496 -0.3402
   59DOPE  H12A 7488   7.820   2.124  13.714 -1.2610  1.8588  0.1332
   59DOPE  H12B 7489   7.819   2.142  13.529 -0.7418 -1.6676 -1.5302
   59DOPE   C11 7490   7.723   1.961  13.609  0.2528  0.9599 -0.2663
   59DOPE  H11A 7491   7.654   1.952  13.522  0.2059  0.9700 -0.2297
   59DOPE  H11B 7492   7.666   1.937  13.701 -0.2661  1.9109 -0.3311
   59DOPE     P 7493   7.822   1.722  13.563  0.1407 -0.4114  0.0641
   59DOPE   O13 7494   7.951   1.645  13.561 -0.1138  0.0230  0.5259
   59DOPE   O14 7495   7.746   1.721  13.436 -0.1107  0.1494 -0.5275
   59DOPE   O11 7496   7.733   1.644  13.678 -0.2232  0.1509  0.0147
   59DOPE   O12 7497   7.839   1.876  13.606 -0.1546 -0.2479 -0.0746
   59DOPE    C1 7498   7.752   1.667  13.815  0.5001 -0.2287 -0.5655
   59DOPE    HA 7499   7.664   1.722  13.855  1.7952  0.2603  1.7446
   59DOPE    HB 7500   7.845   1.722  13.836  1.1040 -1.2541 -0.4752
   59DOPE    C2 7501   7.762   1.531  13.887  0.1774 -0.1103  0.1775
   59DOPE    HS 7502   7.819   1.469  13.814  0.2956  0.5206 -0.2716
   59DOPE   O21 7503   7.629   1.478  13.893 -0.5920  0.1983  0.1803
   59DOPE   C21 7504   7.614   1.354  13.899 -0.1778  0.1420  0.2109
   59DOPE   O22 7505   7.700   1.268  13.902 -0.5135  0.0909  0.6289
   59DOPE   C22 7506   7.464   1.321  13.899 -0.1109 -0.3671 -0.3345
   59DOPE   H2R 7507   7.448   1.286  13.795  0.9863 -2.5719  0.1804
   59DOPE   H2S 7508   7.401   1.409  13.925  1.5688  1.1624 -1.1813
   59DOPE    C3 7509   7.837   1.542  14.028  0.3847  0.5304  0.0872
   59DOPE    HX 7510   7.943   1.567  14.004  0.7146 -1.4426 -0.7259
   59DOPE    HY 7511   7.833   1.440  14.073 -0.5507 -0.6820 -2.5071
   59DOPE   O31 7512   7.785   1.644  14.115  0.3727  0.1428 -0.1140
   59DOPE   C31 7513   7.678   1.623  14.185  0.0843 -0.0161 -0.0976
   59DOPE   O32 7514   7.623   1.511  14.197 -0.2924  0.1154 -0.5221
   59DOPE   C32 7515   7.630   1.756  14.251 -0.6492  0.3584  0.3499
   59DOPE   H2X 7516   7.717   1.820  14.273  0.0131 -0.2826 -0.3227
   59DOPE   H2Y 7517   7.579   1.803  14.165  1.7795  0.6797 -1.0018
   59DOPE   C23 7518   7.428   1.201  13.992  0.7223  0.6597  0.7414
   59DOPE   H3R 7519   7.471   1.106  13.954 -3.2171 -1.9771  2.1876
   59DOPE   H3S 7520   7.318   1.188  14.003  0.6417  1.0144  0.3830
   59DOPE   C24 7521   7.480   1.209  14.141 -0.3173 -0.2067  1.1855
   59DOPE   H4R 7522   7.436   1.300  14.187  1.5289  1.0126  0.6385
   59DOPE   H4S 7523   7.590   1.225  14.137 -0.3458  0.0811  1.5154
   59DOPE   C25 7524   7.469   1.079  14.229 -0.0760 -0.6627  0.1225
   59DOPE   H5R 7525   7.391   1.020  14.176 -0.7267  0.1481  0.1663
   59DOPE   H5S 7526   7.444   1.118  14.329  1.2921  0.2543  0.1336
   59DOPE   C26 7527   7.605   1.005  14.247  0.3590 -0.2631  0.0001
   59DOPE   H6R 7528   7.670   1.061  14.318  0.3908  1.0738 -1.0449
   59DOPE   H6S 7529   7.657   0.993  14.150 -0.7473  0.8951 -0.7640
   59DOPE   C27 7530   7.582   0.870  14.305  0.1182  0.7213 -1.1665
   59DOPE   H7R 7531   7.508   0.811  14.246  1.1260 -1.4663 -0.3435
   59DOPE   H7S 7532   7.526   0.868  14.401  2.3078 -1.7269  0.1970
   59DOPE   C28 7533   7.714   0.793  14.320 -0.8430 -0.2296 -0.3585
   59DOPE   H8R 7534   7.768   0.799  14.223  0.3906 -2.2910  0.1461
   59DOPE   H8S 7535   7.708   0.684  14.339 -0.3767  0.2488  3.2349
   59DOPE   C29 7536   7.805   0.862  14.415 -0.2583  0.5014 -0.1665
   59DOPE   H9R 7537   7.848   0.956  14.376  0.5803 -0.3729 -1.4252
   59DOPE  C210 7538   7.828   0.837  14.547 -0.4346 -0.6349  0.1684
   59DOPE  H10R 7539   7.897   0.905  14.600  0.6464  0.6318 -2.6545
   59DOPE  C211 7540   7.762   0.735  14.635 -0.5596  0.1411  0.0956
   59DOPE  H11R 7541   7.740   0.632  14.600 -1.9913 -1.1583  4.2458
   59DOPE  H11S 7542   7.667   0.775  14.678 -0.2846  2.9086 -1.6177
   59DOPE  C212 7543   7.845   0.710  14.756  0.1285 -0.3020  0.1223
   59DOPE  H12R 7544   7.950   0.687  14.727 -0.1487 -1.8245  0.2239
   59DOPE  H12S 7545   7.809   0.622  14.814  2.0764 -0.6327  0.9385
   59DOPE  C213 7546   7.844   0.831  14.855 -0.2903 -0.3787  0.6134
   59DOPE  H13R 7547   7.742   0.839  14.899 -0.2863 -1.0069  0.7442
   59DOPE  H13S 7548   7.860   0.929  14.805 -1.5299 -1.2378 -1.6560
   59DOPE  C214 7549   7.951   0.827  14.959  0.4508  0.1052  0.1878
   59DOPE  H14R 7550   8.048   0.853  14.912 -0.1164 -1.2812 -1.9140
   59DOPE  H14S 7551   7.969   0.723  14.994  0.7696  0.8472  2.3418
   59DOPE  C215 7552   7.917   0.920  15.071  0.9135  0.6854 -0.4163
   59DOPE  H15R 7553   7.828   0.882  15.126  2.5950 -0.1931  1.8535
   59DOPE  H15S 7554   7.881   1.013  15.023 -2.8409  0.3179  1.2658
   59DOPE  C216 7555   8.029   0.931  15.173 -0.5623 -0.3603  0.5155
   59DOPE  H16R 7556   7.985   1.006  15.242 -1.4690 -0.3310 -0.0699
   59DOPE  H16S 7557   8.118   0.975  15.123 -0.7022 -1.6025 -0.8934
   59DOPE  C217 7558   8.067   0.795  15.237  1.1025  0.4427 -0.0533
   59DOPE  H17R 7559   8.092   0.720  15.159  0.9005  0.3854 -0.0617
   59DOPE  H17S 7560   7.975   0.760  15.288 -0.6406  1.9288 -1.9915
   59DOPE  C218 7561   8.187   0.805  15.328  0.4694 -0.0816 -0.4825
   59DOPE  H18R 7562   8.162   0.870  15.415 -0.3893  0.0375 -0.8117
   59DOPE  H18S 7563   8.277   0.847  15.279  0.8144 -0.0132  0.1884
   59DOPE  H18T 7564   8.209   0.706  15.373  0.4575 -0.3126 -0.9794
   59DOPE   C33 7565   7.542   1.739  14.379  0.0502 -0.4301  0.6756
   59DOPE   H3X 7566   7.470   1.659  14.350  0.4564 -0.4256 -0.3800
   59DOPE   H3Y 7567   7.481   1.828  14.403 -0.4277 -1.1761  2.3978
   59DOPE   C34 7568   7.624   1.697  14.499 -0.5099 -0.1797  0.3631
   59DOPE   H4X 7569   7.653   1.591  14.483  1.3362  0.3652 -0.2764
   59DOPE   H4Y 7570   7.720   1.753  14.512  0.4783 -1.5182 -0.9008
   59DOPE   C35 7571   7.571   1.727  14.640  0.1099 -0.2344  0.2956
   59DOPE   H5X 7572   7.465   1.695  14.651  0.4457 -1.1943  0.8324
   59DOPE   H5Y 7573   7.585   1.837  14.650 -0.8756 -0.1738  1.1186
   59DOPE   C36 7574   7.656   1.660  14.746  0.0265 -0.0993 -0.7607
   59DOPE   H6X 7575   7.765   1.682  14.733 -0.1177  2.7214  1.6121
   59DOPE   H6Y 7576   7.642   1.550  14.741  1.2830 -0.2507 -1.5463
   59DOPE   C37 7577   7.619   1.709  14.887  0.2423  0.4901 -0.3108
   59DOPE   H7X 7578   7.664   1.809  14.905 -0.9094  0.9104  0.3363
   59DOPE   H7Y 7579   7.508   1.716  14.891 -0.2273 -3.6301 -1.8173
   59DOPE   C38 7580   7.676   1.614  14.995 -0.7028  0.4099  0.2538
   59DOPE   H8X 7581   7.684   1.669  15.091  0.1855 -0.0432  0.4547
   59DOPE   H8Y 7582   7.777   1.582  14.960 -1.1922 -0.2329 -0.6176
   59DOPE   C39 7583   7.603   1.485  15.032  0.1198  0.1193 -0.6664
   59DOPE   H9X 7584   7.524   1.442  14.968 -1.3290  0.3790  0.9080
   59DOPE  C310 7585   7.621   1.419  15.149  0.4149 -0.0754  0.1377
   59DOPE  H10X 7586   7.558   1.330  15.160  0.5138 -0.1727 -0.0774
   59DOPE  C311 7587   7.724   1.425  15.252  0.2719 -0.3769 -0.1725
   59DOPE  H11X 7588   7.801   1.498  15.220  1.3261 -1.6666 -0.6709
   59DOPE  H11Y 7589   7.678   1.469  15.344 -1.6289  0.7060 -1.5675
   59DOPE  C312 7590   7.789   1.292  15.282  0.2438 -0.1903  0.0581
   59DOPE  H12X 7591   7.895   1.314  15.307  0.3073  0.7654 -0.9577
   59DOPE  H12Y 7592   7.807   1.221  15.199  0.5967 -1.2456  1.0200
   59DOPE  C313 7593   7.717   1.211  15.390 -0.1747 -0.0873 -0.6321
   59DOPE  H13X 7594   7.694   1.282  15.473 -1.8002 -0.9674 -0.2817
   59DOPE  H13Y 7595   7.623   1.171  15.347 -0.2304 -1.4185  0.6407
   59DOPE  C314 7596   7.803   1.097  15.442 -0.5475  0.7124 -0.7159
   59DOPE  H14X 7597   7.909   1.128  15.429 -1.1959  2.7468 -1.6329
   59DOPE  H14Y 7598   7.785   1.007  15.380 -0.5988  0.0300  0.2662
   59DOPE  C315 7599   7.767   1.054  15.579 -0.0593 -0.2893 -0.8378
   59DOPE  H15X 7600   7.659   1.027  15.573 -1.0556  3.1613 -0.8053
   59DOPE  H15Y 7601   7.780   1.138  15.651 -0.6356  0.5535 -1.6907
   59DOPE  C316 7602   7.853   0.943  15.626 -0.1771  0.5510 -0.5031
   59DOPE  H16X 7603   7.952   0.989  15.647 -0.0506 -0.2764  0.7401
   59DOPE  H16Y 7604   7.856   0.865  15.547 -1.2297  2.3294 -2.4024
   59DOPE  C317 7605   7.796   0.886  15.758  0.1734  0.0011  0.0130
   59DOPE  H17X 7606   7.794   0.965  15.836 -1.8527 -0.2523  0.2878
   59DOPE  H17Y 7607   7.691   0.866  15.728  1.0742 -0.6669 -3.0417
   59DOPE  C318 7608   7.873   0.760  15.810  0.6147 -0.5237 -0.0334
   59DOPE  H18X 7609   7.869   0.673  15.741 -0.2468 -1.3668  1.0333
   59DOPE  H18Y 7610   7.974   0.794  15.840 -0.0302  0.0630  1.5925
   59DOPE  H18Z 7611   7.823   0.715  15.898 -0.9897 -4.1323 -2.4976
   60DOPE     N 7612   7.387   0.036  13.112 -0.6949 -0.3169 -0.1448
   60DOPE   HN1 7613   7.400  -0.037  13.186 -2.0199  0.6384  1.1087
   60DOPE   HN2 7614   7.453  -0.006  13.045 -1.2007 -2.4245  0.5991
   60DOPE   HN3 7615   7.419   0.129  13.147 -1.5365  0.4081 -1.2403
   60DOPE   C12 7616   7.249   0.038  13.060 -0.6490 -0.8143 -0.2864
   60DOPE  H12A 7617   7.252   0.096  12.966 -0.4932 -0.7657 -0.2527
   60DOPE  H12B 7618   7.191   0.096  13.135  0.7347  3.1734 -2.0486
   60DOPE   C11 7619   7.185  -0.094  13.048 -0.2775  0.1592 -0.5468
   60DOPE  H11A 7620   7.081  -0.087  13.011 -0.5275 -0.9451 -0.1000
   60DOPE  H11B 7621   7.180  -0.145  13.147 -0.9792  0.6975 -0.2866
   60DOPE     P 7622   7.206  -0.241  12.839 -0.0331  0.1321 -0.0742
   60DOPE   O13 7623   7.298  -0.356  12.799  0.3564  0.0536  0.2709
   60DOPE   O14 7624   7.173  -0.141  12.736 -0.0852 -0.3238  0.9590
   60DOPE   O11 7625   7.063  -0.294  12.882 -0.5164 -0.0943  0.3154
   60DOPE   O12 7626   7.268  -0.183  12.974 -0.5053 -0.8910  1.0090
   60DOPE    C1 7627   7.047  -0.428  12.923 -0.1991  0.7062 -0.3906
   60DOPE    HA 7628   7.110  -0.495  12.860 -0.5342  1.0955 -1.1648
   60DOPE    HB 7629   6.942  -0.454  12.900  0.6405 -2.3861 -1.1828
   60DOPE    C2 7630   7.060  -0.459  13.082  0.8259  0.4976 -0.0884
   60DOPE    HS 7631   6.994  -0.542  13.113  3.4789 -0.7827  2.6660
   60DOPE   O21 7632   7.035  -0.346  13.167  0.6182  0.7460  0.5799
   60DOPE   C21 7633   6.909  -0.324  13.175 -0.0581 -0.0895  0.3575
   60DOPE   O22 7634   6.816  -0.387  13.123 -0.5281  0.2327 -0.2080
   60DOPE   C22 7635   6.880  -0.219  13.282 -0.4705 -0.7581  0.3005
   60DOPE   H2R 7636   6.926  -0.124  13.246  0.6250 -1.2903  0.2377
   60DOPE   H2S 7637   6.930  -0.258  13.373 -1.6563 -0.6131  1.0330
   60DOPE    C3 7638   7.209  -0.503  13.101 -0.1840 -0.2825  0.0323
   60DOPE    HX 7639   7.273  -0.415  13.078  2.0101 -1.5934  0.7532
   60DOPE    HY 7640   7.233  -0.570  13.016 -1.1010  0.4084 -0.7837
   60DOPE   O31 7641   7.237  -0.554  13.233 -0.0192 -0.2215  0.5307
   60DOPE   C31 7642   7.227  -0.689  13.247 -0.4629 -0.1251 -0.4652
   60DOPE   O32 7643   7.212  -0.774  13.165  0.3824  0.0188 -0.2097
   60DOPE   C32 7644   7.240  -0.725  13.399  0.1001 -0.0821  0.0216
   60DOPE   H2X 7645   7.156  -0.789  13.433  1.1246  0.1227  3.3326
   60DOPE   H2Y 7646   7.336  -0.777  13.418  0.7855  1.4636  0.9937
   60DOPE   C23 7647   6.734  -0.183  13.300 -0.1182  0.2363  0.3839
   60DOPE   H3R 7648   6.670  -0.263  13.344 -0.7937  1.2017  1.2047
   60DOPE   H3S 7649   6.680  -0.163  13.205  0.5211  1.3815  0.2452
   60DOPE   C24 7650   6.713  -0.054  13.401  0.5918  0.7465  0.2553
   60DOPE   H4R 7651   6.783   0.015  13.350 -0.0629  1.0390 -0.2704
   60DOPE   H4S 7652   6.757  -0.068  13.502 -0.7602  1.5407  0.9969
   60DOPE   C25 7653   6.572   0.002  13.414  0.8176  0.3257 -0.0476
   60DOPE   H5R 7654   6.541   0.042  13.315 -1.8644  0.5976  0.8023
   60DOPE   H5S 7655   6.575   0.075  13.498  2.5687 -0.8220  0.9566
   60DOPE   C26 7656   6.457  -0.104  13.426 -0.2413 -0.4661 -0.1652
   60DOPE   H6R 7657   6.494  -0.168  13.508 -1.5048  0.6383  1.3167
   60DOPE   H6S 7658   6.457  -0.168  13.335  0.4576  0.5320 -0.8913
   60DOPE   C27 7659   6.327  -0.039  13.460  0.5904 -0.6030  0.1068
   60DOPE   H7R 7660   6.317   0.048  13.392  1.3765  0.9953  1.9368
   60DOPE   H7S 7661   6.345  -0.004  13.564 -2.2591  0.4807  0.3322
   60DOPE   C28 7662   6.205  -0.125  13.451  0.7149  0.2108 -0.8719
   60DOPE   H8R 7663   6.202  -0.195  13.538 -0.9066  3.5735  2.0214
   60DOPE   H8S 7664   6.215  -0.189  13.361 -0.7539  1.4454 -1.9654
   60DOPE   C29 7665   6.077  -0.038  13.450  0.2994  0.4313  0.6253
   60DOPE   H9R 7666   6.056   0.005  13.351 -1.0083 -0.7296  0.3654
   60DOPE  C210 7667   6.012  -0.003  13.555 -1.0255  0.0592 -0.1678
   60DOPE  H10R 7668   5.932   0.072  13.539 -1.7859 -0.8204 -0.5738
   60DOPE  C211 7669   6.037  -0.037  13.698 -0.4121 -0.3107 -0.1323
   60DOPE  H11R 7670   6.084   0.045  13.757 -1.5151  0.6053 -0.5124
   60DOPE  H11S 7671   6.095  -0.132  13.701 -0.9535 -0.6411  0.0721
   60DOPE  C212 7672   5.907  -0.061  13.778  1.2152 -0.1735  0.2151
   60DOPE  H12R 7673   5.848  -0.143  13.733  0.4987  0.5340 -0.1537
   60DOPE  H12S 7674   5.835   0.021  13.762 -1.0082 -2.4230 -2.2718
   60DOPE  C213 7675   5.914  -0.090  13.925 -0.1640  0.0404 -0.4176
   60DOPE  H13R 7676   5.947  -0.000  13.982  0.5503 -0.7037  0.3649
   60DOPE  H13S 7677   5.989  -0.169  13.945 -0.0206 -0.0497 -1.2686
   60DOPE  C214 7678   5.777  -0.126  13.991 -0.3281  0.1285 -0.3178
   60DOPE  H14R 7679   5.761  -0.231  13.960  0.5017 -0.1968  0.3399
   60DOPE  H14S 7680   5.697  -0.058  13.954 -2.1115 -1.3194  0.7330
   60DOPE  C215 7681   5.776  -0.115  14.144  0.2453 -0.3586 -0.0336
   60DOPE  H15R 7682   5.763  -0.010  14.178  4.2492  0.1929  0.2783
   60DOPE  H15S 7683   5.873  -0.153  14.182  0.4462 -0.2618 -0.4412
   60DOPE  C216 7684   5.665  -0.204  14.210 -0.3452  0.0723 -0.3878
   60DOPE  H16R 7685   5.680  -0.311  14.185 -1.9459 -0.6379  1.4233
   60DOPE  H16S 7686   5.565  -0.171  14.174 -0.7744  2.1675  2.3709
   60DOPE  C217 7687   5.661  -0.192  14.366  0.2343 -0.4531  0.4100
   60DOPE  H17R 7688   5.640  -0.087  14.394  2.3240  0.5448 -1.4793
   60DOPE  H17S 7689   5.766  -0.209  14.396 -0.1311 -0.6862  1.6164
   60DOPE  C218 7690   5.546  -0.276  14.420  0.0680  0.7648 -0.1656
   60DOPE  H18R 7691   5.521  -0.270  14.528 -5.2978 -0.9800 -0.9948
   60DOPE  H18S 7692   5.582  -0.381  14.406 -2.1006 -0.4092  2.0930
   60DOPE  H18T 7693   5.454  -0.260  14.361 -1.7511  1.9506  2.7360
   60DOPE   C33 7694   7.237  -0.618  13.500 -0.2053 -0.7832  0.6680
   60DOPE   H3X 7695   7.271  -0.525  13.449  1.5592 -1.1065  1.1711
   60DOPE   H3Y 7696   7.307  -0.645  13.583 -0.2035  0.7736  1.2182
   60DOPE   C34 7697   7.097  -0.596  13.568  0.3978 -0.0367 -0.3984
   60DOPE   H4X 7698   7.065  -0.698  13.598  1.4040 -0.5681 -1.0691
   60DOPE   H4Y 7699   7.116  -0.527  13.653 -0.1930 -0.7452  0.3223
   60DOPE   C35 7700   6.994  -0.534  13.479 -0.7245  0.1507  0.1458
   60DOPE   H5X 7701   6.997  -0.581  13.378 -1.5903  0.2577  0.0591
   60DOPE   H5Y 7702   7.019  -0.427  13.469  0.5377 -0.1591 -0.1599
   60DOPE   C36 7703   6.853  -0.550  13.546  0.5434 -0.2140  0.8256
   60DOPE   H6X 7704   6.824  -0.657  13.549 -0.9875  0.1622  0.3631
   60DOPE   H6Y 7705   6.794  -0.497  13.468  1.4490 -0.2334  0.1025
   60DOPE   C37 7706   6.833  -0.473  13.677  0.3788  0.9386  0.1018
   60DOPE   H7X 7707   6.900  -0.522  13.751 -1.4979 -2.6029 -0.3305
   60DOPE   H7Y 7708   6.861  -0.367  13.658  1.0635  0.3193 -2.9053
   60DOPE   C38 7709   6.687  -0.489  13.727 -0.0018  0.2985 -0.1639
   60DOPE   H8X 7710   6.663  -0.597  13.718  1.2165 -0.0308  0.3659
   60DOPE   H8Y 7711   6.613  -0.445  13.657  0.1740  1.5392  0.4107
   60DOPE   C39 7712   6.662  -0.419  13.858  0.6523 -0.6915  0.1017
   60DOPE   H9X 7713   6.667  -0.310  13.850 -0.0793 -0.2994  3.5392
   60DOPE  C310 7714   6.609  -0.470  13.968 -0.5950 -0.0164 -0.3740
   60DOPE  H10X 7715   6.600  -0.394  14.048  0.3224 -0.9526  0.6546
   60DOPE  C311 7716   6.576  -0.612  14.003 -0.0695 -0.0436 -1.1121
   60DOPE  H11X 7717   6.470  -0.606  14.035  0.2784  0.8241 -0.0937
   60DOPE  H11Y 7718   6.591  -0.689  13.924  1.8736  0.2307 -1.0387
   60DOPE  C312 7719   6.661  -0.674  14.115  0.1767  0.4854  0.1027
   60DOPE  H12X 7720   6.772  -0.673  14.105  0.2248 -1.2232  0.1431
   60DOPE  H12Y 7721   6.632  -0.781  14.112  0.8389  0.3115 -2.9764
   60DOPE  C313 7722   6.629  -0.616  14.255 -0.4110 -0.4970 -0.1242
   60DOPE  H13X 7723   6.653  -0.507  14.261 -3.1330  0.1614  0.1523
   60DOPE  H13Y 7724   6.518  -0.619  14.269 -0.2332 -1.4867  1.3063
   60DOPE  C314 7725   6.677  -0.690  14.374  0.0482  0.9630 -0.4476
   60DOPE  H14X 7726   6.786  -0.680  14.393  0.1492 -1.1785  0.3180
   60DOPE  H14Y 7727   6.660  -0.797  14.350  1.7733  1.1175 -2.6872
   60DOPE  C315 7728   6.605  -0.655  14.507  0.0633  0.2396  0.4909
   60DOPE  H15X 7729   6.494  -0.663  14.498 -0.1048  2.1257  0.6453
   60DOPE  H15Y 7730   6.631  -0.550  14.529 -2.0695  0.9089  0.0413
   60DOPE  C316 7731   6.642  -0.743  14.631  0.5544 -0.7338 -0.4128
   60DOPE  H16X 7732   6.586  -0.839  14.622 -0.0080 -0.2892 -1.8547
   60DOPE  H16Y 7733   6.586  -0.676  14.700 -0.2107 -0.5744 -1.1798
   60DOPE  C317 7734   6.791  -0.756  14.659  0.0555  0.2269 -0.5081
   60DOPE  H17X 7735   6.833  -0.839  14.598 -2.2491 -2.2606  1.1041
   60DOPE  H17Y 7736   6.837  -0.656  14.642  3.7232 -1.5634 -2.1320
   60DOPE  C318 7737   6.827  -0.787  14.807 -0.2141  0.5581 -0.6680
   60DOPE  H18X 7738   6.932  -0.754  14.825  0.0736 -0.6047 -0.0931
   60DOPE  H18Y 7739   6.758  -0.725  14.868 -1.0878 -1.0919  0.0871
   60DOPE  H18Z 7740   6.809  -0.895  14.829  2.4084  0.2450  0.3130
   6123SM     N 7741   4.176   4.200  17.338 -0.0034 -0.2830 -0.5623
   6123SM   C15 7742   4.036   4.168  17.375 -0.0936  0.5656  0.1856
   6123SM  H15A 7743   3.973   4.234  17.318  0.2557 -0.1375 -1.0318
   6123SM  H15B 7744   4.012   4.185  17.479 -3.0829  2.7310 -0.7236
   6123SM  H15C 7745   4.008   4.066  17.356  0.9734  0.2005  0.5019
   6123SM   C14 7746   4.248   4.076  17.376  0.1561 -1.0406 -0.5297
   6123SM  H14A 7747   4.355   4.084  17.368  0.1418  0.6927  0.4675
   6123SM  H14B 7748   4.215   3.991  17.318  2.0478 -0.5942 -2.3559
   6123SM  H14C 7749   4.233   4.055  17.481 -1.1353 -0.2473 -0.5348
   6123SM   C13 7750   4.189   4.215  17.192 -0.3337 -0.1535 -0.2945
   6123SM  H13A 7751   4.176   4.122  17.139 -1.5325  0.6821 -1.5100
   6123SM  H13B 7752   4.291   4.246  17.176 -0.7229  0.9500 -0.7177
   6123SM  H13C 7753   4.129   4.296  17.155 -1.9501 -0.6264  1.1338
   6123SM   C12 7754   4.229   4.324  17.409  0.0480  0.3872 -0.5180
   6123SM  H12A 7755   4.325   4.353  17.369  0.6877  0.6760  1.1429
   6123SM  H12B 7756   4.248   4.303  17.513 -0.7878  1.3853 -0.1428
   6123SM   C11 7757   4.143   4.450  17.413 -0.4826  0.0728 -0.6553
   6123SM  H11A 7758   4.174   4.506  17.505  1.5561  0.3864 -1.4763
   6123SM  H11B 7759   4.038   4.419  17.428  0.1488 -1.2707  1.3886
   6123SM     P 7760   4.044   4.640  17.264 -0.0952  0.1774  0.2136
   6123SM   O13 7761   3.984   4.697  17.389  0.0258 -0.4236 -0.3390
   6123SM   O14 7762   4.107   4.728  17.165 -0.5305  0.5385  0.4513
   6123SM   O11 7763   3.934   4.549  17.200  0.1938  0.1810  0.0063
   6123SM   O12 7764   4.157   4.537  17.302  0.4604 -0.3578  0.0937
   6123SM   C1S 7765   3.858   4.579  17.085  0.2732  0.4292 -0.0141
   6123SM   H1S 7766   3.877   4.681  17.044  0.2677 -0.1523 -1.5178
   6123SM   H1T 7767   3.754   4.599  17.118  0.3439  1.8955 -0.5760
   6123SM    NF 7768   3.795   4.548  16.850 -0.3808 -0.0885 -0.1225
   6123SM   HNF 7769   3.696   4.556  16.842 -0.2254  1.9937 -0.4299
   6123SM   C2S 7770   3.859   4.484  16.966  0.3758  0.5139 -0.4952
   6123SM   H2S 7771   3.967   4.472  16.944 -0.1402 -1.1833 -2.4809
   6123SM   C3S 7772   3.814   4.340  17.010 -0.2116  0.3023  0.5037
   6123SM   H3S 7773   3.712   4.345  17.052  0.5762  1.6444  2.4439
   6123SM    O3 7774   3.884   4.293  17.123 -0.1132 -0.6767 -0.4416
   6123SM   HO3 7775   3.930   4.363  17.169  0.6264 -0.1940 -1.8722
   6123SM   C4S 7776   3.826   4.242  16.898 -0.1304 -0.0226  0.9089
   6123SM   H4S 7777   3.928   4.247  16.857 -0.8831  1.3053 -0.9023
   6123SM   C5S 7778   3.730   4.150  16.860 -0.4544  0.2425  0.0195
   6123SM   H5S 7779   3.640   4.138  16.922 -0.4203 -1.0220 -0.1604
   6123SM   C6S 7780   3.753   4.053  16.747  0.2816  0.5627 -0.5491
   6123SM   H6S 7781   3.757   3.950  16.790 -2.6742  0.7429  0.3271
   6123SM   H6T 7782   3.848   4.084  16.699  0.9941  1.6308  1.4156
   6123SM   C7S 7783   3.641   4.067  16.643 -0.0641 -0.1223  0.1404
   6123SM   H7S 7784   3.545   4.048  16.695  0.5524 -0.5676  1.1312
   6123SM   H7T 7785   3.653   3.990  16.564  2.4210 -1.4304  1.6660
   6123SM   C8S 7786   3.642   4.207  16.570  0.5452  0.2724  0.6589
   6123SM   H8S 7787   3.745   4.222  16.532  0.0928 -0.2170 -0.8220
   6123SM   H8T 7788   3.617   4.288  16.643  0.2796 -3.4108  5.0760
   6123SM   C9S 7789   3.560   4.206  16.445 -0.0770  0.2139 -0.1161
   6123SM   H9S 7790   3.605   4.124  16.385 -1.6371  0.2710 -1.4235
   6123SM   H9T 7791   3.564   4.303  16.393 -1.5336  0.6474  0.5194
   6123SM  C10S 7792   3.425   4.158  16.466  0.8285  0.5721  0.6201
   6123SM  H10S 7793   3.373   4.229  16.533  1.1730  0.7876  0.6586
   6123SM  H10T 7794   3.424   4.057  16.512 -1.5407 -0.6260 -1.7880
   6123SM  C11S 7795   3.345   4.162  16.333 -0.2589  0.3834 -0.4062
   6123SM  H11S 7796   3.348   4.257  16.276 -0.6169  0.7776  0.2301
   6123SM  H11T 7797   3.242   4.139  16.368 -0.2769 -2.3360 -1.9537
   6123SM  C12S 7798   3.376   4.040  16.243  0.4494 -0.4352 -0.7060
   6123SM  H12S 7799   3.364   3.953  16.312  0.2908  0.2951  0.1969
   6123SM  H12T 7800   3.486   4.043  16.228  0.3631  1.9741 -1.1436
   6123SM  C13S 7801   3.305   4.026  16.112  0.0381 -0.2450  0.3056
   6123SM  H13S 7802   3.313   4.127  16.065 -0.3155 -1.5509 -2.7808
   6123SM  H13T 7803   3.195   4.012  16.121  0.3105 -1.6586  1.7596
   6123SM  C14S 7804   3.370   3.919  16.027 -1.0555 -0.6012  0.0864
   6123SM  H14S 7805   3.334   3.825  16.072  0.6978 -0.2614  2.4031
   6123SM  H14T 7806   3.481   3.918  16.027 -1.0315 -2.7310  1.4808
   6123SM  C15S 7807   3.345   3.916  15.878  0.5030 -0.2283 -0.0854
   6123SM  H15S 7808   3.374   4.013  15.832  1.4974 -0.2566  0.4526
   6123SM  H15T 7809   3.237   3.899  15.857 -0.0151  1.6862  0.7663
   6123SM  C16S 7810   3.424   3.805  15.799  0.6381 -0.4361 -0.3864
   6123SM  H16S 7811   3.420   3.712  15.861  1.2283  0.3130  0.8113
   6123SM  H16T 7812   3.529   3.839  15.813  0.4346 -0.6196  2.0897
   6123SM  C17S 7813   3.385   3.789  15.650 -0.1502 -0.1828 -0.1181
   6123SM  H17S 7814   3.448   3.705  15.615  0.0361  0.8229 -2.3280
   6123SM  H17T 7815   3.428   3.886  15.617  2.7443 -0.5612  2.1506
   6123SM  C18S 7816   3.236   3.771  15.619 -0.1838  0.1118  0.5396
   6123SM  H18S 7817   3.187   3.715  15.702 -1.2095  0.4379  0.1728
   6123SM  H18T 7818   3.219   3.717  15.523  1.0229  0.0275  0.3679
   6123SM  H18U 7819   3.192   3.873  15.618  1.2929  0.7782 -1.5333
   6123SM   C1F 7820   3.865   4.641  16.791  0.5893  0.2834  0.4831
   6123SM    OF 7821   3.977   4.676  16.836  0.0381 -0.5826  0.2151
   6123SM   C2F 7822   3.805   4.701  16.669  0.4327  0.0536  0.3423
   6123SM   H2F 7823   3.893   4.719  16.604  0.1434 -1.1811 -0.4295
   6123SM   H2G 7824   3.763   4.797  16.704 -3.3226 -1.2743 -0.0813
   6123SM   C3F 7825   3.690   4.615  16.609  0.6039  0.2043 -0.3638
   6123SM   H3F 7826   3.616   4.572  16.679  1.4526 -2.7636 -1.1775
   6123SM   H3G 7827   3.747   4.529  16.567  1.3724  1.0011 -1.0136
   6123SM   C4F 7828   3.625   4.692  16.492 -0.4162  0.7633  0.2149
   6123SM   H4F 7829   3.704   4.738  16.428 -0.2389 -0.2230 -0.2960
   6123SM   H4G 7830   3.551   4.759  16.541 -0.5687  0.0016  1.0669
   6123SM   C5F 7831   3.556   4.602  16.394  0.3789 -0.0604 -0.3159
   6123SM   H5F 7832   3.479   4.538  16.441  0.9384 -1.2149 -0.9484
   6123SM   H5G 7833   3.628   4.530  16.349  0.0576 -1.1801  0.8857
   6123SM   C6F 7834   3.487   4.677  16.281  0.2135  0.4193 -0.0387
   6123SM   H6F 7835   3.559   4.749  16.237 -2.3132  2.7292 -0.7236
   6123SM   H6G 7836   3.411   4.741  16.331  1.1989  0.5037  1.4128
   6123SM   C7F 7837   3.424   4.576  16.178  0.2017  0.1117 -0.4266
   6123SM   H7F 7838   3.331   4.532  16.221 -0.4050  0.6479 -1.1527
   6123SM   H7G 7839   3.488   4.489  16.153 -0.4159 -0.0708 -1.4316
   6123SM   C8F 7840   3.375   4.647  16.047 -0.1041  0.0680 -0.0522
   6123SM   H8F 7841   3.451   4.723  16.017  0.1496 -0.6165 -1.2271
   6123SM   H8G 7842   3.282   4.701  16.073 -0.0413 -0.3636  1.1001
   6123SM   C9F 7843   3.337   4.554  15.933 -0.4834 -0.1979  0.2385
   6123SM   H9F 7844   3.259   4.493  15.984  0.0769 -0.1737  1.1444
   6123SM   H9G 7845   3.415   4.483  15.900  0.0707  1.0648 -1.2633
   6123SM  C10F 7846   3.278   4.630  15.815 -1.2002 -0.1700  0.1808
   6123SM  H10F 7847   3.354   4.686  15.757 -1.0715  0.2568  0.7544
   6123SM  H10G 7848   3.198   4.699  15.848 -0.2338  0.9857  0.1709
   6123SM  C11F 7849   3.205   4.542  15.713 -0.3213 -0.1058  0.0671
   6123SM  H11F 7850   3.127   4.480  15.762 -1.8021  1.0920 -0.6730
   6123SM  H11G 7851   3.274   4.466  15.672  0.5994  0.5620  0.3577
   6123SM  C12F 7852   3.145   4.628  15.599 -0.1987  0.3901 -0.5036
   6123SM  H12F 7853   3.051   4.670  15.640  0.7576  1.3508  0.8110
   6123SM  H12G 7854   3.104   4.556  15.525 -1.6442  2.4976 -1.8690
   6123SM  C13F 7855   3.226   4.747  15.544 -0.0102  0.4003 -0.1001
   6123SM  H13F 7856   3.324   4.706  15.512 -0.2407  0.8146 -1.3743
   6123SM  H13G 7857   3.231   4.815  15.632  0.9309 -1.2300  1.1777
   6123SM  C14F 7858   3.166   4.824  15.424 -0.7534  0.2965  0.1611
   6123SM  H14F 7859   3.072   4.863  15.469 -0.0083 -0.1154  2.2033
   6123SM  H14G 7860   3.144   4.747  15.347 -1.5815  0.0454  0.6399
   6123SM  C15F 7861   3.262   4.936  15.373  0.5231  0.0163 -0.3525
   6123SM  H15F 7862   3.292   4.988  15.467  1.2811  0.8381 -1.0393
   6123SM  H15G 7863   3.208   5.007  15.307  1.1974  0.5298 -0.3684
   6123SM  C16F 7864   3.375   4.883  15.291 -0.5389 -0.2703 -0.8601
   6123SM  H16F 7865   3.341   4.840  15.194 -0.4439 -0.2188 -0.9172
   6123SM  H16G 7866   3.422   4.800  15.347 -0.2861 -0.4453 -1.3286
   6123SM  C17F 7867   3.485   4.989  15.259  0.1020 -0.0318  0.2623
   6123SM  H17F 7868   3.534   5.024  15.352 -4.9832  0.5465  3.1030
   6123SM  H17G 7869   3.443   5.078  15.207  1.0380  1.1980  1.5230
   6123SM  C18F 7870   3.602   4.932  15.170  0.0885  0.2086 -0.5575
   6123SM  H18F 7871   3.553   4.908  15.073  4.4651  1.5680 -3.4300
   6123SM  H18G 7872   3.623   4.833  15.214  1.8715  0.9244  0.3323
   6123SM  C19F 7873   3.716   5.022  15.148 -0.3767 -0.2556  0.4668
   6123SM  H19F 7874   3.739   5.056  15.251  0.6530  0.1187  0.1171
   6123SM  H19G 7875   3.680   5.113  15.096 -2.7478 -0.8890  0.8826
   6123SM  C20F 7876   3.843   4.949  15.095 -0.2980 -0.5859  0.2768
   6123SM  H20F 7877   3.815   4.889  15.006  1.6312  0.6739 -1.2642
   6123SM  H20G 7878   3.881   4.877  15.172  2.9004 -1.1637 -1.6629
   6123SM  C21F 7879   3.956   5.047  15.043 -0.3170  0.2091 -0.6093
   6123SM  H21F 7880   4.013   5.093  15.127 -0.3214  3.1721 -2.0789
   6123SM  H21G 7881   3.917   5.123  14.972 -0.0148  1.3173  0.3706
   6123SM  C22F 7882   4.067   4.981  14.965  1.0683  0.7322 -0.5439
   6123SM  H22F 7883   4.162   5.038  14.954  2.2513 -1.0382  0.0034
   6123SM  H22G 7884   4.022   4.954  14.868  1.9229 -0.6128 -0.5951
   6123SM  C23F 7885   4.116   4.845  15.022 -0.2017 -0.0571 -0.5733
   6123SM  H23F 7886   4.196   4.798  14.961  0.2328 -0.5700  0.3722
   6123SM  H23G 7887   4.032   4.772  15.023  0.4200 -0.8409  1.5259
   6123SM  H23H 7888   4.143   4.856  15.129  1.2868 -0.7512 -0.8549
   6223SM     N 7889   4.086   3.053  17.629 -0.0806  0.0925 -0.2044
   6223SM   C15 7890   3.949   3.015  17.579 -0.3599 -0.2714  0.4942
   6223SM  H15A 7891   3.943   2.924  17.521  0.7477  1.1581 -2.0031
   6223SM  H15B 7892   3.911   3.094  17.516 -1.2823  0.4531  1.8878
   6223SM  H15C 7893   3.881   3.016  17.663  1.2498  0.3967  1.8347
   6223SM   C14 7894   4.127   2.959  17.736 -0.4201  0.0759 -0.0841
   6223SM  H14A 7895   4.057   2.953  17.818  0.4266  1.2502  0.7580
   6223SM  H14B 7896   4.224   2.982  17.778 -0.0616  0.3761 -1.0670
   6223SM  H14C 7897   4.158   2.869  17.684  0.1964  1.2267 -1.7936
   6223SM   C13 7898   4.187   3.049  17.522 -0.3031 -0.0669 -0.1877
   6223SM  H13A 7899   4.168   3.136  17.460 -1.0871 -0.1561 -0.0862
   6223SM  H13B 7900   4.181   2.962  17.459  0.2848 -0.4373  0.2583
   6223SM  H13C 7901   4.288   3.052  17.560 -0.4008 -0.7515  0.1310
   6223SM   C12 7902   4.074   3.197  17.700 -0.3603  0.3046  0.6543
   6223SM  H12A 7903   4.049   3.184  17.804 -0.1185 -2.2915  0.4690
   6223SM  H12B 7904   3.986   3.248  17.664 -1.1538 -0.2276  1.7846
   6223SM   C11 7905   4.201   3.283  17.680  0.6311 -0.0756  0.3278
   6223SM  H11A 7906   4.287   3.219  17.707  1.0896  0.3521 -0.1087
   6223SM  H11B 7907   4.213   3.369  17.750  3.0359 -0.2983  0.2669
   6223SM     P 7908   4.159   3.470  17.496  0.0288  0.0313  0.5966
   6223SM   O13 7909   4.065   3.531  17.589 -0.1103  0.1499 -0.4446
   6223SM   O14 7910   4.278   3.549  17.456 -0.6398  0.4216 -0.2975
   6223SM   O11 7911   4.085   3.422  17.366  0.2798  0.0303 -0.4667
   6223SM   O12 7912   4.212   3.328  17.548  0.3221 -0.4470  0.2878
   6223SM   C1S 7913   3.938   3.416  17.365 -0.3516 -0.1556  0.0465
   6223SM   H1S 7914   3.900   3.520  17.380  1.1619  0.4736 -0.2238
   6223SM   H1T 7915   3.897   3.357  17.450  1.4805  0.5896  1.5425
   6223SM    NF 7916   3.743   3.392  17.200  1.3289 -0.1023 -0.2080
   6223SM   HNF 7917   3.687   3.310  17.211  0.3188  0.4205 -1.2487
   6223SM   C2S 7918   3.883   3.360  17.229 -0.1388 -0.5298 -0.4112
   6223SM   H2S 7919   3.952   3.409  17.158  2.2022 -1.3559  1.1854
   6223SM   C3S 7920   3.933   3.210  17.214  0.2175 -0.5464  0.6015
   6223SM   H3S 7921   3.868   3.143  17.272 -0.4560 -2.2519 -1.9348
   6223SM    O3 7922   4.067   3.188  17.256  0.5922 -0.5631  0.9134
   6223SM   HO3 7923   4.105   3.274  17.274  0.3888  0.2494 -2.0383
   6223SM   C4S 7924   3.928   3.167  17.069 -0.5613  0.2324 -0.4667
   6223SM   H4S 7925   4.017   3.187  17.007 -0.6709  0.1444 -0.6507
   6223SM   C5S 7926   3.840   3.079  17.027  0.4451  0.4619  0.1900
   6223SM   H5S 7927   3.750   3.056  17.086 -0.4238 -0.5980 -1.4706
   6223SM   C6S 7928   3.841   3.021  16.887  0.3152  0.0214 -0.7414
   6223SM   H6S 7929   3.734   3.026  16.856 -0.4937  0.7725  1.9185
   6223SM   H6T 7930   3.879   2.916  16.886 -2.8805 -1.2578 -0.9949
   6223SM   C7S 7931   3.923   3.107  16.783 -0.3928 -0.7221 -0.4207
   6223SM   H7S 7932   4.032   3.105  16.805 -0.1820  1.4734 -1.0377
   6223SM   H7T 7933   3.884   3.211  16.785 -0.2503 -0.6731  0.6750
   6223SM   C8S 7934   3.906   3.061  16.639 -0.8309 -0.5447  0.0755
   6223SM   H8S 7935   3.803   3.080  16.604 -0.7054 -0.7134 -0.3960
   6223SM   H8T 7936   3.922   2.951  16.639 -0.6273 -0.5725  2.3643
   6223SM   C9S 7937   3.998   3.135  16.539  0.6481 -0.2860 -0.4491
   6223SM   H9S 7938   4.101   3.145  16.578  1.3921  0.7558 -2.5422
   6223SM   H9T 7939   3.956   3.237  16.527 -0.3950 -0.5263  0.9166
   6223SM  C10S 7940   3.995   3.067  16.401  0.5915  0.5220  0.8842
   6223SM  H10S 7941   3.890   3.077  16.365  1.0346  1.7030 -0.1373
   6223SM  H10T 7942   4.017   2.958  16.404  0.8163  0.3201 -2.9915
   6223SM  C11S 7943   4.103   3.128  16.311 -0.1559  0.0035  0.3519
   6223SM  H11S 7944   4.202   3.114  16.358  1.3187 -0.2341 -2.6128
   6223SM  H11T 7945   4.102   3.239  16.301 -0.3276 -0.1683 -2.2601
   6223SM  C12S 7946   4.122   3.066  16.171 -0.2989 -0.0603  0.1822
   6223SM  H12S 7947   4.062   2.973  16.162  1.8733 -1.3516 -2.6543
   6223SM  H12T 7948   4.229   3.037  16.158 -0.2119  0.5853 -0.5817
   6223SM  C13S 7949   4.094   3.158  16.054  0.5257  0.5205 -0.7327
   6223SM  H13S 7950   4.153   3.253  16.055 -0.5975  1.2332 -0.6846
   6223SM  H13T 7951   3.990   3.196  16.058  0.3658 -0.0004  0.2872
   6223SM  C14S 7952   4.098   3.085  15.919 -0.0576  0.7083  0.8613
   6223SM  H14S 7953   4.016   3.009  15.917 -0.1397  0.7979  0.8314
   6223SM  H14T 7954   4.199   3.039  15.918  0.4874  1.9006  0.5251
   6223SM  C15S 7955   4.081   3.164  15.792 -0.5154  0.5857 -0.1191
   6223SM  H15S 7956   4.127   3.109  15.707  1.2806  0.0586  1.1290
   6223SM  H15T 7957   4.139   3.257  15.811 -1.1882  1.0180 -0.1529
   6223SM  C16S 7958   3.935   3.187  15.767  0.5090 -0.0214 -0.1775
   6223SM  H16S 7959   3.876   3.220  15.855  0.4106  1.9723 -0.9383
   6223SM  H16T 7960   3.904   3.092  15.718 -0.8696  0.6455 -0.6642
   6223SM  C17S 7961   3.912   3.300  15.671  0.9509  0.3100  0.0404
   6223SM  H17S 7962   3.978   3.274  15.585 -0.0003 -0.0273 -0.6059
   6223SM  H17T 7963   3.944   3.398  15.713  0.4199 -0.1693  1.6171
   6223SM  C18S 7964   3.768   3.317  15.633  0.2188  0.5179  0.2836
   6223SM  H18S 7965   3.751   3.396  15.556 -0.3423  0.6125  0.4953
   6223SM  H18T 7966   3.702   3.350  15.716 -0.5751  0.8881 -0.4774
   6223SM  H18U 7967   3.728   3.219  15.601  0.0757  0.0697  1.7776
   6223SM   C1F 7968   3.693   3.515  17.182 -0.0412 -0.2729 -0.0173
   6223SM    OF 7969   3.773   3.606  17.153 -0.8009 -0.1591 -0.1275
   6223SM   C2F 7970   3.543   3.531  17.180  0.0415 -0.5777  0.0351
   6223SM   H2F 7971   3.523   3.596  17.268 -1.1428 -0.1307 -0.5310
   6223SM   H2G 7972   3.480   3.442  17.201 -0.4420  0.3661  2.9756
   6223SM   C3F 7973   3.505   3.613  17.053 -0.1329  0.1054  0.5314
   6223SM   H3F 7974   3.548   3.715  17.048 -1.8051  0.8225 -0.1492
   6223SM   H3G 7975   3.394   3.625  17.049 -0.0799  0.6366  0.6217
   6223SM   C4F 7976   3.544   3.551  16.923 -0.3018 -0.4605  0.7634
   6223SM   H4F 7977   3.490   3.456  16.906 -2.5884  0.8281  0.4253
   6223SM   H4G 7978   3.651   3.521  16.924  0.0425  0.5026 -1.2299
   6223SM   C5F 7979   3.519   3.635  16.800  0.2794  0.1745 -0.3775
   6223SM   H5F 7980   3.503   3.741  16.828 -1.3975  0.2034 -1.3156
   6223SM   H5G 7981   3.427   3.591  16.755 -0.0218  1.3225 -0.9445
   6223SM   C6F 7982   3.626   3.639  16.688  0.3662 -0.6249  0.1675
   6223SM   H6F 7983   3.659   3.534  16.670  2.9283  0.1124  0.2695
   6223SM   H6G 7984   3.713   3.689  16.734  0.4971  0.2291 -0.9603
   6223SM   C7F 7985   3.575   3.715  16.561  0.0030  0.6569  0.9627
   6223SM   H7F 7986   3.525   3.810  16.592 -1.9479 -0.0158  0.0256
   6223SM   H7G 7987   3.495   3.655  16.514  0.2780  0.0353  1.2700
   6223SM   C8F 7988   3.688   3.737  16.467  0.4545  0.8113  0.5447
   6223SM   H8F 7989   3.740   3.639  16.462  0.8736  0.9892  1.2947
   6223SM   H8G 7990   3.767   3.808  16.499 -0.0654  1.1313  1.1373
   6223SM   C9F 7991   3.647   3.776  16.326 -0.1371 -0.2210 -0.3078
   6223SM   H9F 7992   3.622   3.884  16.322  0.0937 -0.0919  1.0571
   6223SM   H9G 7993   3.567   3.713  16.283  0.0618 -0.9394  0.3521
   6223SM  C10F 7994   3.765   3.753  16.224  0.1941 -0.2570  0.0670
   6223SM  H10F 7995   3.786   3.644  16.218  1.3237  0.0156 -1.3594
   6223SM  H10G 7996   3.850   3.813  16.262  1.5470 -2.5162  0.7669
   6223SM  C11F 7997   3.729   3.770  16.071  0.4199  0.2024 -0.6647
   6223SM  H11F 7998   3.707   3.877  16.052  1.2902  0.6708  0.7440
   6223SM  H11G 7999   3.644   3.703  16.049 -1.5973  2.3602  0.1197
   6223SM  C12F 8000   3.847   3.729  15.989 -0.4259 -0.0258  0.1873
   6223SM  H12F 8001   3.888   3.635  16.030  0.4206  1.2021  2.2726
   6223SM  H12G 8002   3.933   3.798  16.002  0.9832 -1.6803  0.0420
   6223SM  C13F 8003   3.831   3.716  15.834 -0.7473  0.4611 -0.5865
   6223SM  H13F 8004   3.725   3.699  15.805 -0.4892 -1.7467 -0.3575
   6223SM  H13G 8005   3.899   3.641  15.789 -0.1773 -0.0765  1.1212
   6223SM  C14F 8006   3.878   3.844  15.757  0.3812 -0.0840 -0.4769
   6223SM  H14F 8007   3.988   3.855  15.767  0.2623 -0.4514  1.7191
   6223SM  H14G 8008   3.829   3.926  15.814  0.1366  0.0903 -0.9289
   6223SM  C15F 8009   3.826   3.850  15.615  0.4107 -0.3498 -0.4570
   6223SM  H15F 8010   3.839   3.956  15.583 -1.9577  0.1861  0.1416
   6223SM  H15G 8011   3.716   3.835  15.619  0.1902  0.6152 -1.9496
   6223SM  C16F 8012   3.885   3.747  15.515 -0.4641 -0.0293  0.9272
   6223SM  H16F 8013   3.830   3.652  15.533 -1.0935  0.0302 -0.5713
   6223SM  H16G 8014   3.993   3.730  15.535 -0.4403 -1.9472 -0.5381
   6223SM  C17F 8015   3.864   3.775  15.371  0.1296 -0.9678 -0.0801
   6223SM  H17F 8016   3.885   3.690  15.303  0.9616 -0.9432  0.1278
   6223SM  H17G 8017   3.923   3.864  15.339  0.1190 -0.3031  1.6387
   6223SM  C18F 8018   3.715   3.814  15.356  0.3511  0.0369  1.0480
   6223SM  H18F 8019   3.692   3.911  15.405  4.2271  1.5446  0.1987
   6223SM  H18G 8020   3.655   3.735  15.406 -0.7592  0.8237  1.0078
   6223SM  C19F 8021   3.668   3.833  15.211 -0.2593 -0.5827  0.0820
   6223SM  H19F 8022   3.677   3.735  15.160  1.3311 -0.6852  0.4834
   6223SM  H19G 8023   3.727   3.911  15.159 -2.4240  2.5909  2.0727
   6223SM  C20F 8024   3.518   3.875  15.209  0.1418  0.1727 -0.1708
   6223SM  H20F 8025   3.516   3.977  15.253  0.2733  1.0807 -2.1570
   6223SM  H20G 8026   3.466   3.801  15.274  0.9860 -0.9225 -0.7152
   6223SM  C21F 8027   3.458   3.903  15.070  0.5049 -0.9994  0.1402
   6223SM  H21F 8028   3.390   3.819  15.045 -0.9889  0.0864  0.4133
   6223SM  H21G 8029   3.529   3.926  14.989 -0.1945  0.2842 -0.1287
   6223SM  C22F 8030   3.379   4.033  15.077 -0.0130 -0.4127 -0.1777
   6223SM  H22F 8031   3.447   4.119  15.097  0.2020 -1.1363  2.5951
   6223SM  H22G 8032   3.301   4.043  15.155 -1.4733  0.6340 -1.6770
   6223SM  C23F 8033   3.305   4.066  14.941  0.4306  0.5031  0.8262
   6223SM  H23F 8034   3.237   3.984  14.908 -0.9645  1.9131  0.0800
   6223SM  H23G 8035   3.383   4.080  14.863  0.2985 -0.0918  0.5799
   6223SM  H23H 8036   3.242   4.157  14.946 -2.6870 -1.5062  1.0364
   6323SM     N 8037   4.420   4.865  17.430 -0.0014  0.0041  0.6547
   6323SM   C15 8038   4.552   4.810  17.371  1.3341 -1.0410  0.1647
   6323SM  H15A 8039   4.627   4.884  17.346  0.4788 -0.7629 -1.7666
   6323SM  H15B 8040   4.537   4.754  17.280 -1.2067 -1.6964  0.9080
   6323SM  H15C 8041   4.596   4.736  17.435 -0.1744 -1.5355  0.6689
   6323SM   C14 8042   4.336   4.744  17.453  0.5085  0.0557  0.1813
   6323SM  H14A 8043   4.307   4.688  17.366  1.7334 -0.8623  0.3347
   6323SM  H14B 8044   4.246   4.765  17.509  0.3899  1.0817 -0.3622
   6323SM  H14C 8045   4.384   4.670  17.515  0.0680 -0.9650 -0.6668
   6323SM   C13 8046   4.441   4.932  17.561  0.0196 -0.4381  0.3294
   6323SM  H13A 8047   4.505   5.018  17.554 -1.2053  0.6608  2.0050
   6323SM  H13B 8048   4.486   4.864  17.631 -0.9378 -0.4382  0.9608
   6323SM  H13C 8049   4.345   4.968  17.594  0.1502 -0.3902  0.6534
   6323SM   C12 8050   4.346   4.952  17.330  0.5312  0.7285 -0.3173
   6323SM  H12A 8051   4.339   4.898  17.237 -0.2663 -1.9978  1.1987
   6323SM  H12B 8052   4.402   5.037  17.297 -0.9954  1.2890 -1.5385
   6323SM   C11 8053   4.208   5.012  17.377 -0.2289  0.3184  0.7028
   6323SM  H11A 8054   4.144   4.932  17.418  0.9159 -1.3634 -0.6712
   6323SM  H11B 8055   4.154   5.054  17.290 -1.9572 -2.0637  0.5438
   6323SM     P 8056   4.295   5.257  17.429  0.5780  0.2140  0.0550
   6323SM   O13 8057   4.247   5.355  17.529  0.3249 -0.2454  0.3766
   6323SM   O14 8058   4.439   5.240  17.410  0.0846 -0.0336  0.4065
   6323SM   O11 8059   4.222   5.290  17.295 -0.2169 -0.2287  0.4486
   6323SM   O12 8060   4.229   5.120  17.466  0.0914  0.2809  0.0095
   6323SM   C1S 8061   4.264   5.387  17.199 -0.0126  0.0832 -0.3964
   6323SM   H1S 8062   4.369   5.420  17.215 -0.1642  0.6517 -0.5742
   6323SM   H1T 8063   4.201   5.477  17.215  1.3182  1.0076 -0.2612
   6323SM    NF 8064   4.297   5.441  16.964 -0.1204 -0.2052 -0.1797
   6323SM   HNF 8065   4.238   5.502  16.912  0.2819  0.1189 -0.2611
   6323SM   C2S 8066   4.246   5.343  17.053 -0.2399 -0.5120 -0.3445
   6323SM   H2S 8067   4.306   5.249  17.044  0.1005 -0.2162 -1.2355
   6323SM   C3S 8068   4.095   5.303  17.033 -0.5997 -0.0294  0.0023
   6323SM   H3S 8069   4.039   5.399  17.040 -1.0300 -0.1600 -1.4433
   6323SM    O3 8070   4.028   5.232  17.137  0.0663 -0.1115  0.0213
   6323SM   HO3 8071   4.074   5.256  17.218 -1.8084  1.2717  0.7424
   6323SM   C4S 8072   4.069   5.236  16.895 -0.5266 -0.0610  0.9391
   6323SM   H4S 8073   4.088   5.128  16.891 -0.6023 -0.0237 -1.0976
   6323SM   C5S 8074   4.004   5.293  16.790 -0.2351 -0.0629 -0.5341
   6323SM   H5S 8075   3.959   5.392  16.806 -2.4472 -1.1441  0.2834
   6323SM   C6S 8076   3.968   5.223  16.660  0.5419  0.0915 -0.9152
   6323SM   H6S 8077   3.947   5.117  16.686 -0.3224  0.1477 -1.3377
   6323SM   H6T 8078   4.061   5.220  16.599  0.8086 -2.0823 -0.4821
   6323SM   C7S 8079   3.852   5.297  16.592  0.5537  0.3517  0.1551
   6323SM   H7S 8080   3.878   5.404  16.579 -0.2755  0.4506 -0.7532
   6323SM   H7T 8081   3.765   5.291  16.662  0.3502  0.2436 -0.1068
   6323SM   C8S 8082   3.810   5.244  16.455  0.0530  0.3885 -0.0983
   6323SM   H8S 8083   3.728   5.310  16.420 -1.3521 -0.5509  1.3184
   6323SM   H8T 8084   3.770   5.141  16.456 -0.3190  0.4920 -1.6750
   6323SM   C9S 8085   3.913   5.250  16.341  0.4041 -0.2208 -0.4690
   6323SM   H9S 8086   3.962   5.151  16.357 -0.9996 -0.8026  0.5242
   6323SM   H9T 8087   3.986   5.332  16.357 -1.2100  0.9728  1.2507
   6323SM  C10S 8088   3.845   5.263  16.206  0.4727 -0.3098 -0.0186
   6323SM  H10S 8089   3.936   5.249  16.144 -0.1877 -2.3242 -0.6219
   6323SM  H10T 8090   3.797   5.360  16.185  0.0538 -0.5132 -0.0138
   6323SM  C11S 8091   3.751   5.152  16.165 -0.4988  1.1814 -0.3972
   6323SM  H11S 8092   3.660   5.144  16.229 -1.2143 -1.7524 -1.5989
   6323SM  H11T 8093   3.797   5.053  16.188 -0.9312  1.4211  1.7086
   6323SM  C12S 8094   3.710   5.157  16.018 -0.1706 -1.0550 -0.7890
   6323SM  H12S 8095   3.795   5.192  15.956  0.9418  2.2898  2.3213
   6323SM  H12T 8096   3.629   5.231  16.004  1.3376  0.7904 -0.1563
   6323SM  C13S 8097   3.669   5.020  15.971 -0.3425 -0.1249  0.4647
   6323SM  H13S 8098   3.574   4.987  16.018 -0.9319  1.2982  0.3245
   6323SM  H13T 8099   3.747   4.951  16.010 -1.5992 -1.7710  0.1572
   6323SM  C14S 8100   3.668   5.014  15.814 -0.1747 -0.8326 -0.4649
   6323SM  H14S 8101   3.766   5.045  15.771 -0.2807 -0.4912 -0.4581
   6323SM  H14T 8102   3.607   5.099  15.778  0.9886  0.6761  1.0048
   6323SM  C15S 8103   3.626   4.884  15.735 -0.1448  0.2225  0.0429
   6323SM  H15S 8104   3.642   4.913  15.630 -0.5037 -2.3127 -0.7927
   6323SM  H15T 8105   3.520   4.853  15.750 -0.4261  1.2377  0.2609
   6323SM  C16S 8106   3.708   4.763  15.759 -0.2166 -0.5121  0.2890
   6323SM  H16S 8107   3.711   4.728  15.865  1.6356 -0.4538  0.2829
   6323SM  H16T 8108   3.815   4.790  15.748 -0.2010 -0.1306  1.2221
   6323SM  C17S 8109   3.664   4.653  15.659 -0.4354  0.3841 -0.1566
   6323SM  H17S 8110   3.674   4.691  15.555  0.5948 -0.4576 -0.3810
   6323SM  H17T 8111   3.566   4.605  15.679  0.4757 -0.7380  1.9474
   6323SM  C18S 8112   3.764   4.534  15.669  0.5545 -0.4548 -0.0468
   6323SM  H18S 8113   3.865   4.568  15.635 -0.1363 -0.3537 -2.1338
   6323SM  H18T 8114   3.731   4.453  15.600  2.6298  1.9998 -4.3914
   6323SM  H18U 8115   3.769   4.498  15.774  0.6190  0.5799  0.3210
   6323SM   C1F 8116   4.424   5.469  16.953  0.8599  0.0065 -0.3419
   6323SM    OF 8117   4.509   5.394  16.997  0.2388  0.6132  0.0179
   6323SM   C2F 8118   4.463   5.601  16.893  0.0053  0.5004  0.0322
   6323SM   H2F 8119   4.497   5.674  16.969 -1.3936 -1.0180  2.2181
   6323SM   H2G 8120   4.374   5.648  16.846  0.9028  2.0447 -0.2214
   6323SM   C3F 8121   4.580   5.586  16.785  1.0817 -0.1614 -0.0785
   6323SM   H3F 8122   4.671   5.557  16.841 -0.0945 -0.4814  1.7881
   6323SM   H3G 8123   4.604   5.686  16.744 -0.5574 -0.1368 -1.0834
   6323SM   C4F 8124   4.549   5.494  16.668  0.2050  0.8389 -0.2707
   6323SM   H4F 8125   4.467   5.545  16.612 -0.4466  1.0982  0.8900
   6323SM   H4G 8126   4.522   5.390  16.697  2.2066  0.0797 -0.9812
   6323SM   C5F 8127   4.669   5.466  16.577  0.2637  0.1736  0.8146
   6323SM   H5F 8128   4.760   5.443  16.636 -1.3772 -1.6136  2.8294
   6323SM   H5G 8129   4.693   5.558  16.521 -0.6378 -0.7615 -1.2302
   6323SM   C6F 8130   4.638   5.354  16.473 -0.4686 -0.5186 -0.6165
   6323SM   H6F 8131   4.532   5.365  16.442 -1.2762 -1.6299  1.5590
   6323SM   H6G 8132   4.637   5.255  16.522  1.9892 -1.0322 -1.4470
   6323SM   C7F 8133   4.725   5.356  16.351 -0.2929 -0.2855 -0.3207
   6323SM   H7F 8134   4.829   5.344  16.388 -1.1800 -0.6123  2.3042
   6323SM   H7G 8135   4.728   5.460  16.312  1.2593 -0.4606 -0.7324
   6323SM   C8F 8136   4.674   5.256  16.245  0.0496  0.1016 -0.3247
   6323SM   H8F 8137   4.573   5.289  16.211  0.5083  1.3199 -0.5643
   6323SM   H8G 8138   4.664   5.151  16.279 -0.3004  0.3202  0.2749
   6323SM   C9F 8139   4.758   5.257  16.117  0.2060  0.6939 -0.0317
   6323SM   H9F 8140   4.766   5.359  16.074 -2.8395  0.8178 -0.5263
   6323SM   H9G 8141   4.723   5.178  16.048  1.8460  0.5537 -0.7484
   6323SM  C10F 8142   4.904   5.217  16.150 -0.4232 -0.5699 -0.6780
   6323SM  H10F 8143   4.909   5.123  16.208  0.1447 -1.0401 -1.4701
   6323SM  H10G 8144   4.963   5.294  16.205  0.6945 -2.2050  0.5059
   6323SM  C11F 8145   4.980   5.172  16.022 -0.2473  0.0748 -0.0872
   6323SM  H11F 8146   4.927   5.080  15.989 -0.7309  0.5660 -0.6982
   6323SM  H11G 8147   5.084   5.136  16.041  0.7529  2.7324 -0.1697
   6323SM  C12F 8148   4.982   5.268  15.908 -0.2732 -0.2896  0.0486
   6323SM  H12F 8149   5.061   5.342  15.934 -0.4323  0.1706 -0.7561
   6323SM  H12G 8150   4.890   5.328  15.892  0.8044  1.4281  0.0298
   6323SM  C13F 8151   5.012   5.194  15.778  0.7345 -0.2219  0.6545
   6323SM  H13F 8152   4.927   5.125  15.761  1.1805 -1.0703  1.7783
   6323SM  H13G 8153   5.096   5.122  15.791 -2.4171 -4.2171  0.7487
   6323SM  C14F 8154   5.040   5.282  15.655  0.6239 -0.0435  0.2149
   6323SM  H14F 8155   5.132   5.337  15.685  2.6823 -2.8097 -0.5917
   6323SM  H14G 8156   4.949   5.344  15.638 -0.3441 -0.7655  2.3530
   6323SM  C15F 8157   5.059   5.208  15.519 -0.2104  0.3713 -0.0041
   6323SM  H15F 8158   5.148   5.143  15.531  0.5022  1.1786 -0.7428
   6323SM  H15G 8159   5.085   5.284  15.442  0.1250  1.4375  1.1442
   6323SM  C16F 8160   4.940   5.123  15.469  0.1555  0.0633  0.7516
   6323SM  H16F 8161   4.845   5.181  15.470  0.7293  1.2434 -2.4920
   6323SM  H16G 8162   4.928   5.034  15.535  0.6789  0.8370  1.9150
   6323SM  C17F 8163   4.960   5.069  15.327 -0.1297  0.0145  0.5151
   6323SM  H17F 8164   4.883   4.992  15.305 -0.3597  0.6165 -0.8248
   6323SM  H17G 8165   5.061   5.021  15.332  0.4325  0.9202 -1.2895
   6323SM  C18F 8166   4.961   5.162  15.208  0.2549 -0.3434  0.1294
   6323SM  H18F 8167   5.015   5.256  15.231 -1.4483  0.2664  1.9367
   6323SM  H18G 8168   4.856   5.174  15.171  0.6493  1.2977 -0.5697
   6323SM  C19F 8169   5.040   5.107  15.089 -0.4021  0.5541  0.5796
   6323SM  H19F 8170   4.990   5.013  15.058  0.6654  0.3179 -0.4783
   6323SM  H19G 8171   5.146   5.086  15.115 -0.0885  1.3391 -0.0025
   6323SM  C20F 8172   5.036   5.210  14.974  0.1929  0.3774 -0.1550
   6323SM  H20F 8173   5.109   5.291  14.995 -1.1359  1.3919  0.7729
   6323SM  H20G 8174   4.937   5.261  14.972 -0.1138 -0.1619  0.6043
   6323SM  C21F 8175   5.050   5.156  14.837  0.0242  0.0840 -0.1924
   6323SM  H21F 8176   5.116   5.067  14.841  0.9051  0.7383  0.0221
   6323SM  H21G 8177   5.092   5.247  14.788  2.8324 -1.6616 -1.2246
   6323SM  C22F 8178   4.914   5.132  14.764  0.3384  0.8093  0.1335
   6323SM  H22F 8179   4.933   5.132  14.655  0.8794  0.4401  0.2230
   6323SM  H22G 8180   4.843   5.212  14.794  0.3801 -0.1020  2.9405
   6323SM  C23F 8181   4.842   5.008  14.810 -0.3964  0.5194 -0.3894
   6323SM  H23F 8182   4.904   4.916  14.802 -0.4950  0.4367 -0.2114
   6323SM  H23G 8183   4.747   5.003  14.752 -2.1304  2.3000  2.1182
   6323SM  H23H 8184   4.809   5.017  14.916 -0.9036  1.3731 -0.6108
   6423SM     N 8185   6.509   3.884  17.536  0.8828 -0.3488  0.7807
   6423SM   C15 8186   6.551   3.751  17.481  0.4017  0.3751  0.0381
   6423SM  H15A 8187   6.548   3.685  17.567 -0.2439  1.9015  1.2553
   6423SM  H15B 8188   6.653   3.769  17.451  0.3120 -0.4966 -0.8252
   6423SM  H15C 8189   6.489   3.722  17.397 -0.4715  3.3468 -0.4736
   6423SM   C14 8190   6.594   3.908  17.654  0.4362 -0.2016 -0.1224
   6423SM  H14A 8191   6.582   3.826  17.723  1.8460  2.1155  3.1613
   6423SM  H14B 8192   6.558   3.990  17.715 -2.8183  0.9304 -3.2775
   6423SM  H14C 8193   6.700   3.912  17.631  0.3722  1.5189 -0.2227
   6423SM   C13 8194   6.524   3.988  17.420  0.1270 -0.4990  0.1329
   6423SM  H13A 8195   6.433   4.046  17.412 -0.1109 -1.1353 -3.1973
   6423SM  H13B 8196   6.533   3.936  17.326 -2.3200 -0.9291  0.0692
   6423SM  H13C 8197   6.609   4.046  17.451 -0.6816 -0.4028  2.3618
   6423SM   C12 8198   6.367   3.874  17.578 -0.7524  0.4095  0.2340
   6423SM  H12A 8199   6.352   3.803  17.658 -2.5811  0.9309  0.4057
   6423SM  H12B 8200   6.310   3.843  17.492 -1.3809  0.5111  0.6111
   6423SM   C11 8201   6.293   4.003  17.629  0.3258 -1.1115 -0.2667
   6423SM  H11A 8202   6.344   4.047  17.717  0.0668  1.5420 -1.3499
   6423SM  H11B 8203   6.200   3.972  17.680 -0.2745  0.7740 -0.1281
   6423SM     P 8204   6.148   4.102  17.434 -0.2386  0.1929 -0.6207
   6423SM   O13 8205   6.034   4.026  17.495 -1.0357  0.3391  0.0473
   6423SM   O14 8206   6.124   4.235  17.382  0.4822  0.0804 -0.3036
   6423SM   O11 8207   6.220   4.019  17.320 -0.2181 -0.1296 -0.0919
   6423SM   O12 8208   6.277   4.103  17.530 -0.6668  0.0438 -0.3302
   6423SM   C1S 8209   6.159   4.019  17.188  0.4046  0.2637  0.0790
   6423SM   H1S 8210   6.142   4.123  17.155 -0.6573  0.3044  0.7005
   6423SM   H1T 8211   6.059   3.971  17.192  0.5615 -0.0336  0.7034
   6423SM    NF 8212   6.185   3.962  16.955 -0.0691 -0.0641 -0.1962
   6423SM   HNF 8213   6.123   3.898  16.910 -0.6491 -0.7930  1.5725
   6423SM   C2S 8214   6.240   3.933  17.085  0.6478 -0.5280 -1.1387
   6423SM   H2S 8215   6.346   3.967  17.091  0.9688 -0.8446 -3.8818
   6423SM   C3S 8216   6.242   3.778  17.132 -0.0808 -0.9221 -0.8077
   6423SM   H3S 8217   6.137   3.741  17.134  0.0717 -1.4415 -1.7375
   6423SM    O3 8218   6.293   3.773  17.269  0.6409 -0.5113 -0.3263
   6423SM   HO3 8219   6.284   3.862  17.302 -0.2490 -1.4392  2.1886
   6423SM   C4S 8220   6.329   3.696  17.037  0.3062  0.3490 -0.0177
   6423SM   H4S 8221   6.272   3.630  16.968  0.3990  0.5637 -0.3031
   6423SM   C5S 8222   6.464   3.696  17.031  0.2468  0.4278 -0.0335
   6423SM   H5S 8223   6.512   3.771  17.096  0.4840 -0.7388  1.1823
   6423SM   C6S 8224   6.536   3.620  16.928  0.5804  0.3287 -0.5760
   6423SM   H6S 8225   6.583   3.530  16.973  0.2246  0.2248 -0.4121
   6423SM   H6T 8226   6.629   3.671  16.894  0.3936  1.6908  0.8555
   6423SM   C7S 8227   6.472   3.576  16.801  0.3521 -0.4226 -0.2781
   6423SM   H7S 8228   6.393   3.500  16.820  0.9030 -0.5381  1.7991
   6423SM   H7T 8229   6.557   3.528  16.747  0.1817 -1.6522  0.5193
   6423SM   C8S 8230   6.429   3.690  16.705 -0.6633  0.5323 -0.3558
   6423SM   H8S 8231   6.516   3.727  16.646  0.9279  0.1861  1.6858
   6423SM   H8T 8232   6.394   3.776  16.765 -2.2850  0.0477 -0.5657
   6423SM   C9S 8233   6.319   3.643  16.612 -0.2009 -0.0282  0.2788
   6423SM   H9S 8234   6.235   3.610  16.677 -1.0971  1.0208 -0.3295
   6423SM   H9T 8235   6.346   3.556  16.548  2.4575  0.2394  0.8838
   6423SM  C10S 8236   6.261   3.752  16.526  0.9826  0.5513 -0.0679
   6423SM  H10S 8237   6.267   3.848  16.581  0.3756  0.2317  0.5659
   6423SM  H10T 8238   6.151   3.737  16.526  1.0724 -0.2576  0.7134
   6423SM  C11S 8239   6.309   3.761  16.372 -0.4378 -0.3619  0.4135
   6423SM  H11S 8240   6.419   3.753  16.357 -0.4192  1.5780 -0.7848
   6423SM  H11T 8241   6.285   3.861  16.331  0.0511 -1.3336 -2.4818
   6423SM  C12S 8242   6.240   3.650  16.293 -0.7582 -0.0713 -0.3823
   6423SM  H12S 8243   6.153   3.605  16.345  0.6780 -1.2692  1.0727
   6423SM  H12T 8244   6.308   3.567  16.262  1.3569  1.9515 -1.4850
   6423SM  C13S 8245   6.186   3.715  16.161 -0.0611  0.2610  0.3941
   6423SM  H13S 8246   6.280   3.747  16.110  1.1465 -0.7944  1.8790
   6423SM  H13T 8247   6.111   3.793  16.186 -1.8455 -0.6391 -1.7849
   6423SM  C14S 8248   6.110   3.619  16.066 -0.5985 -0.1154 -0.1087
   6423SM  H14S 8249   6.023   3.565  16.110  0.4234 -0.6847  1.3123
   6423SM  H14T 8250   6.171   3.533  16.031 -2.0759 -1.0973 -0.3926
   6423SM  C15S 8251   6.042   3.694  15.944 -0.0923  0.0445 -0.4511
   6423SM  H15S 8252   5.989   3.782  15.987 -1.0741 -0.4529 -0.6147
   6423SM  H15T 8253   5.952   3.640  15.907 -1.5495  2.2879 -0.4109
   6423SM  C16S 8254   6.148   3.723  15.839  0.6819  0.1262  0.4083
   6423SM  H16S 8255   6.199   3.629  15.809  2.9426  1.2239  0.5689
   6423SM  H16T 8256   6.224   3.794  15.877  1.6119  0.2494 -1.5358
   6423SM  C17S 8257   6.097   3.785  15.711  0.4404  0.0912 -0.0143
   6423SM  H17S 8258   6.185   3.818  15.651 -1.2626  4.0636 -0.6488
   6423SM  H17T 8259   6.053   3.880  15.748  1.7253  0.9649 -0.6418
   6423SM  C18S 8260   5.988   3.715  15.637 -0.4023 -0.1560  0.3305
   6423SM  H18S 8261   5.942   3.774  15.555 -1.2474  0.4148  1.2040
   6423SM  H18T 8262   5.898   3.696  15.698 -0.3752  0.7791  0.6857
   6423SM  H18U 8263   6.008   3.610  15.608 -2.2858 -1.9903  4.7706
   6423SM   C1F 8264   6.204   4.083  16.896  0.4360  0.5322  0.0335
   6423SM    OF 8265   6.288   4.156  16.942 -0.4476 -0.0463  0.5832
   6423SM   C2F 8266   6.128   4.102  16.767 -0.2110 -0.0659  0.7342
   6423SM   H2F 8267   6.023   4.069  16.778 -0.2981 -0.2071 -0.3717
   6423SM   H2G 8268   6.181   4.043  16.690 -4.9171 -1.2389 -2.0014
   6423SM   C3F 8269   6.129   4.254  16.724  0.0017  0.2626  0.3486
   6423SM   H3F 8270   6.232   4.282  16.693 -0.5758  1.0531 -0.9145
   6423SM   H3G 8271   6.094   4.315  16.810  2.6371  2.1025  0.2201
   6423SM   C4F 8272   6.043   4.267  16.589  0.5471 -0.1047 -0.1865
   6423SM   H4F 8273   6.065   4.372  16.562 -0.8806  0.2633  0.0292
   6423SM   H4G 8274   5.936   4.249  16.615  0.3255  0.0090 -1.0145
   6423SM   C5F 8275   6.098   4.177  16.476  0.6457 -0.2153  0.0056
   6423SM   H5F 8276   6.073   4.069  16.482 -0.8726 -0.0358 -1.8995
   6423SM   H5G 8277   6.207   4.197  16.466  0.6259  0.3624  0.8898
   6423SM   C6F 8278   6.032   4.227  16.340  0.5486  0.1048  0.1641
   6423SM   H6F 8279   6.046   4.337  16.336 -1.1371  0.3585  0.5428
   6423SM   H6G 8280   5.924   4.207  16.353  0.2457  1.6530  0.1251
   6423SM   C7F 8281   6.087   4.155  16.219  0.0747  0.1331  0.1055
   6423SM   H7F 8282   6.042   4.054  16.206 -0.9346  0.3283  1.8202
   6423SM   H7G 8283   6.197   4.162  16.225  0.1711 -1.5304  0.9817
   6423SM   C8F 8284   6.049   4.237  16.081 -1.1686 -0.2871 -0.8269
   6423SM   H8F 8285   6.091   4.171  16.001  1.2110  0.7987 -0.5614
   6423SM   H8G 8286   6.110   4.330  16.083 -1.0927 -0.3474  0.8429
   6423SM   C9F 8287   5.905   4.274  16.061  0.1077 -0.3951 -0.0704
   6423SM   H9F 8288   5.901   4.348  15.978  0.2906  0.7758  0.9324
   6423SM   H9G 8289   5.862   4.328  16.148 -1.1729  0.2415 -1.0616
   6423SM  C10F 8290   5.815   4.156  16.030  0.3873 -0.9539  0.1648
   6423SM  H10F 8291   5.708   4.184  16.027  0.7171  0.2548 -0.9344
   6423SM  H10G 8292   5.821   4.090  16.120  0.1884 -2.3981 -0.8500
   6423SM  C11F 8293   5.848   4.062  15.917 -0.6869 -0.0562  1.1175
   6423SM  H11F 8294   5.763   3.991  15.908  0.1390 -0.8151 -2.1612
   6423SM  H11G 8295   5.937   3.997  15.928  0.7003  1.2919 -1.3394
   6423SM  C12F 8296   5.877   4.132  15.776 -0.2842  0.1630 -0.5747
   6423SM  H12F 8297   5.887   4.059  15.693 -0.5367 -1.7484  1.0054
   6423SM  H12G 8298   5.973   4.189  15.776 -0.8957  1.2464  0.6511
   6423SM  C13F 8299   5.762   4.224  15.726 -0.5272  0.8451  0.6720
   6423SM  H13F 8300   5.726   4.304  15.795 -0.3220  1.2499  0.3166
   6423SM  H13G 8301   5.680   4.150  15.724  1.5710 -1.6172  0.6952
   6423SM  C14F 8302   5.777   4.283  15.591 -0.6154  0.4669  0.2411
   6423SM  H14F 8303   5.680   4.269  15.538 -0.6695 -0.7786  0.6558
   6423SM  H14G 8304   5.848   4.237  15.520 -0.6446  0.8448 -0.0375
   6423SM  C15F 8305   5.827   4.429  15.580 -0.0078 -0.6839 -0.1825
   6423SM  H15F 8306   5.927   4.448  15.624  0.0398  2.0296 -1.2548
   6423SM  H15G 8307   5.746   4.490  15.625 -0.4931 -0.7927 -0.8822
   6423SM  C16F 8308   5.826   4.488  15.437 -0.2036 -0.5158  0.5585
   6423SM  H16F 8309   5.730   4.485  15.382 -0.1262 -0.4254  0.4185
   6423SM  H16G 8310   5.886   4.417  15.376 -1.1287 -0.8457  0.0138
   6423SM  C17F 8311   5.884   4.632  15.436 -0.3224  0.8694  0.1679
   6423SM  H17F 8312   5.974   4.644  15.501 -0.8610  2.1508  0.7127
   6423SM  H17G 8313   5.818   4.706  15.485  0.9937  0.2753  3.0643
   6423SM  C18F 8314   5.928   4.674  15.290  0.3990 -0.6160 -0.1268
   6423SM  H18F 8315   5.997   4.762  15.293 -0.7402  0.2707  1.6021
   6423SM  H18G 8316   5.840   4.717  15.238  2.4449  1.3199 -2.2789
   6423SM  C19F 8317   5.993   4.573  15.196 -0.0171  0.2459 -0.6733
   6423SM  H19F 8318   5.906   4.513  15.162 -1.1599 -0.1885  2.6463
   6423SM  H19G 8319   6.064   4.505  15.246 -1.7649 -2.1000 -1.2137
   6423SM  C20F 8320   6.054   4.640  15.073  0.0526 -0.1008 -0.6878
   6423SM  H20F 8321   6.145   4.688  15.115 -0.1347  1.0411 -1.5528
   6423SM  H20G 8322   5.991   4.721  15.031  1.8162  1.6238 -0.1617
   6423SM  C21F 8323   6.081   4.526  14.973  0.2301  0.2665 -0.6362
   6423SM  H21F 8324   5.986   4.471  14.955 -0.2222  1.2468 -1.2830
   6423SM  H21G 8325   6.149   4.446  15.009  0.6740  1.4440  1.2513
   6423SM  C22F 8326   6.128   4.580  14.832 -0.4568  0.7836  0.0089
   6423SM  H22F 8327   6.229   4.619  14.857 -0.4020  0.5533  0.1564
   6423SM  H22G 8328   6.052   4.657  14.805  0.2952  2.0450  1.3529
   6423SM  C23F 8329   6.150   4.475  14.724 -0.1064  0.5029 -0.0028
   6423SM  H23F 8330   6.213   4.393  14.764 -0.2927 -0.4492 -1.5515
   6423SM  H23G 8331   6.195   4.521  14.634 -1.4761  2.6310  0.3248
   6423SM  H23H 8332   6.050   4.442  14.686  0.0196  0.7959 -0.5960
   6523SM     N 8333   5.741   4.360  17.643 -1.1078 -0.2448 -0.3532
   6523SM   C15 8334   5.833   4.439  17.739 -0.1695 -0.7116 -0.5281
   6523SM  H15A 8335   5.916   4.487  17.689  0.6805  1.2006  2.4156
   6523SM  H15B 8336   5.870   4.377  17.819  1.7718  0.5992 -0.3441
   6523SM  H15C 8337   5.779   4.522  17.782  0.8165 -1.2285  1.8535
   6523SM   C14 8338   5.827   4.259  17.575  0.7083 -0.5353 -0.0027
   6523SM  H14A 8339   5.763   4.217  17.499 -0.2537  0.6878  0.1056
   6523SM  H14B 8340   5.869   4.178  17.634  0.9106  0.8193  1.7961
   6523SM  H14C 8341   5.902   4.317  17.523 -0.7510  1.1239 -0.3427
   6523SM   C13 8342   5.630   4.291  17.723 -0.5102 -0.1411 -0.1647
   6523SM  H13A 8343   5.678   4.227  17.796 -1.5101  1.6798  2.2111
   6523SM  H13B 8344   5.563   4.235  17.659 -0.5406 -1.5966  1.0710
   6523SM  H13C 8345   5.571   4.355  17.786 -0.0238  0.0360  0.1134
   6523SM   C12 8346   5.678   4.453  17.541  0.3448 -0.1607 -0.8832
   6523SM  H12A 8347   5.614   4.529  17.584 -0.1226 -2.1707  2.2943
   6523SM  H12B 8348   5.610   4.396  17.478  0.5780 -0.3619 -0.9552
   6523SM   C11 8349   5.768   4.533  17.441  0.3805  0.8806  0.0870
   6523SM  H11A 8350   5.703   4.587  17.370  2.9611  2.2311 -1.3851
   6523SM  H11B 8351   5.822   4.462  17.374 -1.7953 -0.4568 -0.3325
   6523SM     P 8352   5.818   4.765  17.557  0.8704  0.0442 -0.0224
   6523SM   O13 8353   5.716   4.751  17.663 -0.5074  0.1099 -0.1591
   6523SM   O14 8354   5.928   4.850  17.593 -0.1348  0.2320 -0.1076
   6523SM   O11 8355   5.738   4.816  17.429  0.0929  0.2565  0.1843
   6523SM   O12 8356   5.857   4.621  17.506  0.1085 -0.6734  0.2140
   6523SM   C1S 8357   5.801   4.844  17.306  0.3782  0.1793  0.2463
   6523SM   H1S 8358   5.783   4.762  17.233 -1.9290  1.9350 -1.3150
   6523SM   H1T 8359   5.910   4.861  17.312  0.9555 -2.2708 -1.7132
   6523SM    NF 8360   5.782   4.975  17.096 -0.2509  0.0432  0.1536
   6523SM   HNF 8361   5.854   5.043  17.085  0.1890 -0.3856  0.2969
   6523SM   C2S 8362   5.731   4.961  17.232  0.5054  0.4448  0.3186
   6523SM   H2S 8363   5.622   4.939  17.228  0.3659  0.9233  1.1229
   6523SM   C3S 8364   5.741   5.089  17.322 -0.2174 -0.1249 -0.2775
   6523SM   H3S 8365   5.850   5.115  17.324  0.3110 -2.1933 -0.0174
   6523SM    O3 8366   5.720   5.084  17.466 -0.1253 -0.0156  0.8891
   6523SM   HO3 8367   5.724   4.988  17.473  0.9072 -0.0658  0.0010
   6523SM   C4S 8368   5.674   5.206  17.264  1.0363 -0.0897 -0.4514
   6523SM   H4S 8369   5.568   5.180  17.250  0.8920 -1.1725  2.1696
   6523SM   C5S 8370   5.715   5.337  17.254 -0.3250  1.2219 -0.9255
   6523SM   H5S 8371   5.814   5.362  17.295  0.5546 -3.2904  0.1991
   6523SM   C6S 8372   5.628   5.446  17.210 -1.0434  0.5060 -0.2497
   6523SM   H6S 8373   5.660   5.532  17.273 -2.2777  2.1052 -1.7226
   6523SM   H6T 8374   5.520   5.428  17.228 -0.6015 -3.1754 -0.6056
   6523SM   C7S 8375   5.652   5.485  17.057  1.0372  0.4923 -0.2714
   6523SM   H7S 8376   5.610   5.403  16.995  2.5791  0.0138 -0.7385
   6523SM   H7T 8377   5.761   5.472  17.038  0.8671 -0.5441 -0.5720
   6523SM   C8S 8378   5.585   5.621  17.020 -0.6340  0.3117  0.4840
   6523SM   H8S 8379   5.634   5.701  17.080  1.0220  1.9076 -2.7626
   6523SM   H8T 8380   5.478   5.616  17.052 -0.7891 -1.3443 -0.1559
   6523SM   C9S 8381   5.572   5.657  16.874  0.0756  0.2380 -0.2480
   6523SM   H9S 8382   5.498   5.586  16.830  0.0219  0.0237  0.1796
   6523SM   H9T 8383   5.667   5.634  16.821  0.2178  1.5524 -0.5984
   6523SM  C10S 8384   5.521   5.800  16.859  0.3011  0.3372 -0.9131
   6523SM  H10S 8385   5.598   5.874  16.891 -0.3255  0.9938 -0.8918
   6523SM  H10T 8386   5.439   5.805  16.934  0.5990  1.6823 -0.6358
   6523SM  C11S 8387   5.475   5.836  16.713  0.3514  0.4250 -0.7634
   6523SM  H11S 8388   5.404   5.760  16.676  0.7287 -0.2064 -0.2286
   6523SM  H11T 8389   5.564   5.841  16.647  0.6091 -0.4956 -0.5032
   6523SM  C12S 8390   5.407   5.975  16.715 -0.3479 -0.2243 -0.1110
   6523SM  H12S 8391   5.483   6.046  16.752  0.6364 -0.2787 -1.9061
   6523SM  H12T 8392   5.328   5.968  16.793  0.4734  0.9721  0.8614
   6523SM  C13S 8393   5.337   6.020  16.588  0.3054  0.1002 -0.3003
   6523SM  H13S 8394   5.322   6.130  16.591  2.2561  0.4067 -0.3392
   6523SM  H13T 8395   5.241   5.963  16.587  1.3126 -1.7760 -2.6324
   6523SM  C14S 8396   5.411   5.985  16.459  0.3318  1.0537  0.7902
   6523SM  H14S 8397   5.440   5.878  16.456  0.9255  1.2241 -0.5093
   6523SM  H14T 8398   5.507   6.041  16.459  0.8830  0.2808 -1.8001
   6523SM  C15S 8399   5.334   6.022  16.331 -0.2901 -0.3106 -0.5146
   6523SM  H15S 8400   5.325   6.133  16.336  0.8296 -0.2770  1.5057
   6523SM  H15T 8401   5.231   5.982  16.341 -0.3903 -0.0452 -0.4698
   6523SM  C16S 8402   5.400   5.986  16.194  0.7006  0.2299  0.0422
   6523SM  H16S 8403   5.407   5.876  16.181 -0.3280  0.2499 -0.8406
   6523SM  H16T 8404   5.502   6.028  16.186  0.5676  0.6228  0.3601
   6523SM  C17S 8405   5.316   6.043  16.072 -0.2179 -0.2045  0.2164
   6523SM  H17S 8406   5.303   6.153  16.087 -0.4205 -0.2752  0.5948
   6523SM  H17T 8407   5.216   5.997  16.055  1.0559 -2.5458 -1.4042
   6523SM  C18S 8408   5.390   6.022  15.934 -0.7927 -0.2284  0.3134
   6523SM  H18S 8409   5.472   6.096  15.920 -0.1953 -0.9367  0.0333
   6523SM  H18T 8410   5.325   6.037  15.846  1.3054 -0.1758 -1.3023
   6523SM  H18U 8411   5.433   5.921  15.923 -2.6484 -1.0204 -0.0487
   6523SM   C1F 8412   5.751   4.890  16.996  0.4445 -0.3105 -0.4716
   6523SM    OF 8413   5.672   4.794  17.003  0.0937 -0.5216 -0.0685
   6523SM   C2F 8414   5.817   4.915  16.862  0.0339 -0.4707 -0.1766
   6523SM   H2F 8415   5.871   4.819  16.847  0.6364 -0.3540  1.0984
   6523SM   H2G 8416   5.890   4.998  16.871 -0.3183  0.0166 -1.5545
   6523SM   C3F 8417   5.706   4.941  16.752 -0.2395  0.0115 -0.4759
   6523SM   H3F 8418   5.640   4.853  16.735 -0.5365  0.0287  0.5180
   6523SM   H3G 8419   5.759   4.963  16.657  0.8900  0.8036  0.3101
   6523SM   C4F 8420   5.603   5.051  16.783 -0.1574 -0.0094  0.7085
   6523SM   H4F 8421   5.540   5.037  16.873  1.7243  0.5739  2.1890
   6523SM   H4G 8422   5.531   5.072  16.701  2.1227  1.9225 -0.9176
   6523SM   C5F 8423   5.663   5.195  16.797 -0.1480  0.0991  0.6872
   6523SM   H5F 8424   5.731   5.196  16.885  0.3855  1.9642  0.2945
   6523SM   H5G 8425   5.580   5.267  16.809 -1.4589 -1.4655  1.4369
   6523SM   C6F 8426   5.751   5.242  16.683  0.3372  0.0929 -0.3745
   6523SM   H6F 8427   5.679   5.235  16.598  1.5784 -0.4151 -1.4263
   6523SM   H6G 8428   5.850   5.197  16.661  1.6773  2.8173 -0.3589
   6523SM   C7F 8429   5.774   5.388  16.687 -0.3607  1.2171 -0.4751
   6523SM   H7F 8430   5.869   5.408  16.741 -0.8283  0.6827  0.5639
   6523SM   H7G 8431   5.699   5.436  16.753  0.0253 -0.7012  1.4732
   6523SM   C8F 8432   5.777   5.443  16.546 -0.6110 -0.2837 -0.0148
   6523SM   H8F 8433   5.695   5.401  16.484  0.0395 -0.1526 -0.9780
   6523SM   H8G 8434   5.860   5.396  16.488  0.6632  0.1810  1.3813
   6523SM   C9F 8435   5.795   5.599  16.537 -0.1823 -0.4769 -0.5557
   6523SM   H9F 8436   5.881   5.639  16.595 -2.5291  2.4326  1.1768
   6523SM   H9G 8437   5.703   5.647  16.574  0.6854 -0.4525  1.7237
   6523SM  C10F 8438   5.826   5.654  16.391  0.1934  0.6605  0.3322
   6523SM  H10F 8439   5.908   5.591  16.351 -0.6607  0.1711 -0.7195
   6523SM  H10G 8440   5.847   5.763  16.390 -1.6644  1.0645 -0.9082
   6523SM  C11F 8441   5.705   5.653  16.300  0.0496  0.4324  0.0628
   6523SM  H11F 8442   5.631   5.708  16.362 -0.9214 -1.5555  0.7483
   6523SM  H11G 8443   5.675   5.547  16.289  0.3593  0.5246 -1.9935
   6523SM  C12F 8444   5.723   5.697  16.154  0.5891 -0.5698  0.0660
   6523SM  H12F 8445   5.731   5.807  16.143  0.5243 -0.5810 -0.0951
   6523SM  H12G 8446   5.624   5.666  16.113  1.1543 -2.0637 -0.2203
   6523SM  C13F 8447   5.830   5.636  16.069 -0.8397 -0.4730 -0.3859
   6523SM  H13F 8448   5.813   5.526  16.069  1.2599 -0.9398  2.6049
   6523SM  H13G 8449   5.936   5.644  16.103 -0.9989 -0.7540  0.2060
   6523SM  C14F 8450   5.825   5.693  15.918 -0.1156 -0.0197  0.2238
   6523SM  H14F 8451   5.835   5.804  15.921 -0.2972  0.0125 -0.3370
   6523SM  H14G 8452   5.717   5.680  15.895 -0.5174  0.6594  1.6002
   6523SM  C15F 8453   5.906   5.618  15.809 -0.2729  0.5078  0.4913
   6523SM  H15F 8454   5.891   5.513  15.844 -1.1979  0.1559 -0.8753
   6523SM  H15G 8455   6.010   5.652  15.827  0.5214 -1.4908 -0.0487
   6523SM  C16F 8456   5.863   5.641  15.668 -0.4859  0.4772  0.0430
   6523SM  H16F 8457   5.829   5.745  15.648 -2.0298  0.5616  2.5990
   6523SM  H16G 8458   5.770   5.583  15.648  0.2905 -0.5832 -0.6049
   6523SM  C17F 8459   5.967   5.594  15.567 -0.5232  0.4961  0.6350
   6523SM  H17F 8460   6.004   5.492  15.592 -0.9438 -0.0693 -0.9440
   6523SM  H17G 8461   6.055   5.660  15.566 -0.1541  0.0173 -0.5518
   6523SM  C18F 8462   5.910   5.590  15.424  0.0417 -0.1888 -0.2038
   6523SM  H18F 8463   5.987   5.557  15.351 -0.1196 -0.1438 -0.3970
   6523SM  H18G 8464   5.860   5.686  15.398  2.6555  1.2564 -0.2878
   6523SM  C19F 8465   5.792   5.488  15.399 -0.0908  0.5054  0.4477
   6523SM  H19F 8466   5.766   5.494  15.292  0.3383 -1.8465  0.1511
   6523SM  H19G 8467   5.700   5.527  15.448 -1.8782  0.5573 -2.7279
   6523SM  C20F 8468   5.828   5.343  15.440 -0.2015 -0.1438 -0.0618
   6523SM  H20F 8469   5.736   5.287  15.412 -0.4282  0.0555  0.2840
   6523SM  H20G 8470   5.833   5.331  15.550 -1.9988  0.4500  0.1130
   6523SM  C21F 8471   5.943   5.291  15.357 -0.2565 -0.3007 -0.4877
   6523SM  H21F 8472   6.030   5.344  15.402 -1.4099  0.0417  1.4259
   6523SM  H21G 8473   5.935   5.328  15.252  2.6254  1.5149 -0.1877
   6523SM  C22F 8474   5.955   5.136  15.359  0.1305 -0.5744 -0.0614
   6523SM  H22F 8475   5.936   5.103  15.463 -4.4488 -0.0311 -0.5026
   6523SM  H22G 8476   6.057   5.104  15.329 -0.9204 -2.4432 -1.9718
   6523SM  C23F 8477   5.864   5.060  15.266  0.3386  0.2323 -0.1614
   6523SM  H23F 8478   5.761   5.089  15.295 -0.0398  1.4738 -2.4430
   6523SM  H23G 8479   5.882   4.951  15.274  1.2215  0.1780 -2.2319
   6523SM  H23H 8480   5.877   5.095  15.161 -0.4235 -1.8030 -0.9851
   6623SM     N 8481   3.751   2.241  17.559  0.1463 -0.7834 -0.1480
   6623SM   C15 8482   3.642   2.222  17.462 -0.5912  0.3652  0.1059
   6623SM  H15A 8483   3.558   2.186  17.520 -0.3167 -1.0265 -0.3343
   6623SM  H15B 8484   3.677   2.147  17.393 -0.4125 -0.8523  1.4602
   6623SM  H15C 8485   3.619   2.308  17.401  0.6813 -1.9532 -3.9945
   6623SM   C14 8486   3.700   2.310  17.680  0.6547  0.9437  0.1850
   6623SM  H14A 8487   3.700   2.416  17.657  0.7810  1.0485  0.6646
   6623SM  H14B 8488   3.772   2.297  17.759  1.3577  2.1738 -0.2269
   6623SM  H14C 8489   3.602   2.275  17.709 -0.7752  3.4340 -1.1693
   6623SM   C13 8490   3.798   2.106  17.601 -0.1761 -0.1456  0.0428
   6623SM  H13A 8491   3.731   2.061  17.672  0.8561  0.2206  1.2911
   6623SM  H13B 8492   3.902   2.108  17.632  0.3172  1.1202 -1.5516
   6623SM  H13C 8493   3.793   2.035  17.520 -2.8095  0.5189 -0.4585
   6623SM   C12 8494   3.865   2.315  17.487 -0.8277  0.7144 -0.4985
   6623SM  H12A 8495   3.813   2.400  17.446 -3.0552 -0.2094  0.2230
   6623SM  H12B 8496   3.902   2.267  17.398  1.8911  1.4710  0.1260
   6623SM   C11 8497   3.986   2.359  17.575 -0.0056  0.0987  0.6568
   6623SM  H11A 8498   4.061   2.404  17.506  0.0037  0.7738  1.0943
   6623SM  H11B 8499   4.027   2.271  17.630  0.8622  0.1291  0.0801
   6623SM     P 8500   3.978   2.609  17.646 -0.1209  0.3877  0.3628
   6623SM   O13 8501   3.858   2.690  17.670  0.2585  0.0457 -0.1191
   6623SM   O14 8502   4.102   2.640  17.718  0.0989 -0.5816 -0.0636
   6623SM   O11 8503   4.019   2.641  17.493 -0.6556 -0.2182  0.0156
   6623SM   O12 8504   3.946   2.457  17.668 -0.2210 -0.0345 -0.4881
   6623SM   C1S 8505   3.951   2.614  17.370  0.8191 -0.4961 -0.0569
   6623SM   H1S 8506   3.841   2.622  17.379  0.8347 -0.8252  0.4485
   6623SM   H1T 8507   3.966   2.509  17.337 -1.3460 -0.7902 -0.2288
   6623SM    NF 8508   3.944   2.660  17.121 -0.6016 -0.8574  0.2607
   6623SM   HNF 8509   4.005   2.619  17.054 -1.3730  1.2166 -1.8230
   6623SM   C2S 8510   4.006   2.708  17.251 -0.2923 -0.0999 -0.2054
   6623SM   H2S 8511   3.961   2.808  17.269  0.3999  0.4911 -1.5774
   6623SM   C3S 8512   4.169   2.722  17.247  0.6710 -1.0009 -0.6049
   6623SM   H3S 8513   4.222   2.625  17.243 -1.0923 -2.1917  1.9696
   6623SM    O3 8514   4.222   2.778  17.367 -0.8925  0.2613  0.5444
   6623SM   HO3 8515   4.168   2.736  17.435 -0.0226  0.0479  1.1090
   6623SM   C4S 8516   4.201   2.812  17.130 -0.0675  0.2223  0.0620
   6623SM   H4S 8517   4.164   2.914  17.146 -2.3239 -0.6857  1.1350
   6623SM   C5S 8518   4.296   2.781  17.037  0.7556 -0.0282 -0.7066
   6623SM   H5S 8519   4.344   2.682  17.042  0.2744 -0.2432 -0.2709
   6623SM   C6S 8520   4.332   2.867  16.919 -0.1888  0.1497 -0.0288
   6623SM   H6S 8521   4.442   2.882  16.908  0.0753 -0.5703  1.3904
   6623SM   H6T 8522   4.282   2.966  16.918 -1.7448 -0.6061 -0.3095
   6623SM   C7S 8523   4.282   2.795  16.785 -0.4933  0.3655 -0.1939
   6623SM   H7S 8524   4.177   2.764  16.804 -0.0772 -1.1739 -0.2246
   6623SM   H7T 8525   4.346   2.704  16.779 -0.7314  0.0051  1.8236
   6623SM   C8S 8526   4.301   2.893  16.667 -0.0248  0.1509  1.3616
   6623SM   H8S 8527   4.277   2.999  16.688  0.9339  0.6776 -0.0581
   6623SM   H8T 8528   4.227   2.868  16.588  1.0343  0.2642  0.3084
   6623SM   C9S 8529   4.441   2.886  16.599  0.1167  0.3406  0.5287
   6623SM   H9S 8530   4.450   2.781  16.564  1.9885  0.5718  0.2522
   6623SM   H9T 8531   4.520   2.907  16.674  0.3357 -0.9184  0.6633
   6623SM  C10S 8532   4.449   2.965  16.467 -0.2559 -0.2930  0.2053
   6623SM  H10S 8533   4.406   3.066  16.485 -1.5733 -0.8091  0.0587
   6623SM  H10T 8534   4.377   2.919  16.396  1.3769 -2.7796  0.0119
   6623SM  C11S 8535   4.585   2.948  16.395 -0.1521 -0.2759  0.4786
   6623SM  H11S 8536   4.627   2.845  16.388 -0.4585 -0.3015 -1.5195
   6623SM  H11T 8537   4.665   3.005  16.446 -1.2552 -0.5267  2.5773
   6623SM  C12S 8538   4.574   2.995  16.249 -0.6321 -0.2289 -0.0834
   6623SM  H12S 8539   4.549   3.103  16.246  0.6439  0.0643 -0.5176
   6623SM  H12T 8540   4.488   2.943  16.201 -2.9282  0.9855  2.3686
   6623SM  C13S 8541   4.708   2.981  16.170 -0.0099 -0.2284 -0.2228
   6623SM  H13S 8542   4.744   2.878  16.192 -0.1613 -0.3125 -0.3591
   6623SM  H13T 8543   4.784   3.054  16.204  0.4638 -0.5577 -0.5524
   6623SM  C14S 8544   4.672   2.988  16.020  0.0596  0.1685  0.4062
   6623SM  H14S 8545   4.625   3.087  16.000 -2.4337 -1.1671 -0.7984
   6623SM  H14T 8546   4.584   2.924  16.000  0.2543 -0.2897  0.9906
   6623SM  C15S 8547   4.784   2.965  15.921  0.0226 -0.7938  0.1422
   6623SM  H15S 8548   4.860   3.040  15.952 -1.7610  0.7168  1.1232
   6623SM  H15T 8549   4.750   2.993  15.819  0.1555 -0.8464  0.0835
   6623SM  C16S 8550   4.853   2.828  15.930  0.3880 -0.0553  0.0272
   6623SM  H16S 8551   4.760   2.767  15.924 -0.0141  0.6022 -0.5740
   6623SM  H16T 8552   4.894   2.807  16.031 -2.2495 -0.1727  1.1737
   6623SM  C17S 8553   4.961   2.805  15.819  0.2418 -0.0473  0.2681
   6623SM  H17S 8554   4.989   2.698  15.833  0.1843  0.0527  1.1901
   6623SM  H17T 8555   5.040   2.881  15.832  1.6817 -1.5894  0.8250
   6623SM  C18S 8556   4.912   2.829  15.671 -0.3905 -0.1060 -0.0650
   6623SM  H18S 8557   4.980   2.778  15.599 -0.2108 -0.6590  0.4881
   6623SM  H18T 8558   4.905   2.940  15.660 -0.1379 -0.1395 -0.5892
   6623SM  H18U 8559   4.812   2.784  15.659  0.4735 -1.7182 -1.6919
   6623SM   C1F 8560   3.821   2.663  17.079  0.0227  1.0651  0.1177
   6623SM    OF 8561   3.733   2.693  17.159 -0.5970  0.1766  0.2354
   6623SM   C2F 8562   3.799   2.611  16.935 -0.9216  0.3789  0.1701
   6623SM   H2F 8563   3.793   2.500  16.941 -3.2373  0.4977  0.9135
   6623SM   H2G 8564   3.882   2.645  16.870 -1.8839 -0.7090 -1.6908
   6623SM   C3F 8565   3.665   2.648  16.869  0.5249 -0.1500  0.4788
   6623SM   H3F 8566   3.638   2.756  16.865 -0.9750 -0.4706  1.4048
   6623SM   H3G 8567   3.584   2.608  16.934 -1.7066  0.7868 -1.5973
   6623SM   C4F 8568   3.648   2.607  16.720 -0.2341  0.1848 -0.3852
   6623SM   H4F 8569   3.541   2.631  16.698  0.2917  1.7676 -1.3865
   6623SM   H4G 8570   3.660   2.498  16.705 -1.1922 -0.3045  1.8700
   6623SM   C5F 8571   3.740   2.683  16.629  0.0791  0.0991  0.5475
   6623SM   H5F 8572   3.849   2.667  16.637  0.1460 -0.1187 -0.6325
   6623SM   H5G 8573   3.716   2.787  16.660  0.8684  0.4540  0.0016
   6623SM   C6F 8574   3.701   2.669  16.485  1.0152  0.0289 -0.4149
   6623SM   H6F 8575   3.613   2.737  16.475  0.7156 -0.1568  0.8634
   6623SM   H6G 8576   3.677   2.561  16.473 -2.3651  0.5691  0.4057
   6623SM   C7F 8577   3.802   2.713  16.375 -0.6281 -0.0461 -0.2839
   6623SM   H7F 8578   3.900   2.670  16.405 -0.4380  0.3201 -0.3713
   6623SM   H7G 8579   3.806   2.824  16.372  0.1422 -0.0223  0.8480
   6623SM   C8F 8580   3.749   2.671  16.238  0.0035  0.1525  0.8450
   6623SM   H8F 8581   3.643   2.704  16.226  0.6890  2.3430  0.3289
   6623SM   H8G 8582   3.758   2.561  16.230  0.8959  0.0652  2.6437
   6623SM   C9F 8583   3.843   2.724  16.119  0.2843 -0.2688 -0.1430
   6623SM   H9F 8584   3.950   2.697  16.131  0.7587  1.6003  0.0656
   6623SM   H9G 8585   3.854   2.834  16.128 -0.5537  0.1774 -3.3174
   6623SM  C10F 8586   3.787   2.692  15.981  0.1522  0.6291  0.1589
   6623SM  H10F 8587   3.686   2.735  15.994 -1.1275 -2.3732  0.8636
   6623SM  H10G 8588   3.769   2.583  15.966 -0.7966  0.6904  0.7874
   6623SM  C11F 8589   3.862   2.762  15.863  0.2050  0.3108  0.0600
   6623SM  H11F 8590   3.965   2.721  15.875 -0.5696 -1.8227 -0.1574
   6623SM  H11G 8591   3.857   2.872  15.878  1.1449  0.5306 -1.0606
   6623SM  C12F 8592   3.803   2.730  15.728  0.8948 -0.7282 -0.3791
   6623SM  H12F 8593   3.854   2.803  15.660 -0.6516 -0.5188 -1.3799
   6623SM  H12G 8594   3.694   2.752  15.722  1.0005 -0.3081 -0.8615
   6623SM  C13F 8595   3.826   2.586  15.680  0.2201 -0.0068 -0.5273
   6623SM  H13F 8596   3.789   2.517  15.759 -2.2797  3.7816  1.9820
   6623SM  H13G 8597   3.936   2.573  15.685  0.2472  0.4212  0.1279
   6623SM  C14F 8598   3.776   2.544  15.541 -0.1621  0.1840 -0.5821
   6623SM  H14F 8599   3.810   2.439  15.523  0.3906  0.0526  1.1070
   6623SM  H14G 8600   3.821   2.606  15.460  2.5642  2.3451  2.3201
   6623SM  C15F 8601   3.620   2.550  15.530  0.1613 -0.4015  0.3169
   6623SM  H15F 8602   3.598   2.654  15.496  1.8968 -0.8029 -2.3356
   6623SM  H15G 8603   3.567   2.537  15.627 -0.3351 -2.0011 -0.1507
   6623SM  C16F 8604   3.552   2.460  15.423 -0.1373 -0.6281 -0.6101
   6623SM  H16F 8605   3.558   2.349  15.432  0.1685 -0.4277  3.5675
   6623SM  H16G 8606   3.579   2.496  15.321 -0.2764 -1.7694 -1.0603
   6623SM  C17F 8607   3.401   2.472  15.437 -0.1330  0.5212 -0.3996
   6623SM  H17F 8608   3.362   2.570  15.404  0.3903  0.8543 -0.0543
   6623SM  H17G 8609   3.368   2.462  15.542 -1.2774 -2.3536 -0.9493
   6623SM  C18F 8610   3.337   2.360  15.362  0.2784  0.1352  0.0825
   6623SM  H18F 8611   3.374   2.268  15.412  0.4435 -0.5853 -1.2878
   6623SM  H18G 8612   3.376   2.365  15.258  0.7596 -1.6917  0.1406
   6623SM  C19F 8613   3.187   2.347  15.377  0.0188  0.3324  0.1702
   6623SM  H19F 8614   3.161   2.343  15.485  1.4626  1.2171  0.5750
   6623SM  H19G 8615   3.157   2.243  15.350 -0.8024 -0.4035  3.4692
   6623SM  C20F 8616   3.102   2.456  15.309  0.6752 -0.0578  0.5741
   6623SM  H20F 8617   3.099   2.421  15.204 -0.6011  0.2852  0.4759
   6623SM  H20G 8618   3.157   2.553  15.305  2.1667 -0.8772 -3.2025
   6623SM  C21F 8619   2.963   2.464  15.356  0.5452 -0.0197 -0.1997
   6623SM  H21F 8620   2.932   2.570  15.338  1.0678  0.2329  0.3664
   6623SM  H21G 8621   2.971   2.450  15.466 -0.5554  0.7857  0.0060
   6623SM  C22F 8622   2.860   2.361  15.308  0.4576 -0.0650 -0.3942
   6623SM  H22F 8623   2.894   2.258  15.329 -1.6094 -0.3676  1.8749
   6623SM  H22G 8624   2.839   2.369  15.199 -0.4216 -1.1566 -0.3229
   6623SM  C23F 8625   2.724   2.371  15.380  0.4141 -0.5964 -0.0551
   6623SM  H23F 8626   2.668   2.275  15.372 -0.5951  0.0790 -1.7018
   6623SM  H23G 8627   2.664   2.451  15.331 -0.9309 -2.9318 -2.4793
   6623SM  H23H 8628   2.739   2.393  15.488 -2.0020  1.7808 -0.0932
   6723SM     N 8629   3.445   6.546  17.671  0.6497  0.0924  0.2230
   6723SM   C15 8630   3.355   6.434  17.647  0.3893  0.2332  0.1232
   6723SM  H15A 8631   3.407   6.357  17.593 -1.1549 -0.4587 -0.4485
   6723SM  H15B 8632   3.275   6.471  17.584  1.8506 -0.0030 -1.9438
   6723SM  H15C 8633   3.313   6.398  17.740 -1.1796  0.6426 -0.3817
   6723SM   C14 8634   3.357   6.656  17.727  0.3217 -0.3631 -0.5934
   6723SM  H14A 8635   3.404   6.750  17.751 -1.6842 -0.1598  3.2992
   6723SM  H14B 8636   3.297   6.622  17.810  0.8662 -1.1680 -0.5135
   6723SM  H14C 8637   3.286   6.672  17.647  0.1845 -1.6278 -0.7552
   6723SM   C13 8638   3.542   6.506  17.777 -0.0584  0.4364 -0.2435
   6723SM  H13A 8639   3.612   6.586  17.798  0.3739 -0.0264  0.1107
   6723SM  H13B 8640   3.600   6.424  17.737 -2.1835 -0.0224 -2.6005
   6723SM  H13C 8641   3.499   6.467  17.868  1.3168  2.0977  1.1916
   6723SM   C12 8642   3.507   6.603  17.550  0.1282  0.1910  0.3975
   6723SM  H12A 8643   3.583   6.536  17.514  0.4360  0.6888  0.1009
   6723SM  H12B 8644   3.559   6.693  17.581  0.0284  0.7987 -1.0827
   6723SM   C11 8645   3.410   6.637  17.433  0.4836  0.1948 -0.5378
   6723SM  H11A 8646   3.352   6.544  17.413  1.1038 -1.4653  4.1196
   6723SM  H11B 8647   3.471   6.653  17.342  3.1329  0.3358  1.1569
   6723SM     P 8648   3.369   6.899  17.447 -0.3139  0.4285 -0.0919
   6723SM   O13 8649   3.255   6.995  17.475  0.0081 -0.1759 -0.1678
   6723SM   O14 8650   3.491   6.910  17.534  0.1404 -0.2406 -0.2685
   6723SM   O11 8651   3.394   6.904  17.288  0.2817 -0.1520  0.2365
   6723SM   O12 8652   3.319   6.748  17.469  0.3275  0.3356  0.2486
   6723SM   C1S 8653   3.279   6.911  17.199  0.7094  0.6154 -0.4634
   6723SM   H1S 8654   3.228   7.008  17.220 -1.7416 -0.4856 -0.9734
   6723SM   H1T 8655   3.205   6.830  17.214 -0.9516  1.7913 -1.9327
   6723SM    NF 8656   3.195   6.970  16.979  0.1103 -0.1255 -0.2303
   6723SM   HNF 8657   3.120   6.918  16.939 -1.5398  1.2950  0.8126
   6723SM   C2S 8658   3.306   6.913  17.050 -0.7488  1.0911 -0.5576
   6723SM   H2S 8659   3.379   6.996  17.035 -1.4134  2.3430  2.4236
   6723SM   C3S 8660   3.365   6.778  16.996 -0.0368  0.7938 -0.2898
   6723SM   H3S 8661   3.286   6.702  17.019 -2.2327  2.7698 -0.8887
   6723SM    O3 8662   3.484   6.729  17.063  0.6266  0.2082 -0.0687
   6723SM   HO3 8663   3.500   6.779  17.143  0.6527 -1.7043  1.1659
   6723SM   C4S 8664   3.397   6.789  16.858 -0.7111 -0.0089  0.7152
   6723SM   H4S 8665   3.494   6.837  16.841 -0.3453 -1.2536 -1.0053
   6723SM   C5S 8666   3.332   6.738  16.750  0.8901  0.7868 -0.5159
   6723SM   H5S 8667   3.240   6.677  16.748  0.2335  1.7688 -1.5791
   6723SM   C6S 8668   3.382   6.757  16.609  0.1781  0.1214  0.1264
   6723SM   H6S 8669   3.449   6.844  16.596  0.7233 -0.6677 -3.0340
   6723SM   H6T 8670   3.297   6.760  16.538  0.7988  2.6054 -0.6114
   6723SM   C7S 8671   3.452   6.631  16.554  0.2490 -0.2771 -0.4687
   6723SM   H7S 8672   3.384   6.544  16.549  1.4695 -1.6363  3.3426
   6723SM   H7T 8673   3.536   6.600  16.620 -1.5589  1.3016  2.8197
   6723SM   C8S 8674   3.511   6.641  16.412  0.0378  0.1174  0.1399
   6723SM   H8S 8675   3.568   6.553  16.377 -1.0934 -0.0280 -1.4422
   6723SM   H8T 8676   3.587   6.722  16.410 -0.9082  1.0331 -0.2047
   6723SM   C9S 8677   3.395   6.668  16.311 -0.4806 -0.7368 -0.0547
   6723SM   H9S 8678   3.356   6.767  16.342  0.0117  1.0936 -4.5541
   6723SM   H9T 8679   3.315   6.591  16.319 -1.3907  0.2339  0.3652
   6723SM  C10S 8680   3.439   6.687  16.171  0.4291  0.5218  0.1153
   6723SM  H10S 8681   3.446   6.582  16.136 -1.8562  0.2233  0.4094
   6723SM  H10T 8682   3.538   6.734  16.153  0.0943  1.1656 -0.1039
   6723SM  C11S 8683   3.326   6.756  16.081  0.2616  0.3478  0.1352
   6723SM  H11S 8684   3.337   6.859  16.122  1.0573 -0.3592  1.7820
   6723SM  H11T 8685   3.231   6.707  16.111 -1.3183  1.8362 -2.0736
   6723SM  C12S 8686   3.367   6.757  15.935  0.1531 -0.5171  0.0682
   6723SM  H12S 8687   3.450   6.824  15.904 -1.2845  0.7051 -1.3209
   6723SM  H12T 8688   3.280   6.796  15.879  0.8280  0.3651 -0.3788
   6723SM  C13S 8689   3.400   6.616  15.876  0.1253  0.2999 -0.1716
   6723SM  H13S 8690   3.313   6.551  15.902  1.2313 -0.9181  0.6137
   6723SM  H13T 8691   3.497   6.590  15.924 -0.2150  1.1920  1.0584
   6723SM  C14S 8692   3.421   6.617  15.719 -0.7294  0.2430 -0.6224
   6723SM  H14S 8693   3.489   6.704  15.706 -0.2959 -0.3563 -2.8600
   6723SM  H14T 8694   3.319   6.633  15.676 -0.9518  1.7863  0.3804
   6723SM  C15S 8695   3.480   6.484  15.674  0.3337  0.3058 -0.1760
   6723SM  H15S 8696   3.413   6.402  15.709  0.4324  0.1858 -0.2702
   6723SM  H15T 8697   3.573   6.466  15.731  0.7193  0.0671 -0.8807
   6723SM  C16S 8698   3.498   6.463  15.525  0.2834 -0.5462 -0.0858
   6723SM  H16S 8699   3.596   6.510  15.500  0.0029  0.5116  0.7243
   6723SM  H16T 8700   3.426   6.524  15.467 -1.4932 -1.2433  1.3118
   6723SM  C17S 8701   3.501   6.311  15.486  0.7030  0.4255 -0.4826
   6723SM  H17S 8702   3.402   6.264  15.466  0.1062  0.7866  1.4060
   6723SM  H17T 8703   3.544   6.253  15.571 -0.6003 -0.6060 -0.4878
   6723SM  C18S 8704   3.583   6.277  15.365  0.0292 -0.0243 -0.1283
   6723SM  H18S 8705   3.589   6.167  15.348  1.0609  0.1047 -0.6766
   6723SM  H18T 8706   3.690   6.304  15.375  0.0901 -0.2724 -0.1211
   6723SM  H18U 8707   3.532   6.329  15.282 -1.4764 -0.4411  0.4952
   6723SM   C1F 8708   3.163   7.102  16.999 -0.3653  0.2611  0.1586
   6723SM    OF 8709   3.239   7.178  17.059 -0.4411  1.2174  0.2944
   6723SM   C2F 8710   3.032   7.152  16.947 -0.2381 -0.0507 -0.1809
   6723SM   H2F 8711   3.042   7.262  16.940  0.2327 -0.0517  0.4514
   6723SM   H2G 8712   2.964   7.122  17.030 -0.4608 -0.7208 -0.5990
   6723SM   C3F 8713   2.972   7.092  16.820 -0.5088 -0.3158  0.3968
   6723SM   H3F 8714   2.872   7.140  16.822 -0.2839  0.2401 -0.8134
   6723SM   H3G 8715   2.969   6.981  16.827 -0.2595 -0.3046  0.7403
   6723SM   C4F 8716   3.035   7.158  16.698 -0.2405 -0.1224 -0.2327
   6723SM   H4F 8717   3.042   7.268  16.713 -1.4400 -0.2611  1.7387
   6723SM   H4G 8718   2.978   7.150  16.602  2.3263  0.0399 -1.8632
   6723SM   C5F 8719   3.171   7.091  16.651  0.4345 -0.0961  0.1541
   6723SM   H5F 8720   3.181   6.981  16.663 -0.9535 -0.3370 -0.6628
   6723SM   H5G 8721   3.257   7.132  16.708 -1.2681 -1.0564  3.6289
   6723SM   C6F 8722   3.184   7.119  16.504 -0.0663  0.0398 -0.4142
   6723SM   H6F 8723   3.164   7.227  16.487 -0.8450 -0.0243  0.0150
   6723SM   H6G 8724   3.101   7.070  16.449  0.2039  1.6639 -2.3604
   6723SM   C7F 8725   3.320   7.078  16.450 -0.2202 -0.0559 -0.2994
   6723SM   H7F 8726   3.352   6.982  16.496  1.2225  0.3974 -0.2980
   6723SM   H7G 8727   3.396   7.147  16.493  1.9490 -2.0802 -0.7226
   6723SM   C8F 8728   3.332   7.067  16.294  0.6056 -0.7156 -0.3021
   6723SM   H8F 8729   3.275   7.151  16.247  1.3626  0.9899  1.6445
   6723SM   H8G 8730   3.283   6.981  16.244 -1.0152  0.2524 -0.4728
   6723SM   C9F 8731   3.484   7.089  16.272 -0.7601  0.8011 -0.7241
   6723SM   H9F 8732   3.534   7.000  16.316 -1.3501  0.0639 -1.5040
   6723SM   H9G 8733   3.518   7.183  16.321  0.1218  0.8756 -1.4590
   6723SM  C10F 8734   3.536   7.097  16.123  0.4335  0.1805  0.6559
   6723SM  H10F 8735   3.526   7.200  16.083 -1.3734  1.1932  3.3885
   6723SM  H10G 8736   3.466   7.034  16.064 -0.7137  3.5703 -1.8887
   6723SM  C11F 8737   3.678   7.036  16.113  0.0871 -0.3574  0.1461
   6723SM  H11F 8738   3.688   6.945  16.176  0.9303 -0.8732 -0.7026
   6723SM  H11G 8739   3.755   7.110  16.143 -0.3616  0.0348  0.3396
   6723SM  C12F 8740   3.717   6.990  15.974  0.1327 -0.3337 -0.6335
   6723SM  H12F 8741   3.642   6.920  15.933  0.5683 -0.5299 -1.1137
   6723SM  H12G 8742   3.812   6.932  15.978  0.6036  0.3720 -1.1478
   6723SM  C13F 8743   3.730   7.101  15.873  0.1165  0.9107  0.6723
   6723SM  H13F 8744   3.804   7.177  15.905  1.3000  0.6405 -1.2689
   6723SM  H13G 8745   3.638   7.161  15.860  0.4008  1.2596  0.2707
   6723SM  C14F 8746   3.782   7.058  15.733 -0.1132  0.4891 -0.1854
   6723SM  H14F 8747   3.868   6.989  15.745 -0.3628  0.4496  1.6125
   6723SM  H14G 8748   3.808   7.154  15.685  1.9057  0.0146 -0.1161
   6723SM  C15F 8749   3.675   6.975  15.653 -0.1920  0.2135 -0.3643
   6723SM  H15F 8750   3.576   7.025  15.647 -2.4541 -3.5032  1.9753
   6723SM  H15G 8751   3.656   6.874  15.695 -2.4404  1.5146  2.0528
   6723SM  C16F 8752   3.710   6.954  15.502 -0.1962  0.0255 -0.5447
   6723SM  H16F 8753   3.812   6.910  15.497  0.0052  0.4500 -0.1830
   6723SM  H16G 8754   3.722   7.055  15.458  2.1367  0.0313 -0.0242
   6723SM  C17F 8755   3.611   6.881  15.409  0.1963  0.3539 -0.0456
   6723SM  H17F 8756   3.518   6.935  15.379 -0.2816  0.6910  1.8677
   6723SM  H17G 8757   3.568   6.795  15.466 -0.5817  1.0695  0.4743
   6723SM  C18F 8758   3.674   6.836  15.281  0.2517  0.1466  0.6763
   6723SM  H18F 8759   3.629   6.738  15.254 -1.5585  0.2235  3.0727
   6723SM  H18G 8760   3.784   6.832  15.295  0.4466  2.1066 -0.1042
   6723SM  C19F 8761   3.644   6.939  15.165  0.5924  0.5882 -0.3540
   6723SM  H19F 8762   3.654   7.044  15.200 -3.1839  0.0698  2.8821
   6723SM  H19G 8763   3.537   6.942  15.138  1.1425  1.5916 -2.7385
   6723SM  C20F 8764   3.730   6.903  15.048 -0.2050 -0.2304  0.1230
   6723SM  H20F 8765   3.707   6.802  15.008 -1.5057 -0.9305  2.5005
   6723SM  H20G 8766   3.834   6.902  15.089  0.7424  3.0211 -1.8412
   6723SM  C21F 8767   3.741   7.029  14.954  0.2793  0.6481 -0.0833
   6723SM  H21F 8768   3.797   7.102  15.017  0.3544 -0.3926  1.0889
   6723SM  H21G 8769   3.644   7.073  14.922  0.2216  0.6613  0.1080
   6723SM  C22F 8770   3.829   7.016  14.828 -0.1516  0.2166  0.0105
   6723SM  H22F 8771   3.913   6.954  14.865 -0.2377  0.9142  1.4595
   6723SM  H22G 8772   3.871   7.117  14.807  0.9758 -0.0084  1.0626
   6723SM  C23F 8773   3.754   6.951  14.711  0.5271  0.3988  0.2444
   6723SM  H23F 8774   3.680   7.026  14.677  0.6516  1.0894  1.4251
   6723SM  H23G 8775   3.692   6.866  14.748  0.2020  0.2701 -0.5830
   6723SM  H23H 8776   3.817   6.917  14.626 -2.0311  0.7350 -1.9070
   6823SM     N 8777   2.361   2.035  17.913  0.7031 -0.3751 -0.1803
   6823SM   C15 8778   2.225   1.996  17.972 -0.2890  0.7129  0.3305
   6823SM  H15A 8779   2.200   1.894  17.947  3.0707 -0.3797  0.7696
   6823SM  H15B 8780   2.158   2.064  17.922  0.7719  0.6272 -1.2754
   6823SM  H15C 8781   2.223   2.013  18.079 -1.3856  0.2711  0.3944
   6823SM   C14 8782   2.414   2.155  17.990 -0.0927 -0.1844  0.8848
   6823SM  H14A 8783   2.341   2.235  17.993  2.1785  1.9653  4.0094
   6823SM  H14B 8784   2.502   2.183  17.934 -0.7983  0.3191 -0.0065
   6823SM  H14C 8785   2.432   2.121  18.090 -1.7207 -0.1417  1.2260
   6823SM   C13 8786   2.457   1.923  17.927  0.4213 -0.5598 -0.0267
   6823SM  H13A 8787   2.477   1.890  18.028 -0.6059 -2.1792 -0.3183
   6823SM  H13B 8788   2.558   1.946  17.896  0.6282  0.0474  1.0400
   6823SM  H13C 8789   2.427   1.830  17.881 -0.3288  0.2682 -1.2561
   6823SM   C12 8790   2.357   2.055  17.762  0.3145 -0.7376  0.5204
   6823SM  H12A 8791   2.297   1.980  17.713 -2.1943  1.5561 -0.1147
   6823SM  H12B 8792   2.459   2.031  17.735  0.7328 -0.2479  1.5965
   6823SM   C11 8793   2.324   2.193  17.700 -0.4541  0.3349 -0.1105
   6823SM  H11A 8794   2.317   2.190  17.589 -2.8334  0.9952 -0.0453
   6823SM  H11B 8795   2.415   2.255  17.710  1.5891 -2.4545 -0.3643
   6823SM     P 8796   2.053   2.198  17.721  0.2775  0.3700 -0.4280
   6823SM   O13 8797   2.030   2.053  17.740  0.1360 -0.3686 -0.1929
   6823SM   O14 8798   1.961   2.281  17.795  0.2608  0.5000 -0.2424
   6823SM   O11 8799   2.046   2.245  17.567  0.2125  0.0388 -0.0252
   6823SM   O12 8800   2.202   2.240  17.755  0.5187 -0.4318 -0.2577
   6823SM   C1S 8801   2.085   2.378  17.525 -0.1818 -0.5667  0.2218
   6823SM   H1S 8802   2.195   2.387  17.516 -0.3127 -0.8913 -2.5870
   6823SM   H1T 8803   2.056   2.461  17.593 -0.9116 -0.0319 -0.7100
   6823SM    NF 8804   2.083   2.520  17.311  0.4665  0.4788 -0.0949
   6823SM   HNF 8805   2.042   2.611  17.320 -0.1458  0.2977 -0.9390
   6823SM   C2S 8806   2.016   2.416  17.391 -0.4467  0.2873 -0.1975
   6823SM   H2S 8807   2.022   2.319  17.337  0.0627 -0.3131  0.8952
   6823SM   C3S 8808   1.863   2.445  17.410  1.4946 -0.0635 -0.2838
   6823SM   H3S 8809   1.858   2.541  17.466  2.0564  0.1606 -0.6125
   6823SM    O3 8810   1.802   2.348  17.498  0.7534  0.0748 -0.2219
   6823SM   HO3 8811   1.881   2.296  17.515 -0.8529 -1.9527  1.7246
   6823SM   C4S 8812   1.786   2.445  17.277 -0.5866 -1.0758 -0.1729
   6823SM   H4S 8813   1.804   2.537  17.220 -0.2103 -1.5085 -0.7678
   6823SM   C5S 8814   1.729   2.348  17.211  0.9684  0.2825  0.1915
   6823SM   H5S 8815   1.726   2.251  17.263 -0.6464  1.3522  2.2611
   6823SM   C6S 8816   1.675   2.357  17.073  0.0687 -0.7028 -0.0573
   6823SM   H6S 8817   1.648   2.463  17.053  0.2656 -0.5612  0.4394
   6823SM   H6T 8818   1.577   2.305  17.082  0.5096 -1.8954 -1.6063
   6823SM   C7S 8819   1.765   2.271  16.980  0.1590  0.6907  0.8562
   6823SM   H7S 8820   1.785   2.168  17.016  1.0628 -0.4107 -2.4399
   6823SM   H7T 8821   1.858   2.332  16.975  0.3988  0.2917  0.2588
   6823SM   C8S 8822   1.725   2.262  16.831  0.5131 -0.8306  0.6886
   6823SM   H8S 8823   1.725   2.366  16.792 -0.6660 -0.4251  1.6943
   6823SM   H8T 8824   1.623   2.216  16.829  0.7596 -1.3962  0.7891
   6823SM   C9S 8825   1.811   2.166  16.755  0.4260  0.0741  0.1713
   6823SM   H9S 8826   1.801   2.186  16.647 -1.8128  0.6487  0.4411
   6823SM   H9T 8827   1.785   2.060  16.774 -3.6411  1.0319  1.0363
   6823SM  C10S 8828   1.962   2.176  16.788 -0.2745  0.0646  0.3077
   6823SM  H10S 8829   1.975   2.115  16.880 -0.3899  0.0745  0.3290
   6823SM  H10T 8830   1.990   2.283  16.792 -2.3920  0.7044 -0.4456
   6823SM  C11S 8831   2.050   2.105  16.682 -0.3539 -0.0022  0.1882
   6823SM  H11S 8832   2.154   2.135  16.707 -0.3908 -0.0813  0.4416
   6823SM  H11T 8833   2.031   2.146  16.580  1.5559 -1.0025 -0.6187
   6823SM  C12S 8834   2.042   1.950  16.668  0.1807  0.0069 -1.0031
   6823SM  H12S 8835   1.935   1.926  16.651 -0.4159 -0.5275  2.6255
   6823SM  H12T 8836   2.070   1.900  16.764  1.2814 -0.1208 -1.3769
   6823SM  C13S 8837   2.128   1.887  16.556 -0.2340 -0.2232 -0.6533
   6823SM  H13S 8838   2.143   1.777  16.568  0.0194 -0.1312 -0.1188
   6823SM  H13T 8839   2.231   1.929  16.559 -0.6092  0.6975 -0.3843
   6823SM  C14S 8840   2.073   1.912  16.414 -0.2782  0.2663 -0.4021
   6823SM  H14S 8841   2.114   2.007  16.372 -0.8101 -0.5790 -3.0029
   6823SM  H14T 8842   1.963   1.905  16.424 -0.0850 -4.8830  1.0380
   6823SM  C15S 8843   2.110   1.805  16.312  0.4074  0.0635 -0.4473
   6823SM  H15S 8844   2.072   1.704  16.338  2.2838 -0.2219  1.4566
   6823SM  H15T 8845   2.220   1.792  16.312  0.3912 -0.2638 -2.3562
   6823SM  C16S 8846   2.060   1.832  16.167  0.6773  0.1560  0.4846
   6823SM  H16S 8847   2.116   1.920  16.130 -0.1782  0.1785 -0.8260
   6823SM  H16T 8848   1.953   1.853  16.146  1.0394 -0.9714 -3.3139
   6823SM  C17S 8849   2.107   1.726  16.066  0.0981 -0.1379 -0.1049
   6823SM  H17S 8850   2.029   1.647  16.066  0.6953 -0.7311 -0.3649
   6823SM  H17T 8851   2.205   1.682  16.094 -0.6872 -1.1446  1.1946
   6823SM  C18S 8852   2.110   1.778  15.918 -0.0084 -0.0755 -0.1961
   6823SM  H18S 8853   2.008   1.788  15.875 -1.5183  0.1267  3.1604
   6823SM  H18T 8854   2.158   1.705  15.849  0.0198  0.8743 -1.2133
   6823SM  H18U 8855   2.160   1.877  15.914 -1.0196  0.5345  1.5036
   6823SM   C1F 8856   2.211   2.511  17.278  0.2352 -0.9087 -0.7278
   6823SM    OF 8857   2.267   2.404  17.290 -0.4596  0.2468 -0.5311
   6823SM   C2F 8858   2.277   2.633  17.218 -0.2182 -0.2938 -0.0506
   6823SM   H2F 8859   2.352   2.675  17.288  0.4722 -2.9328  0.9320
   6823SM   H2G 8860   2.196   2.704  17.193 -0.0472  0.5199  1.5352
   6823SM   C3F 8861   2.361   2.596  17.095  0.3318 -0.4753  0.3514
   6823SM   H3F 8862   2.440   2.523  17.124  1.5296 -0.8693 -3.3835
   6823SM   H3G 8863   2.414   2.688  17.063 -2.8129  1.2407 -0.3378
   6823SM   C4F 8864   2.276   2.542  16.974  0.6870  0.3460 -0.8092
   6823SM   H4F 8865   2.224   2.625  16.923  0.5523  0.3795 -0.6174
   6823SM   H4G 8866   2.213   2.469  17.029  1.0875  0.5690 -0.0419
   6823SM   C5F 8867   2.366   2.477  16.863  0.1138 -0.7878  0.2962
   6823SM   H5F 8868   2.440   2.423  16.925 -1.3001 -1.4448  1.4481
   6823SM   H5G 8869   2.409   2.561  16.803 -1.5550  0.8447  1.2938
   6823SM   C6F 8870   2.299   2.375  16.764 -0.0483  0.0104  0.1821
   6823SM   H6F 8871   2.211   2.418  16.712 -0.4774  0.7257  1.4471
   6823SM   H6G 8872   2.261   2.288  16.823  1.8157 -1.0564 -0.0996
   6823SM   C7F 8873   2.402   2.321  16.662 -0.1304  0.0123 -0.1586
   6823SM   H7F 8874   2.365   2.230  16.611  2.8662 -1.4169  0.0063
   6823SM   H7G 8875   2.489   2.291  16.725  2.2917  0.9929 -2.8223
   6823SM   C8F 8876   2.459   2.424  16.563  0.0695  0.3697 -0.2515
   6823SM   H8F 8877   2.495   2.512  16.620  0.7795 -0.6449  0.9408
   6823SM   H8G 8878   2.373   2.460  16.503 -1.3207 -3.5533 -0.9082
   6823SM   C9F 8879   2.558   2.373  16.454  0.2212  0.1939 -0.4194
   6823SM   H9F 8880   2.511   2.295  16.390  0.5339  0.0996 -0.5373
   6823SM   H9G 8881   2.647   2.340  16.512 -0.2511 -3.6655 -1.6193
   6823SM  C10F 8882   2.604   2.481  16.351 -0.1397  0.0079 -0.3597
   6823SM  H10F 8883   2.681   2.541  16.404 -0.2151  0.6876 -1.0078
   6823SM  H10G 8884   2.514   2.540  16.322  0.6093  1.5749  0.3301
   6823SM  C11F 8885   2.683   2.424  16.236 -0.5708 -0.2280 -0.4150
   6823SM  H11F 8886   2.621   2.367  16.165  1.2037 -0.7312 -1.6343
   6823SM  H11G 8887   2.759   2.351  16.273 -1.0278 -0.6903 -0.3784
   6823SM  C12F 8888   2.753   2.537  16.159 -0.1429  0.4139  1.1797
   6823SM  H12F 8889   2.818   2.587  16.234  0.6923  0.2023  0.6116
   6823SM  H12G 8890   2.684   2.614  16.118  0.2763 -0.1534 -0.6955
   6823SM  C13F 8891   2.837   2.496  16.034  0.1575 -0.0480 -0.4343
   6823SM  H13F 8892   2.766   2.473  15.952 -1.0654  0.5047  0.4342
   6823SM  H13G 8893   2.906   2.414  16.064 -1.7552 -0.4075  3.5538
   6823SM  C14F 8894   2.929   2.607  15.986  0.4448 -0.0579 -0.0569
   6823SM  H14F 8895   2.969   2.655  16.077  3.5391 -1.0505 -0.7566
   6823SM  H14G 8896   2.872   2.682  15.928  0.1239 -0.4086 -0.1987
   6823SM  C15F 8897   3.048   2.551  15.910  0.5738  1.2230  0.5735
   6823SM  H15F 8898   3.013   2.543  15.804 -0.1775  1.7336  0.7687
   6823SM  H15G 8899   3.075   2.451  15.949 -1.8433  0.0239 -0.6162
   6823SM  C16F 8900   3.164   2.642  15.894  0.1012  0.2477  0.3640
   6823SM  H16F 8901   3.125   2.746  15.890  1.4370  0.7580  0.2192
   6823SM  H16G 8902   3.223   2.611  15.805  1.9821  0.7630  1.3679
   6823SM  C17F 8903   3.255   2.625  16.011  0.0112  0.2485  0.0062
   6823SM  H17F 8904   3.341   2.558  15.987  0.5554  0.6617  0.7968
   6823SM  H17G 8905   3.197   2.575  16.091  0.6689  1.4323  1.2476
   6823SM  C18F 8906   3.324   2.752  16.061 -0.0804  0.5940  0.4111
   6823SM  H18F 8907   3.397   2.726  16.141 -0.9841  0.2410  1.1448
   6823SM  H18G 8908   3.246   2.819  16.103  1.7951  2.9091  0.4163
   6823SM  C19F 8909   3.387   2.841  15.948 -0.3767  0.5697  0.0060
   6823SM  H19F 8910   3.304   2.887  15.890 -1.9378 -0.4942  1.2860
   6823SM  H19G 8911   3.451   2.772  15.888 -0.3821 -1.6456  2.3870
   6823SM  C20F 8912   3.479   2.937  16.011  0.1464  0.4049 -0.2357
   6823SM  H20F 8913   3.562   2.891  16.069  0.4590 -0.0054 -1.0027
   6823SM  H20G 8914   3.417   3.005  16.074  0.7873  0.7893 -0.0048
   6823SM  C21F 8915   3.546   3.039  15.912  0.4512  0.0245  0.2502
   6823SM  H21F 8916   3.462   3.077  15.849 -0.5130 -0.6264  1.1129
   6823SM  H21G 8917   3.615   2.984  15.845  1.6141  1.7301 -0.0088
   6823SM  C22F 8918   3.615   3.158  15.973 -1.3009  0.0217 -0.5774
   6823SM  H22F 8919   3.544   3.231  16.017  0.0886  0.7806  0.5284
   6823SM  H22G 8920   3.655   3.224  15.893 -1.1524  1.3906  0.5941
   6823SM  C23F 8921   3.718   3.147  16.084 -0.1670 -0.1069  0.4396
   6823SM  H23F 8922   3.808   3.084  16.066 -0.1212 -0.2888  1.2556
   6823SM  H23G 8923   3.687   3.101  16.181  1.0121  0.1536  0.9623
   6823SM  H23H 8924   3.748   3.250  16.114  0.3777  0.6698 -2.4338
   6923SM     N 8925   5.162   2.229  17.439 -0.3065  0.0044  0.2830
   6923SM   C15 8926   5.199   2.260  17.294  0.2291  0.1864 -0.2919
   6923SM  H15A 8927   5.199   2.367  17.281  1.1268  0.3773  1.1498
   6923SM  H15B 8928   5.121   2.218  17.231  2.5612 -1.1490 -2.4619
   6923SM  H15C 8929   5.293   2.222  17.258  0.0614 -0.5656  0.0380
   6923SM   C14 8930   5.188   2.084  17.466  0.2647  0.4726 -0.1189
   6923SM  H14A 8931   5.170   2.072  17.572 -0.0134 -2.2805 -0.3977
   6923SM  H14B 8932   5.294   2.066  17.455  0.2196  0.5501 -0.7176
   6923SM  H14C 8933   5.129   2.016  17.406 -0.8918  1.3293  0.0194
   6923SM   C13 8934   5.242   2.317  17.522 -0.0432  0.1314 -0.0522
   6923SM  H13A 8935   5.235   2.296  17.627  0.5926  0.0457 -0.0266
   6923SM  H13B 8936   5.227   2.422  17.499 -0.0501 -0.0825 -1.0638
   6923SM  H13C 8937   5.344   2.287  17.505  0.4666  0.4344  2.2284
   6923SM   C12 8938   5.011   2.251  17.456  0.4374 -0.0001  0.1394
   6923SM  H12A 8939   4.995   2.358  17.454  0.8815  0.0991 -2.8493
   6923SM  H12B 8940   4.966   2.214  17.547 -0.6145 -1.0197 -0.7575
   6923SM   C11 8941   4.905   2.189  17.350 -0.6577  0.0517 -0.0995
   6923SM  H11A 8942   4.802   2.196  17.393 -0.4109 -1.7516  0.9065
   6923SM  H11B 8943   4.922   2.081  17.327 -1.1163  0.2392 -1.4007
   6923SM     P 8944   4.854   2.401  17.208 -0.0402  0.2987 -0.2827
   6923SM   O13 8945   4.706   2.395  17.235 -0.5007  0.0526 -0.0453
   6923SM   O14 8946   4.925   2.489  17.303  0.1613  0.2182 -0.0147
   6923SM   O11 8947   4.884   2.444  17.066 -0.6382 -0.8882  0.4735
   6923SM   O12 8948   4.915   2.252  17.224 -0.0949  0.6134  0.7403
   6923SM   C1S 8949   4.848   2.370  16.951  0.8826  0.5456 -0.3058
   6923SM   H1S 8950   4.740   2.371  16.925  1.2746 -1.3349 -2.3416
   6923SM   H1T 8951   4.886   2.266  16.960 -1.3609 -0.4299 -1.4459
   6923SM    NF 8952   4.858   2.362  16.701 -0.2451 -0.3589 -0.1923
   6923SM   HNF 8953   4.901   2.276  16.672 -1.3080 -1.2514  0.7558
   6923SM   C2S 8954   4.920   2.421  16.822 -0.2240 -0.0356 -0.7666
   6923SM   H2S 8955   4.910   2.532  16.810 -1.2209 -0.2488 -2.2558
   6923SM   C3S 8956   5.068   2.394  16.832 -0.2193 -0.1634 -0.1624
   6923SM   H3S 8957   5.075   2.285  16.851  0.1108 -0.4183 -1.6299
   6923SM    O3 8958   5.128   2.458  16.947 -0.8570 -0.1364  0.3155
   6923SM   HO3 8959   5.049   2.487  16.993 -0.5540  0.5935  0.3926
   6923SM   C4S 8960   5.141   2.429  16.706 -0.7054  0.0583  0.1784
   6923SM   H4S 8961   5.118   2.363  16.620  1.4525  2.6939 -2.6173
   6923SM   C5S 8962   5.225   2.531  16.675 -0.2958  0.2397 -0.3832
   6923SM   H5S 8963   5.260   2.590  16.760 -1.4116  1.7385 -0.9207
   6923SM   C6S 8964   5.302   2.539  16.548 -0.4398  0.0781  0.0251
   6923SM   H6S 8965   5.272   2.633  16.496  1.5174  0.4049 -0.5761
   6923SM   H6T 8966   5.279   2.450  16.485  2.2655  0.1583 -1.2047
   6923SM   C7S 8967   5.454   2.536  16.576  0.4651  0.0534  0.1277
   6923SM   H7S 8968   5.475   2.462  16.656  0.0898  1.2497  1.3869
   6923SM   H7T 8969   5.475   2.631  16.629 -0.4128 -0.3316  1.2130
   6923SM   C8S 8970   5.552   2.529  16.463 -1.1136  0.5210  0.7450
   6923SM   H8S 8971   5.646   2.583  16.486  0.3051 -1.4956 -0.0044
   6923SM   H8T 8972   5.499   2.575  16.377 -0.0473 -0.7436 -0.6486
   6923SM   C9S 8973   5.577   2.379  16.436  0.3722 -0.4496 -1.1965
   6923SM   H9S 8974   5.482   2.323  16.426  1.0167 -1.7730 -0.2637
   6923SM   H9T 8975   5.624   2.348  16.532 -1.7128  3.0002  1.1210
   6923SM  C10S 8976   5.655   2.341  16.311 -0.1172  0.3509 -1.1535
   6923SM  H10S 8977   5.737   2.414  16.297  0.3370  0.0299 -0.2767
   6923SM  H10T 8978   5.586   2.364  16.227 -0.9829  0.3606 -0.4563
   6923SM  C11S 8979   5.696   2.192  16.303 -0.1308  0.5570  1.3101
   6923SM  H11S 8980   5.614   2.123  16.333  0.2615 -0.8926 -0.7501
   6923SM  H11T 8981   5.782   2.182  16.372  2.0275 -0.3027 -1.3443
   6923SM  C12S 8982   5.737   2.154  16.161  0.5766 -0.6054  0.1916
   6923SM  H12S 8983   5.825   2.218  16.136 -1.0835  1.3476 -0.9015
   6923SM  H12T 8984   5.652   2.174  16.093  1.3333  0.4978 -0.4677
   6923SM  C13S 8985   5.766   2.006  16.158 -0.7219  0.0175  0.2919
   6923SM  H13S 8986   5.735   1.967  16.059 -2.1127 -1.0139  1.0845
   6923SM  H13T 8987   5.696   1.957  16.230 -0.6196  1.3538  1.3292
   6923SM  C14S 8988   5.918   1.982  16.191  0.5954 -0.3767  0.0910
   6923SM  H14S 8989   5.929   2.058  16.271 -0.8451  1.9347 -1.7912
   6923SM  H14T 8990   5.983   2.009  16.106 -0.2904  0.2474 -0.3995
   6923SM  C15S 8991   5.958   1.841  16.237  0.3599  0.5943  0.4952
   6923SM  H15S 8992   5.920   1.819  16.340 -1.2337  0.3399 -0.1190
   6923SM  H15T 8993   6.069   1.840  16.243  0.3236 -0.6874  1.4898
   6923SM  C16S 8994   5.926   1.728  16.135  0.8996  0.9499 -0.1812
   6923SM  H16S 8995   5.971   1.764  16.039 -1.5785  1.1459 -1.3384
   6923SM  H16T 8996   5.817   1.719  16.117  1.0741  1.4884 -1.6359
   6923SM  C17S 8997   5.974   1.587  16.186 -0.2367 -0.4092  0.5555
   6923SM  H17S 8998   5.937   1.577  16.290 -0.4095  0.8336  0.6276
   6923SM  H17T 8999   6.084   1.593  16.195 -0.1479  0.3634 -0.7529
   6923SM  C18S 9000   5.940   1.469  16.082  0.3925 -0.6444 -0.2817
   6923SM  H18S 9001   5.963   1.372  16.131 -0.0122 -0.8158 -0.4245
   6923SM  H18T 9002   5.997   1.478  15.987 -1.0316  1.9550 -0.9833
   6923SM  H18U 9003   5.830   1.472  16.066  0.3061 -2.3774 -0.2485
   6923SM   C1F 9004   4.735   2.379  16.662 -0.1295  0.3782 -0.1944
   6923SM    OF 9005   4.679   2.483  16.707 -0.6693  0.1921  0.6805
   6923SM   C2F 9006   4.662   2.277  16.588  0.3566  0.3583  0.4389
   6923SM   H2F 9007   4.566   2.256  16.641 -1.5103 -2.3725 -3.4900
   6923SM   H2G 9008   4.722   2.184  16.582 -2.8649 -2.0007  1.6715
   6923SM   C3F 9009   4.602   2.311  16.448  0.1805 -0.0643 -0.4891
   6923SM   H3F 9010   4.682   2.343  16.378 -0.6981  3.8085  0.0452
   6923SM   H3G 9011   4.530   2.394  16.463 -2.5914 -2.2783 -0.7484
   6923SM   C4F 9012   4.514   2.203  16.387  0.3435 -0.1540  0.1409
   6923SM   H4F 9013   4.432   2.180  16.457 -1.3388  1.2810 -1.2696
   6923SM   H4G 9014   4.576   2.114  16.362 -0.1414 -0.2683 -0.6740
   6923SM   C5F 9015   4.443   2.244  16.251  0.0361  0.4032 -0.4496
   6923SM   H5F 9016   4.527   2.264  16.182  1.7181  1.2528  1.7433
   6923SM   H5G 9017   4.378   2.334  16.258  0.1953  0.4687  0.2129
   6923SM   C6F 9018   4.356   2.125  16.201  0.0732 -0.4929 -0.4958
   6923SM   H6F 9019   4.272   2.091  16.265  0.1746 -0.9835 -0.6216
   6923SM   H6G 9020   4.428   2.042  16.191  1.4512  0.4862  0.8594
   6923SM   C7F 9021   4.302   2.166  16.068  0.0178 -0.0893  0.2279
   6923SM   H7F 9022   4.310   2.086  15.992  0.2799 -0.4014  0.5820
   6923SM   H7G 9023   4.370   2.244  16.029  0.5528 -0.4370  0.4668
   6923SM   C8F 9024   4.157   2.226  16.090 -0.4885  0.4265  0.2067
   6923SM   H8F 9025   4.167   2.312  16.160  0.6276 -0.0795  0.7027
   6923SM   H8G 9026   4.092   2.146  16.131  0.8456 -0.7592  0.0866
   6923SM   C9F 9027   4.101   2.296  15.964  0.3422 -0.0122  0.0634
   6923SM   H9F 9028   4.107   2.229  15.875  1.3777  2.1384 -1.5538
   6923SM   H9G 9029   4.170   2.376  15.930 -0.5520  0.3219 -1.0013
   6923SM  C10F 9030   3.964   2.351  15.976 -0.2192 -0.0261  0.0188
   6923SM  H10F 9031   3.943   2.382  15.872  1.4352  2.4392  0.3377
   6923SM  H10G 9032   3.970   2.434  16.049  0.5413 -0.6080  0.6417
   6923SM  C11F 9033   3.856   2.251  16.014  0.0757 -0.3302 -0.3057
   6923SM  H11F 9034   3.876   2.204  16.113  0.8342 -0.5567 -0.5588
   6923SM  H11G 9035   3.868   2.159  15.952 -2.5535 -1.3919  0.5921
   6923SM  C12F 9036   3.719   2.308  15.995  0.4253 -1.0200  0.4129
   6923SM  H12F 9037   3.705   2.343  15.890 -1.2164 -2.0765  0.2451
   6923SM  H12G 9038   3.716   2.401  16.056 -1.0038  0.7776 -2.1984
   6923SM  C13F 9039   3.600   2.230  16.034 -0.1000  0.1196 -0.2083
   6923SM  H13F 9040   3.518   2.302  16.058 -1.2492 -1.2465  0.0904
   6923SM  H13G 9041   3.625   2.173  16.126 -3.6592  0.2607  1.0202
   6923SM  C14F 9042   3.563   2.125  15.934  0.0805 -0.8682 -0.0484
   6923SM  H14F 9043   3.475   2.073  15.978 -1.3622  0.9548 -0.6549
   6923SM  H14G 9044   3.653   2.063  15.917  2.9253  2.9546 -0.2459
   6923SM  C15F 9045   3.520   2.182  15.793 -0.6405  0.4821 -0.1344
   6923SM  H15F 9046   3.606   2.231  15.741 -0.5031 -1.1721 -1.5312
   6923SM  H15G 9047   3.449   2.268  15.792  0.3463  1.3920  1.6102
   6923SM  C16F 9048   3.463   2.072  15.707 -0.2951 -0.6253 -0.0965
   6923SM  H16F 9049   3.522   1.978  15.713  0.1854 -0.3545 -0.5168
   6923SM  H16G 9050   3.461   2.108  15.602 -1.2780 -0.4692 -0.0347
   6923SM  C17F 9051   3.315   2.052  15.741 -0.6589  0.7124 -0.3062
   6923SM  H17F 9052   3.268   2.152  15.737 -2.6338 -0.1600 -0.0993
   6923SM  H17G 9053   3.316   2.016  15.846 -0.9087 -0.1154 -0.5728
   6923SM  C18F 9054   3.232   1.958  15.660  0.1842  0.7500 -0.0276
   6923SM  H18F 9055   3.227   1.981  15.551 -0.1757 -1.9472 -0.6476
   6923SM  H18G 9056   3.129   1.955  15.703  0.7459  0.7706  1.3713
   6923SM  C19F 9057   3.286   1.813  15.668 -0.2739  0.6751 -0.0427
   6923SM  H19F 9058   3.300   1.792  15.776 -1.1030 -1.0371 -0.2261
   6923SM  H19G 9059   3.388   1.791  15.629  0.2695  1.0573  1.1292
   6923SM  C20F 9060   3.191   1.712  15.605  0.1369  0.0228  0.5926
   6923SM  H20F 9061   3.169   1.743  15.500 -0.3203  0.3783  0.7864
   6923SM  H20G 9062   3.097   1.685  15.658  0.1626  0.0003  0.6271
   6923SM  C21F 9063   3.252   1.566  15.591  0.0601 -0.8416  0.0023
   6923SM  H21F 9064   3.278   1.515  15.686  1.3211  1.8844  1.2274
   6923SM  H21G 9065   3.351   1.582  15.544  1.0864  1.3235  2.6630
   6923SM  C22F 9066   3.162   1.462  15.518  0.5359  0.9905  0.3793
   6923SM  H22F 9067   3.129   1.514  15.426 -1.4689  1.1210  1.1133
   6923SM  H22G 9068   3.074   1.446  15.584  0.2140  0.3853 -0.1873
   6923SM  C23F 9069   3.230   1.330  15.481 -0.0944 -0.0519 -1.0133
   6923SM  H23F 9070   3.309   1.352  15.405 -0.0319 -0.8567 -1.1980
   6923SM  H23G 9071   3.162   1.263  15.424 -1.6566 -0.4895  1.2440
   6923SM  H23H 9072   3.264   1.274  15.571 -1.7593  2.0170  1.0293
   7023SM     N 9073   4.499   2.122  17.145 -0.2391 -0.1165 -0.0923
   7023SM   C15 9074   4.437   1.989  17.123  0.7348  0.3301  0.4654
   7023SM  H15A 9075   4.443   1.951  17.022 -0.4550 -0.1608  0.5524
   7023SM  H15B 9076   4.332   1.984  17.149  0.0369 -1.8112 -2.3087
   7023SM  H15C 9077   4.490   1.911  17.177 -0.0225  0.1588  0.9782
   7023SM   C14 9078   4.485   2.164  17.289  0.3859 -0.0076  0.4733
   7023SM  H14A 9079   4.533   2.088  17.350  2.2767  0.7132 -0.0379
   7023SM  H14B 9080   4.380   2.173  17.313 -0.5098  2.1325 -3.4864
   7023SM  H14C 9081   4.536   2.256  17.312  2.3834 -0.3542 -2.1661
   7023SM   C13 9082   4.642   2.110  17.104 -0.4098 -0.0279  0.0625
   7023SM  H13A 9083   4.668   2.095  17.000 -0.8478 -0.4526  0.0082
   7023SM  H13B 9084   4.677   2.023  17.156  0.6339  0.6401  0.5067
   7023SM  H13C 9085   4.691   2.197  17.145  0.0543 -0.0174 -0.4990
   7023SM   C12 9086   4.424   2.227  17.063  0.5380  0.1076 -0.1744
   7023SM  H12A 9087   4.408   2.195  16.961  0.3209 -0.9572  0.1837
   7023SM  H12B 9088   4.477   2.320  17.047  2.3800 -1.0651 -1.2251
   7023SM   C11 9089   4.274   2.260  17.102  0.4916 -0.4949 -0.0749
   7023SM  H11A 9090   4.231   2.325  17.023 -2.4522 -2.5806 -0.3480
   7023SM  H11B 9091   4.273   2.321  17.195 -4.4289 -0.2630 -0.0328
   7023SM     P 9092   4.108   2.114  17.246 -0.5781 -0.6496  0.0909
   7023SM   O13 9093   4.074   1.974  17.260 -0.0743 -0.2913 -1.0985
   7023SM   O14 9094   4.189   2.156  17.368 -0.4852  0.6309 -0.4615
   7023SM   O11 9095   3.970   2.197  17.237 -0.0844 -0.6351 -0.3968
   7023SM   O12 9096   4.190   2.148  17.121 -0.4011  0.1461 -0.4296
   7023SM   C1S 9097   3.901   2.240  17.121  0.6139  0.3670 -0.1682
   7023SM   H1S 9098   3.969   2.306  17.065  1.4995 -0.1254  0.3108
   7023SM   H1T 9099   3.808   2.295  17.147  0.1310  0.2423 -1.5422
   7023SM    NF 9100   3.824   2.174  16.888  0.0890  0.6895 -0.0188
   7023SM   HNF 9101   3.733   2.185  16.849  0.3991 -0.7916 -1.2686
   7023SM   C2S 9102   3.842   2.128  17.025 -0.3908 -0.3474  0.2215
   7023SM   H2S 9103   3.922   2.052  17.010  0.9808  1.0807 -0.0407
   7023SM   C3S 9104   3.723   2.050  17.089  0.4239 -0.8005 -0.0509
   7023SM   H3S 9105   3.629   2.109  17.079  0.4570 -0.8304 -0.5955
   7023SM    O3 9106   3.729   2.034  17.234  0.4660  0.3852  0.2066
   7023SM   HO3 9107   3.816   2.066  17.259 -0.3819  0.9943  2.6662
   7023SM   C4S 9108   3.699   1.925  17.009 -0.0398 -0.2089  0.5157
   7023SM   H4S 9109   3.638   1.944  16.920  0.8132 -0.5816 -0.1619
   7023SM   C5S 9110   3.751   1.801  17.022  0.0731 -0.6438 -0.3245
   7023SM   H5S 9111   3.821   1.796  17.107  0.0940 -0.7106 -0.3458
   7023SM   C6S 9112   3.718   1.684  16.936  0.3539  0.3089 -0.0765
   7023SM   H6S 9113   3.641   1.722  16.865 -2.0385 -0.4943  1.9178
   7023SM   H6T 9114   3.672   1.597  16.987 -0.3188 -0.1000 -1.3398
   7023SM   C7S 9115   3.833   1.621  16.856 -0.4712 -0.5542  0.0706
   7023SM   H7S 9116   3.782   1.543  16.796 -0.6192  0.1869 -0.7845
   7023SM   H7T 9117   3.912   1.580  16.922 -0.4007 -0.6358 -0.0647
   7023SM   C8S 9118   3.915   1.724  16.761  0.6530  0.0321  0.5721
   7023SM   H8S 9119   3.985   1.790  16.818  0.6240  1.4033 -0.9129
   7023SM   H8T 9120   3.836   1.792  16.722 -0.0441 -0.5629  0.9231
   7023SM   C9S 9121   3.995   1.656  16.652 -0.9192  0.3094 -0.2414
   7023SM   H9S 9122   3.930   1.580  16.603  0.0095 -1.4910  1.1988
   7023SM   H9T 9123   4.080   1.597  16.691 -2.7060 -0.3606  3.0289
   7023SM  C10S 9124   4.039   1.755  16.551 -0.0695 -1.1839  0.1785
   7023SM  H10S 9125   4.102   1.833  16.599 -2.5320  0.5555  0.7924
   7023SM  H10T 9126   3.953   1.815  16.513  1.5804  0.6212 -0.8985
   7023SM  C11S 9127   4.114   1.689  16.437  0.5941 -0.5231  0.1741
   7023SM  H11S 9128   4.050   1.627  16.370 -1.3500  1.7645 -0.2033
   7023SM  H11T 9129   4.198   1.621  16.465  1.2511 -0.1553 -0.8414
   7023SM  C12S 9130   4.164   1.803  16.343  0.3460  0.1275 -1.1771
   7023SM  H12S 9131   4.218   1.881  16.402  1.0778 -0.1206 -1.5033
   7023SM  H12T 9132   4.074   1.852  16.302  0.3286  1.5461  0.4456
   7023SM  C13S 9133   4.237   1.750  16.214  0.4873 -0.4740 -0.2272
   7023SM  H13S 9134   4.282   1.655  16.252  2.3753  0.7124  0.6857
   7023SM  H13T 9135   4.310   1.813  16.158 -0.4119 -1.2126 -2.3009
   7023SM  C14S 9136   4.137   1.704  16.114  0.3019  0.2230  0.1698
   7023SM  H14S 9137   4.054   1.653  16.167  0.5117  0.2608  0.5409
   7023SM  H14T 9138   4.186   1.627  16.051  0.6866  1.8273 -1.5845
   7023SM  C15S 9139   4.093   1.814  16.023  0.0488 -0.4854  0.1911
   7023SM  H15S 9140   4.185   1.822  15.961  0.2721 -1.0643  0.4461
   7023SM  H15T 9141   4.065   1.904  16.082  0.7943  0.2736 -0.5645
   7023SM  C16S 9142   3.969   1.766  15.948  0.4445  0.2834  0.3696
   7023SM  H16S 9143   3.893   1.738  16.024 -2.3253 -3.4087 -3.2896
   7023SM  H16T 9144   3.973   1.670  15.892 -1.0370  0.8923 -0.8558
   7023SM  C17S 9145   3.911   1.861  15.844 -0.2961  0.0219  0.6101
   7023SM  H17S 9146   3.992   1.893  15.774 -0.3075  1.0497  1.0470
   7023SM  H17T 9147   3.875   1.953  15.895 -3.0910 -0.7272  0.1441
   7023SM  C18S 9148   3.786   1.811  15.772  0.9575  1.0214 -0.3177
   7023SM  H18S 9149   3.821   1.737  15.697  1.5638  1.3470 -0.3602
   7023SM  H18T 9150   3.738   1.892  15.713 -1.0667 -1.0277 -1.6577
   7023SM  H18U 9151   3.704   1.777  15.839 -0.4166  0.5061 -2.1771
   7023SM   C1F 9152   3.921   2.206  16.804  0.0115  0.5241 -0.0081
   7023SM    OF 9153   4.045   2.195  16.832  0.4535  0.2750 -0.7641
   7023SM   C2F 9154   3.872   2.251  16.666 -0.2061  0.7138  0.1041
   7023SM   H2F 9155   3.911   2.353  16.646 -1.2438  0.7515 -1.9044
   7023SM   H2G 9156   3.762   2.260  16.663 -0.1915  0.9730  0.3335
   7023SM   C3F 9157   3.930   2.152  16.557 -0.2535  0.2121  0.8579
   7023SM   H3F 9158   3.878   2.053  16.562  2.5862 -1.5410 -1.2270
   7023SM   H3G 9159   4.031   2.122  16.591 -1.1771 -2.1498  1.7899
   7023SM   C4F 9160   3.936   2.206  16.412  0.3679 -0.3500  0.2457
   7023SM   H4F 9161   3.837   2.213  16.364 -0.1048  0.2017  1.2684
   7023SM   H4G 9162   3.998   2.140  16.347 -2.3921 -0.6926 -2.2047
   7023SM   C5F 9163   3.986   2.351  16.402 -0.1770 -1.1145  0.8747
   7023SM   H5F 9164   3.918   2.427  16.445  0.6171 -0.4733  0.9967
   7023SM   H5G 9165   3.982   2.375  16.294 -2.2105  1.2184  1.3756
   7023SM   C6F 9166   4.133   2.363  16.453  0.1054  0.3529  0.0798
   7023SM   H6F 9167   4.189   2.294  16.386  0.5140  2.0712 -1.4219
   7023SM   H6G 9168   4.144   2.335  16.560  1.2491 -0.1436 -0.1556
   7023SM   C7F 9169   4.188   2.509  16.449  0.0667 -0.1246 -0.5326
   7023SM   H7F 9170   4.291   2.505  16.490 -0.1541  0.8471  0.1644
   7023SM   H7G 9171   4.133   2.577  16.518 -1.8382  0.7363 -2.7828
   7023SM   C8F 9172   4.175   2.568  16.308 -0.0530  0.0915  0.2104
   7023SM   H8F 9173   4.070   2.576  16.272  0.3344 -0.4386 -1.0712
   7023SM   H8G 9174   4.212   2.488  16.241  1.2190  0.2567  0.6978
   7023SM   C9F 9175   4.266   2.694  16.299 -0.5398 -0.2152 -0.5527
   7023SM   H9F 9176   4.366   2.664  16.336  0.6368  1.1848 -2.4130
   7023SM   H9G 9177   4.236   2.777  16.366 -1.1956 -1.5979  0.9543
   7023SM  C10F 9178   4.280   2.751  16.156 -0.3355  0.1697 -0.3331
   7023SM  H10F 9179   4.341   2.844  16.161 -1.3845  0.8700 -0.2485
   7023SM  H10G 9180   4.176   2.770  16.122 -0.1536  0.5327 -0.6941
   7023SM  C11F 9181   4.345   2.655  16.050  0.4455  0.3521 -0.5781
   7023SM  H11F 9182   4.289   2.559  16.058 -0.4773  0.8159 -1.2416
   7023SM  H11G 9183   4.452   2.634  16.072  0.2825 -0.5316 -0.5805
   7023SM  C12F 9184   4.330   2.716  15.906 -0.0896  0.9055  0.5200
   7023SM  H12F 9185   4.373   2.819  15.910  4.2086 -0.4575 -2.4975
   7023SM  H12G 9186   4.222   2.714  15.881  0.0024  1.3365  0.0676
   7023SM  C13F 9187   4.427   2.650  15.803 -0.4059 -0.7874  0.5372
   7023SM  H13F 9188   4.531   2.684  15.824 -0.2361 -1.7423  1.3146
   7023SM  H13G 9189   4.401   2.701  15.708  0.1985  0.7808  1.1658
   7023SM  C14F 9190   4.422   2.499  15.794 -0.1337  0.1782 -0.1760
   7023SM  H14F 9191   4.315   2.474  15.778 -0.3506  0.6587  0.4349
   7023SM  H14G 9192   4.445   2.446  15.889 -0.0835 -1.7986 -1.2356
   7023SM  C15F 9193   4.510   2.438  15.684  0.1305  0.3174  0.0127
   7023SM  H15F 9194   4.613   2.405  15.708  0.9824  0.8819 -2.5416
   7023SM  H15G 9195   4.531   2.513  15.605  1.3936  0.4982  0.5106
   7023SM  C16F 9196   4.452   2.309  15.614 -0.4240 -0.0738  0.4814
   7023SM  H16F 9197   4.404   2.241  15.687  0.3150 -2.0667 -0.8004
   7023SM  H16G 9198   4.530   2.253  15.557  0.5227  1.4251  0.2343
   7023SM  C17F 9199   4.344   2.342  15.513  0.1147 -0.3908  0.0127
   7023SM  H17F 9200   4.389   2.389  15.423  0.2966 -1.4353 -0.4506
   7023SM  H17G 9201   4.275   2.409  15.570 -0.6572 -0.6138 -0.6307
   7023SM  C18F 9202   4.250   2.225  15.480  0.0689 -0.0171 -0.2506
   7023SM  H18F 9203   4.207   2.194  15.577  1.4719  1.3630  0.8585
   7023SM  H18G 9204   4.301   2.137  15.435 -1.2291 -1.6496  1.3362
   7023SM  C19F 9205   4.138   2.269  15.386 -0.3550 -0.0790 -0.4898
   7023SM  H19F 9206   4.184   2.307  15.293 -0.9689 -3.3766 -2.2977
   7023SM  H19G 9207   4.088   2.350  15.444  0.5188 -0.4658  0.8559
   7023SM  C20F 9208   4.024   2.169  15.354  0.1901 -0.1363 -0.1471
   7023SM  H20F 9209   4.056   2.079  15.296  0.9586  0.3463 -0.4913
   7023SM  H20G 9210   3.958   2.213  15.276  1.6396  3.4087  0.4333
   7023SM  C21F 9211   3.938   2.135  15.477  0.0079 -0.7909 -0.7852
   7023SM  H21F 9212   3.949   2.207  15.560  0.5083 -2.1063  0.3247
   7023SM  H21G 9213   3.966   2.038  15.523 -0.3066  0.4293  2.1813
   7023SM  C22F 9214   3.789   2.139  15.439  0.9459 -0.0346 -0.1918
   7023SM  H22F 9215   3.777   2.241  15.395 -2.1247 -0.5104 -0.6830
   7023SM  H22G 9216   3.732   2.134  15.534  1.5945 -1.1042  0.1611
   7023SM  C23F 9217   3.735   2.044  15.334 -0.5223  0.0143 -0.4141
   7023SM  H23F 9218   3.632   2.081  15.317  0.3407  1.6290 -2.4934
   7023SM  H23G 9219   3.728   1.946  15.386  0.7548  1.1393  2.0541
   7023SM  H23H 9220   3.791   2.047  15.238 -1.2445 -1.4350 -0.9012
   7123SM     N 9221   3.654   1.097  17.827  0.6837  0.5326  0.8962
   7123SM   C15 9222   3.512   1.066  17.863 -0.1592  0.0001 -0.0974
   7123SM  H15A 9223   3.492   1.086  17.967 -0.0725  0.3627 -0.1495
   7123SM  H15B 9224   3.482   0.964  17.844 -1.4449 -0.2332  2.6681
   7123SM  H15C 9225   3.447   1.125  17.800 -0.3401  1.8207  1.6675
   7123SM   C14 9226   3.687   1.241  17.855  0.7916 -0.5074  0.1820
   7123SM  H14A 9227   3.604   1.303  17.824  0.7411 -0.5810  0.1691
   7123SM  H14B 9228   3.774   1.269  17.798  0.4882  0.6466  0.2715
   7123SM  H14C 9229   3.697   1.252  17.962  0.7206  1.3342  0.0191
   7123SM   C13 9230   3.759   1.011  17.884 -0.2860  0.9131  0.6213
   7123SM  H13A 9231   3.859   1.042  17.858 -0.4396  2.3514  1.6673
   7123SM  H13B 9232   3.749   0.905  17.866  3.0829  0.7396 -1.0644
   7123SM  H13C 9233   3.752   1.017  17.991  2.2294 -2.4538  1.1362
   7123SM   C12 9234   3.670   1.079  17.674  0.8048  0.6232 -0.4211
   7123SM  H12A 9235   3.643   0.977  17.654  0.8703  0.5014  0.0866
   7123SM  H12B 9236   3.775   1.070  17.651  1.0331  0.4453  0.6209
   7123SM   C11 9237   3.586   1.158  17.571  0.2406  0.0433 -0.3119
   7123SM  H11A 9238   3.615   1.133  17.467 -1.7958  2.0848 -1.4635
   7123SM  H11B 9239   3.598   1.268  17.583  0.9131  0.1256 -1.5591
   7123SM     P 9240   3.384   0.995  17.532 -0.0806 -0.1030 -0.3802
   7123SM   O13 9241   3.481   0.883  17.564  0.3794 -0.1589 -0.4471
   7123SM   O14 9242   3.247   0.978  17.577 -0.0165  0.4075 -0.2768
   7123SM   O11 9243   3.377   1.013  17.379 -0.2091  0.4085  0.2998
   7123SM   O12 9244   3.441   1.136  17.587  0.0368 -0.3198  0.3800
   7123SM   C1S 9245   3.463   0.955  17.288 -0.2952 -0.1741 -0.0831
   7123SM   H1S 9246   3.437   0.847  17.278 -2.4291  0.5404 -3.9765
   7123SM   H1T 9247   3.571   0.960  17.317 -0.4835 -0.6596  0.7648
   7123SM    NF 9248   3.516   0.944  17.055 -0.0711 -0.3104 -0.3312
   7123SM   HNF 9249   3.603   0.972  17.015 -0.9406  2.4914 -0.4293
   7123SM   C2S 9250   3.454   1.030  17.154  1.2961 -0.0817  0.0808
   7123SM   H2S 9251   3.348   1.029  17.120  1.6931 -1.0394 -1.2411
   7123SM   C3S 9252   3.498   1.177  17.169  0.2739  0.2872  0.2572
   7123SM   H3S 9253   3.607   1.179  17.192 -0.0714  1.0853  1.9491
   7123SM    O3 9254   3.454   1.252  17.286 -0.3017 -0.4402  0.0789
   7123SM   HO3 9255   3.389   1.206  17.339 -0.4746  0.1289  0.3764
   7123SM   C4S 9256   3.490   1.266  17.051  0.2365 -0.4098  0.1778
   7123SM   H4S 9257   3.572   1.254  16.980 -0.2152  2.2329 -0.9277
   7123SM   C5S 9258   3.393   1.347  17.006  0.0329 -0.2529  0.8224
   7123SM   H5S 9259   3.304   1.359  17.070 -0.8438 -2.0530  0.0122
   7123SM   C6S 9260   3.400   1.437  16.879  0.2896  0.0661  0.1677
   7123SM   H6S 9261   3.422   1.540  16.912  1.7806 -0.5356  1.1736
   7123SM   H6T 9262   3.293   1.430  16.851  0.0674  1.0014  0.7319
   7123SM   C7S 9263   3.481   1.388  16.754  0.6416  0.4420  0.6407
   7123SM   H7S 9264   3.467   1.280  16.732 -0.1824  0.8488 -1.0068
   7123SM   H7T 9265   3.589   1.394  16.779  0.7583  0.2250  0.2066
   7123SM   C8S 9266   3.463   1.470  16.622  0.6800 -0.6065 -0.7346
   7123SM   H8S 9267   3.516   1.567  16.633  1.1551 -0.9751  0.4130
   7123SM   H8T 9268   3.354   1.491  16.621  0.8957  0.6344  0.0189
   7123SM   C9S 9269   3.510   1.410  16.492  0.5656  0.2806 -0.5491
   7123SM   H9S 9270   3.495   1.495  16.423 -0.4904  0.6110  0.0610
   7123SM   H9T 9271   3.453   1.325  16.450 -0.5104 -0.8195  2.8317
   7123SM  C10S 9272   3.665   1.374  16.499 -0.1684 -0.1655  0.0922
   7123SM  H10S 9273   3.679   1.286  16.566  0.1394  0.2574  0.5991
   7123SM  H10T 9274   3.729   1.457  16.535  0.5042 -0.2011 -0.9828
   7123SM  C11S 9275   3.721   1.344  16.353 -0.2950 -0.0389 -0.6005
   7123SM  H11S 9276   3.689   1.425  16.283 -0.2298 -0.1428 -0.7524
   7123SM  H11T 9277   3.680   1.248  16.317  2.4312 -1.0533 -1.2794
   7123SM  C12S 9278   3.881   1.330  16.337  0.2711  0.5773 -0.7475
   7123SM  H12S 9279   3.915   1.240  16.393 -0.6503  0.8747  0.3483
   7123SM  H12T 9280   3.926   1.425  16.373 -0.5270  0.5365  0.4565
   7123SM  C13S 9281   3.914   1.278  16.194  0.4755 -0.3456 -0.1178
   7123SM  H13S 9282   3.845   1.194  16.171  2.0361 -1.1876 -1.9124
   7123SM  H13T 9283   4.018   1.241  16.187  0.1743 -1.2449  0.0740
   7123SM  C14S 9284   3.903   1.388  16.084 -0.0104  0.3876 -0.1994
   7123SM  H14S 9285   3.979   1.464  16.110 -0.1142 -0.0911  1.6848
   7123SM  H14T 9286   3.804   1.438  16.081  0.2410  1.0752  1.8123
   7123SM  C15S 9287   3.925   1.325  15.939 -0.6801 -0.0135  0.7583
   7123SM  H15S 9288   3.920   1.412  15.870  1.0488  0.5804  1.3113
   7123SM  H15T 9289   3.838   1.260  15.917  0.5721 -1.2356 -0.7858
   7123SM  C16S 9290   4.059   1.251  15.918  0.2768 -0.3335  0.2287
   7123SM  H16S 9291   4.046   1.147  15.956  0.6228 -0.8145 -0.9392
   7123SM  H16T 9292   4.134   1.305  15.980  0.3145  0.3335 -0.3902
   7123SM  C17S 9293   4.115   1.234  15.769 -0.0875  0.2727  0.1121
   7123SM  H17S 9294   4.059   1.152  15.719 -0.7287 -0.2042  1.5429
   7123SM  H17T 9295   4.220   1.200  15.777  0.0904  0.9147  0.6724
   7123SM  C18S 9296   4.114   1.354  15.678  0.1114 -0.6204 -0.0226
   7123SM  H18S 9297   4.015   1.400  15.657  0.4527  0.1519  0.0188
   7123SM  H18T 9298   4.159   1.339  15.577  0.9551  0.3309  0.1962
   7123SM  H18U 9299   4.178   1.430  15.728  1.2593 -2.3041  1.1751
   7123SM   C1F 9300   3.470   0.823  17.026  0.0951  0.0216  0.1723
   7123SM    OF 9301   3.366   0.771  17.072 -0.1653  0.4646  0.5107
   7123SM   C2F 9302   3.542   0.755  16.907  0.4827 -0.0402  0.5488
   7123SM   H2F 9303   3.646   0.793  16.905  0.5289 -0.1951 -1.2495
   7123SM   H2G 9304   3.479   0.784  16.820  0.6959  0.5850  0.5986
   7123SM   C3F 9305   3.552   0.602  16.926  0.2724 -0.2529  0.2761
   7123SM   H3F 9306   3.450   0.557  16.930  0.8359 -1.5202  0.9107
   7123SM   H3G 9307   3.596   0.582  17.026  1.1321 -0.5620 -0.1615
   7123SM   C4F 9308   3.633   0.527  16.820 -0.0626  0.1803 -1.1512
   7123SM   H4F 9309   3.676   0.436  16.868  3.1122  2.1769  0.1433
   7123SM   H4G 9310   3.721   0.589  16.794  0.7597 -0.4610 -0.0215
   7123SM   C5F 9311   3.562   0.482  16.696 -0.0801 -0.0002  0.3096
   7123SM   H5F 9312   3.504   0.573  16.669  2.4035  2.0449  1.5457
   7123SM   H5G 9313   3.496   0.399  16.731  2.7587 -1.6048  2.3126
   7123SM   C6F 9314   3.660   0.451  16.581 -0.5964 -0.3475 -0.1283
   7123SM   H6F 9315   3.708   0.354  16.606  0.4598  0.2793  0.3493
   7123SM   H6G 9316   3.745   0.522  16.584 -0.3073 -0.7039  0.8816
   7123SM   C7F 9317   3.599   0.414  16.443  0.2293  0.0445  0.2887
   7123SM   H7F 9318   3.684   0.400  16.372  1.1426  0.0014  1.3650
   7123SM   H7G 9319   3.558   0.511  16.408 -1.3617 -0.3632  0.9434
   7123SM   C8F 9320   3.503   0.292  16.440 -0.1425  0.5316 -0.6605
   7123SM   H8F 9321   3.420   0.306  16.513 -0.6326 -0.4190 -1.0176
   7123SM   H8G 9322   3.549   0.194  16.462  1.1154  1.1933 -0.2880
   7123SM   C9F 9323   3.430   0.277  16.307  0.4740 -0.7513 -0.1236
   7123SM   H9F 9324   3.378   0.370  16.275 -2.3195 -2.0026  0.4072
   7123SM   H9G 9325   3.344   0.209  16.326 -0.2578 -0.5609 -2.4708
   7123SM  C10F 9326   3.501   0.207  16.187 -0.0161  0.1848  0.8302
   7123SM  H10F 9327   3.561   0.122  16.226 -0.1246 -0.2445  0.0992
   7123SM  H10G 9328   3.574   0.283  16.153 -1.2710  2.0720  2.1655
   7123SM  C11F 9329   3.399   0.175  16.079 -0.3026 -0.1072 -0.0773
   7123SM  H11F 9330   3.327   0.258  16.061  0.3055  0.7010  1.0534
   7123SM  H11G 9331   3.331   0.098  16.122 -0.9605  0.8329  0.6252
   7123SM  C12F 9332   3.464   0.147  15.943 -0.1587  0.3358  0.0771
   7123SM  H12F 9333   3.385   0.114  15.872 -0.4660  0.0432  0.5443
   7123SM  H12G 9334   3.533   0.061  15.955 -2.1918 -1.3016  0.7169
   7123SM  C13F 9335   3.539   0.259  15.884  0.5801  0.9570  0.3732
   7123SM  H13F 9336   3.615   0.293  15.959  1.5593 -0.3086 -0.0024
   7123SM  H13G 9337   3.473   0.342  15.851 -2.0097 -0.3685  1.9360
   7123SM  C14F 9338   3.607   0.211  15.753  0.2925 -0.7735 -0.2793
   7123SM  H14F 9339   3.537   0.172  15.676  1.4677 -1.7243 -0.8867
   7123SM  H14G 9340   3.675   0.133  15.793  0.3193 -1.7513 -2.1285
   7123SM  C15F 9341   3.691   0.329  15.687 -0.1291  0.7233  0.4373
   7123SM  H15F 9342   3.759   0.375  15.762  1.6271 -0.3303 -0.4241
   7123SM  H15G 9343   3.608   0.400  15.669 -0.6596  0.4618  1.7203
   7123SM  C16F 9344   3.746   0.298  15.545  1.1299 -0.1519  0.7503
   7123SM  H16F 9345   3.667   0.231  15.506  0.3160 -0.1536  2.2949
   7123SM  H16G 9346   3.840   0.239  15.548 -0.5570 -3.1565 -1.2041
   7123SM  C17F 9347   3.758   0.420  15.459 -0.1062  0.1940  0.0905
   7123SM  H17F 9348   3.664   0.460  15.415  0.4593  2.2154  0.5834
   7123SM  H17G 9349   3.823   0.386  15.376 -0.7566  1.6447 -1.0596
   7123SM  C18F 9350   3.825   0.539  15.527  0.4321 -0.4547 -0.3999
   7123SM  H18F 9351   3.869   0.593  15.441  0.8417 -2.0778 -1.2431
   7123SM  H18G 9352   3.906   0.507  15.596 -1.6111 -3.3905  0.8436
   7123SM  C19F 9353   3.725   0.637  15.590 -0.1824 -0.2361 -0.2726
   7123SM  H19F 9354   3.709   0.602  15.694  0.0458  1.1606  0.2561
   7123SM  H19G 9355   3.626   0.635  15.540 -0.9061 -0.2656  1.1218
   7123SM  C20F 9356   3.782   0.782  15.600 -0.0269  0.1468  0.1650
   7123SM  H20F 9357   3.789   0.820  15.496  0.2162  0.5316  0.3202
   7123SM  H20G 9358   3.878   0.786  15.657 -0.9809 -0.1758  1.8422
   7123SM  C21F 9359   3.692   0.870  15.685 -0.1696 -0.2111 -0.1382
   7123SM  H21F 9360   3.690   0.823  15.785  1.2118 -0.0923 -0.0256
   7123SM  H21G 9361   3.595   0.863  15.632  0.2470  1.2801 -1.1696
   7123SM  C22F 9362   3.731   1.021  15.678  0.1584 -0.1236 -0.4617
   7123SM  H22F 9363   3.736   1.040  15.569 -1.2592 -2.0672 -0.9256
   7123SM  H22G 9364   3.827   1.033  15.732 -0.0259 -2.5003  0.5332
   7123SM  C23F 9365   3.622   1.116  15.732  0.4969 -0.7704  0.1903
   7123SM  H23F 9366   3.605   1.098  15.841  2.5585  1.5351  0.9926
   7123SM  H23G 9367   3.532   1.102  15.670  2.0214 -1.9324 -1.8748
   7123SM  H23H 9368   3.658   1.219  15.713 -0.4688 -0.2792  0.9355
   7223SM     N 9369   7.254   3.798  17.645  0.1128 -0.3990  0.2747
   7223SM   C15 9370   7.185   3.904  17.725  0.6350 -0.3971 -0.4853
   7223SM  H15A 9371   7.244   3.993  17.739 -0.9344  0.3417  2.1835
   7223SM  H15B 9372   7.153   3.870  17.822 -0.8579  0.1511 -0.7497
   7223SM  H15C 9373   7.100   3.940  17.668  0.5594 -0.6523 -0.5388
   7223SM   C14 9374   7.387   3.768  17.705  0.2733 -0.6510  0.5706
   7223SM  H14A 9375   7.451   3.704  17.647  0.1566 -1.7181  1.5697
   7223SM  H14B 9376   7.370   3.725  17.803 -0.3140  0.8600  1.1659
   7223SM  H14C 9377   7.444   3.858  17.721  0.2684 -0.1384 -1.9137
   7223SM   C13 9378   7.180   3.669  17.660 -0.2799  0.6669  0.4136
   7223SM  H13A 9379   7.233   3.590  17.610 -2.4925  0.6830 -2.2155
   7223SM  H13B 9380   7.096   3.686  17.594  1.5350  1.5060 -1.8180
   7223SM  H13C 9381   7.155   3.636  17.760  0.8837 -0.7948  0.2461
   7223SM   C12 9382   7.277   3.844  17.500 -0.0665 -0.4056  0.2451
   7223SM  H12A 9383   7.358   3.786  17.457  1.1766 -0.0391  1.9957
   7223SM  H12B 9384   7.311   3.946  17.505  1.8945 -1.0018 -0.0404
   7223SM   C11 9385   7.156   3.839  17.399 -0.3153 -0.2359  0.4941
   7223SM  H11A 9386   7.118   3.737  17.379 -0.8640  0.2002 -0.8420
   7223SM  H11B 9387   7.193   3.877  17.301 -0.0959 -0.6831  0.4052
   7223SM     P 9388   6.903   3.888  17.406 -0.3075 -0.2670  0.0379
   7223SM   O13 9389   6.876   3.754  17.465  0.0846  0.1622 -0.0353
   7223SM   O14 9390   6.819   3.999  17.463 -0.0645  0.1231  0.7287
   7223SM   O11 9391   6.885   3.883  17.252  0.7209  0.2419 -0.3629
   7223SM   O12 9392   7.052   3.926  17.435  0.0766  0.8574  0.3942
   7223SM   C1S 9393   6.947   3.981  17.162  0.6953  0.2861 -0.4611
   7223SM   H1S 9394   7.053   3.954  17.144 -0.2644 -2.7275 -2.3517
   7223SM   H1T 9395   6.933   4.086  17.196 -0.2896 -0.1237  0.4798
   7223SM    NF 9396   6.962   4.059  16.928 -0.5033  0.3004 -0.0781
   7223SM   HNF 9397   6.939   4.156  16.920  0.2472  0.3934 -1.3832
   7223SM   C2S 9398   6.881   3.977  17.025 -0.5641  0.2154 -0.0255
   7223SM   H2S 9399   6.891   3.875  16.980  0.7345  1.1618 -2.0374
   7223SM   C3S 9400   6.730   4.014  17.029 -0.7212 -0.0897 -0.4265
   7223SM   H3S 9401   6.724   4.124  17.038 -2.4719 -0.1580 -0.3965
   7223SM    O3 9402   6.652   3.954  17.127  0.2780  0.8997 -0.9395
   7223SM   HO3 9403   6.711   3.900  17.180 -0.3383 -0.0539 -1.1888
   7223SM   C4S 9404   6.672   3.990  16.896 -0.5220 -0.0398  0.1795
   7223SM   H4S 9405   6.683   3.886  16.863 -1.0575 -0.9462  2.6196
   7223SM   C5S 9406   6.604   4.079  16.823  0.0258  0.5621  0.2470
   7223SM   H5S 9407   6.593   4.181  16.862  0.8720  1.9480 -2.8241
   7223SM   C6S 9408   6.547   4.049  16.683 -0.4722 -0.2208 -0.0414
   7223SM   H6S 9409   6.455   4.109  16.672 -1.5918 -2.1206 -1.7181
   7223SM   H6T 9410   6.513   3.944  16.667  0.0041 -0.5831  1.1779
   7223SM   C7S 9411   6.636   4.086  16.560  0.4258  0.2305  0.5257
   7223SM   H7S 9412   6.742   4.053  16.562 -0.2715 -2.2193 -0.2755
   7223SM   H7T 9413   6.632   4.197  16.553 -0.9733  0.1671  0.0044
   7223SM   C8S 9414   6.573   4.039  16.428 -0.7126 -0.2077  0.0208
   7223SM   H8S 9415   6.468   4.072  16.414 -1.2133 -2.3086 -1.5904
   7223SM   H8T 9416   6.580   3.928  16.423 -2.6303 -0.3183 -1.0966
   7223SM   C9S 9417   6.655   4.101  16.317  0.1559 -0.1374  0.4420
   7223SM   H9S 9418   6.761   4.075  16.335  0.1331  0.8252  2.2096
   7223SM   H9T 9419   6.632   4.210  16.314  1.4579  0.1441 -2.3910
   7223SM  C10S 9420   6.623   4.050  16.177  0.8645  0.3552  0.3418
   7223SM  H10S 9421   6.635   3.939  16.180 -0.7456  0.1575  1.8544
   7223SM  H10T 9422   6.687   4.094  16.099  0.6274 -1.7051 -1.1079
   7223SM  C11S 9423   6.477   4.083  16.135 -0.7329 -0.1349 -0.0371
   7223SM  H11S 9424   6.476   4.194  16.123  1.6049  0.5171  3.8023
   7223SM  H11T 9425   6.404   4.051  16.212 -2.2235 -1.9908 -2.1105
   7223SM  C12S 9426   6.424   4.017  16.016  0.6142  0.0098  0.1075
   7223SM  H12S 9427   6.316   4.039  16.002 -0.0311 -0.6847  3.1798
   7223SM  H12T 9428   6.431   3.907  16.031 -0.4718 -0.2979 -1.4856
   7223SM  C13S 9429   6.497   4.051  15.885 -0.1417 -0.5786  0.1482
   7223SM  H13S 9430   6.597   4.004  15.877 -0.8048 -1.9167 -0.4989
   7223SM  H13T 9431   6.519   4.160  15.883  0.7701 -0.6765  2.0925
   7223SM  C14S 9432   6.411   4.015  15.767  0.1372  0.8082 -0.4149
   7223SM  H14S 9433   6.302   4.017  15.786 -0.1663 -0.4391 -1.8431
   7223SM  H14T 9434   6.429   3.912  15.730  1.8773  1.2455 -0.8938
   7223SM  C15S 9435   6.433   4.123  15.655  0.0043 -0.0351  0.1991
   7223SM  H15S 9436   6.503   4.082  15.578 -1.5440 -0.9638 -0.7603
   7223SM  H15T 9437   6.472   4.217  15.698 -0.8541  0.1055  0.6859
   7223SM  C16S 9438   6.309   4.167  15.578 -0.3462  0.0590 -0.1411
   7223SM  H16S 9439   6.237   4.198  15.656 -1.9652 -0.4345 -1.3773
   7223SM  H16T 9440   6.263   4.077  15.530 -1.5765 -0.0424  1.1734
   7223SM  C17S 9441   6.329   4.280  15.474  0.1779 -0.0332  0.0462
   7223SM  H17S 9442   6.413   4.247  15.409 -0.8665  0.3099 -1.5277
   7223SM  H17T 9443   6.356   4.374  15.529  0.8689 -1.1057  1.6300
   7223SM  C18S 9444   6.210   4.321  15.392 -0.7650  0.6253  0.0647
   7223SM  H18S 9445   6.247   4.407  15.331  0.4252  1.8801  2.3869
   7223SM  H18T 9446   6.123   4.346  15.457 -1.4352  1.2150 -1.0293
   7223SM  H18U 9447   6.179   4.241  15.322  0.0163 -0.4150  0.8790
   7223SM   C1F 9448   7.068   4.002  16.868 -0.2798  0.2714 -0.8731
   7223SM    OF 9449   7.097   3.884  16.880 -0.4745  0.0287  0.1984
   7223SM   C2F 9450   7.150   4.097  16.791 -0.2550 -0.3685  0.1994
   7223SM   H2F 9451   7.213   4.170  16.846  1.7347 -0.2058 -2.1731
   7223SM   H2G 9452   7.090   4.157  16.720  0.6438  0.2760 -0.0360
   7223SM   C3F 9453   7.258   4.028  16.695 -0.0759  0.1746  0.2840
   7223SM   H3F 9454   7.207   3.954  16.630 -0.4194 -0.1421  0.9068
   7223SM   H3G 9455   7.335   3.974  16.756  1.6390  1.8019 -0.3368
   7223SM   C4F 9456   7.320   4.128  16.605 -0.2601  0.7978 -0.0461
   7223SM   H4F 9457   7.383   4.197  16.666  1.4756 -1.9019  1.4217
   7223SM   H4G 9458   7.237   4.185  16.557 -1.3609  1.1012  2.0919
   7223SM   C5F 9459   7.399   4.062  16.493 -0.0294  0.5953 -0.2431
   7223SM   H5F 9460   7.350   3.971  16.453  0.7059 -0.8496  1.9566
   7223SM   H5G 9461   7.487   4.021  16.546  0.9595 -0.4420 -2.5494
   7223SM   C6F 9462   7.421   4.149  16.372  0.2077 -0.2010  0.2990
   7223SM   H6F 9463   7.517   4.116  16.327 -0.7664 -1.9674 -0.5956
   7223SM   H6G 9464   7.442   4.254  16.401  1.0386 -0.7228  1.6708
   7223SM   C7F 9465   7.306   4.137  16.275  0.4258  0.6622  0.6762
   7223SM   H7F 9466   7.273   4.242  16.262 -1.1272  0.2855  1.3366
   7223SM   H7G 9467   7.211   4.093  16.311 -0.3320  2.9875  1.6970
   7223SM   C8F 9468   7.337   4.068  16.140 -0.1895  0.0519  0.2068
   7223SM   H8F 9469   7.421   4.126  16.097 -0.3802 -0.3971 -0.8112
   7223SM   H8G 9470   7.250   4.082  16.072  0.1425 -0.4874 -0.3369
   7223SM   C9F 9471   7.375   3.918  16.160  0.4859  0.6815 -0.9760
   7223SM   H9F 9472   7.301   3.874  16.230  2.6272 -1.8296 -0.1218
   7223SM   H9G 9473   7.472   3.913  16.215  0.0782  1.6867 -0.1384
   7223SM  C10F 9474   7.372   3.847  16.022 -0.1602  0.0256 -0.4664
   7223SM  H10F 9475   7.278   3.889  15.981 -1.1397 -1.9619 -0.3351
   7223SM  H10G 9476   7.358   3.738  16.039 -0.0903 -0.2191 -1.8698
   7223SM  C11F 9477   7.495   3.868  15.934  0.1199 -0.3696  0.2591
   7223SM  H11F 9478   7.580   3.820  15.986 -2.5087 -3.6975  1.8981
   7223SM  H11G 9479   7.505   3.972  15.897 -0.6540 -0.5452 -0.4923
   7223SM  C12F 9480   7.486   3.799  15.797  0.2029 -0.2873 -0.2179
   7223SM  H12F 9481   7.392   3.837  15.750 -2.2038 -0.6382  3.8619
   7223SM  H12G 9482   7.454   3.696  15.823 -1.5513  0.3637  0.4108
   7223SM  C13F 9483   7.606   3.807  15.706  0.2979 -0.7601  0.6894
   7223SM  H13F 9484   7.655   3.906  15.707 -2.6520  0.8337 -0.5301
   7223SM  H13G 9485   7.570   3.779  15.605 -1.5043  0.6060  0.9123
   7223SM  C14F 9486   7.714   3.711  15.747 -0.5071 -0.1292 -0.3652
   7223SM  H14F 9487   7.670   3.609  15.748  1.1752 -0.9073 -0.5569
   7223SM  H14G 9488   7.748   3.742  15.848  2.5714  0.0034 -1.3315
   7223SM  C15F 9489   7.836   3.710  15.651 -0.1105  0.7053 -0.3937
   7223SM  H15F 9490   7.927   3.656  15.684 -0.4731 -0.0070 -0.5527
   7223SM  H15G 9491   7.876   3.814  15.640  0.8424  0.3486 -0.4074
   7223SM  C16F 9492   7.795   3.654  15.509  0.0260 -0.2404  0.0391
   7223SM  H16F 9493   7.718   3.724  15.470  0.1711 -0.2847 -0.3286
   7223SM  H16G 9494   7.742   3.559  15.528 -3.3708  1.8885  2.3775
   7223SM  C17F 9495   7.907   3.639  15.413 -0.1661  0.1593 -0.3256
   7223SM  H17F 9496   7.977   3.571  15.465  1.6436  2.9205  1.0945
   7223SM  H17G 9497   7.960   3.737  15.404 -3.3248  2.0888  0.2858
   7223SM  C18F 9498   7.859   3.588  15.279 -0.0333 -0.4617  0.1026
   7223SM  H18F 9499   7.783   3.657  15.236 -0.5616 -0.5902  0.8042
   7223SM  H18G 9500   7.810   3.488  15.281 -0.6419 -0.2781 -2.1816
   7223SM  C19F 9501   7.977   3.602  15.186  0.7058  0.7205  0.2417
   7223SM  H19F 9502   8.046   3.523  15.222 -0.8700 -1.1655 -0.6663
   7223SM  H19G 9503   8.017   3.705  15.189 -0.8746  1.4064 -1.0162
   7223SM  C20F 9504   7.943   3.562  15.039  0.1670  0.2181  0.0131
   7223SM  H20F 9505   7.860   3.618  14.990  0.4660 -2.0257 -3.3831
   7223SM  H20G 9506   7.899   3.460  15.040  0.3928  0.1237  0.5079
   7223SM  C21F 9507   8.060   3.558  14.947 -0.5519 -0.1309 -0.2489
   7223SM  H21F 9508   8.032   3.533  14.843 -1.9934 -0.1258  0.1011
   7223SM  H21G 9509   8.129   3.476  14.976  0.7375  0.3535 -1.8344
   7223SM  C22F 9510   8.141   3.684  14.946  0.0103 -1.2876  0.2054
   7223SM  H22F 9511   8.181   3.696  15.049 -3.0297 -0.1202  1.3862
   7223SM  H22G 9512   8.066   3.766  14.935  2.3715  1.1926  1.3613
   7223SM  C23F 9513   8.252   3.680  14.838 -0.0796  0.0632 -0.1016
   7223SM  H23F 9514   8.199   3.642  14.748 -1.3269 -2.6021  1.6329
   7223SM  H23G 9515   8.335   3.611  14.863  0.3294  0.9901  1.1991
   7223SM  H23H 9516   8.303   3.778  14.824  1.0946  0.1976  3.9104
   7323SM     N 9517   4.906   1.632  17.587 -0.2475  0.6385 -0.0833
   7323SM   C15 9518   4.989   1.598  17.708  0.0769  0.4729  0.6760
   7323SM  H15A 9519   5.091   1.619  17.680 -0.0087  0.0987  0.0565
   7323SM  H15B 9520   4.979   1.493  17.734  1.2338  0.0845 -0.3772
   7323SM  H15C 9521   4.963   1.657  17.795  0.6169  1.5598  0.1156
   7323SM   C14 9522   4.759   1.612  17.617 -0.9549  0.2711  0.2355
   7323SM  H14A 9523   4.734   1.511  17.647 -1.0924 -0.0911 -1.0455
   7323SM  H14B 9524   4.699   1.627  17.529 -0.8088 -0.8341 -0.0694
   7323SM  H14C 9525   4.726   1.670  17.702 -0.1925  0.2647  0.5464
   7323SM   C13 9526   4.935   1.773  17.552 -0.3542 -0.3135 -0.0017
   7323SM  H13A 9527   5.016   1.772  17.480 -0.7155  3.5643 -0.6740
   7323SM  H13B 9528   4.959   1.826  17.644 -1.7666 -4.5661  3.1466
   7323SM  H13C 9529   4.855   1.830  17.508  0.5263  2.2976  1.4956
   7323SM   C12 9530   4.948   1.534  17.477 -0.0644  0.0389 -0.5829
   7323SM  H12A 9531   4.910   1.438  17.507 -0.3207  0.8637  1.9876
   7323SM  H12B 9532   5.056   1.534  17.483 -0.0495 -0.7897 -0.7936
   7323SM   C11 9533   4.910   1.564  17.324  0.1113 -0.2160  0.3306
   7323SM  H11A 9534   4.803   1.543  17.302 -0.5675  0.7364  2.4500
   7323SM  H11B 9535   4.959   1.484  17.266  0.0692 -1.3534  1.8043
   7323SM     P 9536   5.095   1.713  17.209  0.4029  0.1199 -0.0493
   7323SM   O13 9537   5.100   1.855  17.171 -0.3773  0.2558  0.1254
   7323SM   O14 9538   5.195   1.668  17.307 -0.3869 -0.3485 -0.1280
   7323SM   O11 9539   5.112   1.619  17.077  0.3266  0.4646  0.1098
   7323SM   O12 9540   4.944   1.688  17.274 -0.7924 -0.2783  0.1606
   7323SM   C1S 9541   4.996   1.627  16.991  0.3794 -0.3987 -0.7386
   7323SM   H1S 9542   4.950   1.728  16.984 -0.8344 -1.0736 -4.6368
   7323SM   H1T 9543   4.916   1.570  17.043 -1.4485  3.0179  0.5490
   7323SM    NF 9544   4.885   1.560  16.781  0.4027 -0.2582  0.5932
   7323SM   HNF 9545   4.819   1.485  16.784  1.2643 -1.1049 -0.6795
   7323SM   C2S 9546   5.007   1.558  16.855  0.3898 -0.3044  0.4413
   7323SM   H2S 9547   5.078   1.608  16.785 -0.0606 -0.9243 -0.4702
   7323SM   C3S 9548   5.051   1.407  16.871 -0.0886  0.1853 -0.2017
   7323SM   H3S 9549   4.984   1.342  16.931 -0.3251 -1.4550 -2.1033
   7323SM    O3 9550   5.168   1.399  16.956 -1.0507 -0.0839 -0.3502
   7323SM   HO3 9551   5.174   1.482  17.004  2.7478 -1.3496  1.7842
   7323SM   C4S 9552   5.067   1.337  16.735 -0.4583 -0.8551 -0.2893
   7323SM   H4S 9553   4.971   1.298  16.698  0.3072 -0.8948 -2.3274
   7323SM   C5S 9554   5.179   1.343  16.656  0.0290  0.3337 -0.3081
   7323SM   H5S 9555   5.249   1.425  16.681  0.6471  0.2811 -1.7869
   7323SM   C6S 9556   5.195   1.295  16.510 -0.8328  0.5798 -0.0189
   7323SM   H6S 9557   5.098   1.261  16.468  0.1790 -2.3367 -0.2111
   7323SM   H6T 9558   5.263   1.207  16.504  1.1878  2.1185 -1.5407
   7323SM   C7S 9559   5.254   1.404  16.423  0.3860  0.3440  0.6738
   7323SM   H7S 9560   5.351   1.448  16.454 -0.5670  3.7788 -0.7197
   7323SM   H7T 9561   5.181   1.488  16.417 -1.7408 -1.4463  0.1453
   7323SM   C8S 9562   5.285   1.360  16.275 -0.1616  0.1657 -0.4572
   7323SM   H8S 9563   5.324   1.451  16.225 -2.6318  3.2987  2.7635
   7323SM   H8T 9564   5.202   1.315  16.216 -0.9076 -0.4095  0.9947
   7323SM   C9S 9565   5.400   1.259  16.269 -0.3293 -0.6271 -0.3626
   7323SM   H9S 9566   5.362   1.155  16.271 -0.2029 -0.6695  0.2831
   7323SM   H9T 9567   5.462   1.279  16.359 -1.2485  3.2188 -0.4208
   7323SM  C10S 9568   5.482   1.280  16.140  0.2561 -0.0777 -0.1385
   7323SM  H10S 9569   5.573   1.217  16.147  0.8820  0.2365 -3.6385
   7323SM  H10T 9570   5.527   1.380  16.121  1.4667 -0.4688  0.5659
   7323SM  C11S 9571   5.398   1.251  16.012  0.1166 -0.2424 -0.3376
   7323SM  H11S 9572   5.341   1.344  15.989  1.7022  0.5935 -1.1124
   7323SM  H11T 9573   5.334   1.165  16.038 -3.3317  2.2270  0.0050
   7323SM  C12S 9574   5.482   1.202  15.889 -0.1944  0.2174 -0.2163
   7323SM  H12S 9575   5.407   1.192  15.808  0.5075  0.7517 -0.9561
   7323SM  H12T 9576   5.527   1.103  15.911 -0.1491 -0.3892 -2.7414
   7323SM  C13S 9577   5.584   1.308  15.853 -0.4446 -0.1287 -0.3601
   7323SM  H13S 9578   5.665   1.298  15.929 -0.3992 -0.6316 -0.4727
   7323SM  H13T 9579   5.534   1.407  15.859  1.8118  1.2531 -2.3405
   7323SM  C14S 9580   5.633   1.284  15.710 -0.4474  0.4994  0.2992
   7323SM  H14S 9581   5.567   1.317  15.627  0.8964 -0.6879 -1.3042
   7323SM  H14T 9582   5.644   1.174  15.699 -1.1983  0.3139  1.2959
   7323SM  C15S 9583   5.779   1.329  15.688 -0.2816  0.2460  0.3133
   7323SM  H15S 9584   5.799   1.290  15.585 -0.6292  0.3051  0.2227
   7323SM  H15T 9585   5.829   1.271  15.768 -0.3336 -1.0304 -0.5578
   7323SM  C16S 9586   5.822   1.471  15.718  0.3731 -0.5116  0.2329
   7323SM  H16S 9587   5.794   1.500  15.821 -2.7699  0.3928 -0.7307
   7323SM  H16T 9588   5.768   1.543  15.652  1.4356 -0.6282 -0.7793
   7323SM  C17S 9589   5.973   1.482  15.689  0.1056  0.0133 -0.4082
   7323SM  H17S 9590   5.986   1.475  15.579  1.4139  2.2464 -0.4621
   7323SM  H17T 9591   6.041   1.404  15.729  2.0129  1.9985  0.4425
   7323SM  C18S 9592   6.043   1.613  15.730 -0.2512  0.0911  0.5091
   7323SM  H18S 9593   6.143   1.618  15.681 -0.3412 -0.7813  0.2077
   7323SM  H18T 9594   6.049   1.630  15.840 -2.2352  0.8484  0.5327
   7323SM  H18U 9595   5.975   1.693  15.696  1.6264  2.1181  1.3118
   7323SM   C1F 9596   4.842   1.672  16.725  0.5360 -0.3784  0.3456
   7323SM    OF 9597   4.886   1.778  16.753  0.4809  0.0937 -0.0838
   7323SM   C2F 9598   4.729   1.658  16.631  0.2560 -0.4498  0.3483
   7323SM   H2F 9599   4.641   1.724  16.642 -1.9768 -2.4275 -3.5671
   7323SM   H2G 9600   4.684   1.559  16.649  0.2539 -0.2440  1.6051
   7323SM   C3F 9601   4.766   1.663  16.484  0.0115  0.2860  0.7804
   7323SM   H3F 9602   4.827   1.754  16.465  1.9283 -1.2244 -0.7632
   7323SM   H3G 9603   4.672   1.657  16.426  0.6852 -0.6896 -0.2562
   7323SM   C4F 9604   4.854   1.548  16.436 -0.4579  0.2207  0.1548
   7323SM   H4F 9605   4.800   1.455  16.465  0.8480  0.0047  2.1181
   7323SM   H4G 9606   4.956   1.538  16.479 -0.4424 -1.3712 -0.1951
   7323SM   C5F 9607   4.879   1.544  16.290  0.3887 -0.9606  0.0689
   7323SM   H5F 9608   4.776   1.533  16.248  1.0201  0.2977 -1.9361
   7323SM   H5G 9609   4.930   1.450  16.262  0.2513 -1.0673  0.1747
   7323SM   C6F 9610   4.943   1.669  16.228 -0.4146 -0.1720 -0.5477
   7323SM   H6F 9611   5.051   1.659  16.253 -0.9305 -0.0333  2.0824
   7323SM   H6G 9612   4.920   1.760  16.288  0.6098 -1.3242  1.7552
   7323SM   C7F 9613   4.914   1.678  16.086 -0.2084 -0.2138  0.0827
   7323SM   H7F 9614   4.964   1.770  16.050  1.1216 -0.8437  0.2254
   7323SM   H7G 9615   4.807   1.687  16.060 -0.1446 -1.3308 -0.6135
   7323SM   C8F 9616   4.964   1.554  16.015 -1.0637  0.2152 -0.1797
   7323SM   H8F 9617   4.891   1.474  16.036  1.0103 -1.5487  0.7198
   7323SM   H8G 9618   5.060   1.513  16.053 -0.1797  0.9937 -1.4982
   7323SM   C9F 9619   4.983   1.564  15.866  0.2069 -0.0069 -0.0464
   7323SM   H9F 9620   5.066   1.634  15.843 -0.4093  0.8344  0.2341
   7323SM   H9G 9621   4.889   1.601  15.821  0.2458  0.6493  0.3993
   7323SM  C10F 9622   5.015   1.431  15.796  0.0263  0.3569  0.4448
   7323SM  H10F 9623   4.928   1.371  15.764  0.5019  0.0465 -0.2893
   7323SM  H10G 9624   5.054   1.362  15.874  0.1014 -1.0988 -0.8487
   7323SM  C11F 9625   5.117   1.456  15.688 -0.4317 -0.4641  0.0170
   7323SM  H11F 9626   5.198   1.506  15.746 -0.1745 -0.5942 -0.2266
   7323SM  H11G 9627   5.085   1.530  15.612  2.4776 -0.8162 -1.7331
   7323SM  C12F 9628   5.162   1.329  15.619 -0.4459 -0.2568 -0.3401
   7323SM  H12F 9629   5.071   1.285  15.573 -1.1642  1.0659 -0.2472
   7323SM  H12G 9630   5.225   1.259  15.678  1.8965  0.5141 -1.7422
   7323SM  C13F 9631   5.253   1.366  15.494 -0.1320  0.1950  0.0318
   7323SM  H13F 9632   5.352   1.403  15.528 -0.4906  3.1368 -1.7603
   7323SM  H13G 9633   5.218   1.450  15.430 -0.7457  0.8826  1.2424
   7323SM  C14F 9634   5.297   1.232  15.427 -0.1773  0.0447 -0.1125
   7323SM  H14F 9635   5.204   1.172  15.423  0.5281 -1.1771  1.1397
   7323SM  H14G 9636   5.365   1.171  15.491 -0.8697 -3.4440 -2.4278
   7323SM  C15F 9637   5.368   1.255  15.291 -0.1626 -1.4175 -0.4145
   7323SM  H15F 9638   5.438   1.172  15.268  2.5219  0.3337  0.7998
   7323SM  H15G 9639   5.429   1.348  15.301 -1.5477 -0.3122 -1.7442
   7323SM  C16F 9640   5.263   1.287  15.182 -0.2470  0.2977  0.0981
   7323SM  H16F 9641   5.186   1.357  15.220 -0.9967 -0.5695  0.2074
   7323SM  H16G 9642   5.209   1.190  15.173  0.7255 -0.1462 -1.3306
   7323SM  C17F 9643   5.317   1.330  15.039 -0.4744 -0.4712  0.3671
   7323SM  H17F 9644   5.398   1.261  15.008 -2.2651 -1.9983 -1.2078
   7323SM  H17G 9645   5.373   1.424  15.055  2.1456 -1.7423 -0.7926
   7323SM  C18F 9646   5.201   1.347  14.941  0.2299  0.3978  0.0286
   7323SM  H18F 9647   5.145   1.434  14.981  1.3854  1.4698 -0.5846
   7323SM  H18G 9648   5.132   1.261  14.949  1.0184 -0.0951  2.1164
   7323SM  C19F 9649   5.253   1.348  14.797  0.1796 -0.4454 -0.0568
   7323SM  H19F 9650   5.296   1.247  14.781  1.0488 -0.0598 -0.2061
   7323SM  H19G 9651   5.334   1.423  14.786  0.3279 -0.1812  2.3140
   7323SM  C20F 9652   5.150   1.375  14.696  0.0292  0.3173  0.2603
   7323SM  H20F 9653   5.110   1.477  14.717  1.2548  0.9045 -0.1896
   7323SM  H20G 9654   5.067   1.302  14.709  1.3969 -2.5570 -4.7099
   7323SM  C21F 9655   5.201   1.364  14.552  0.2511 -0.2440 -0.6249
   7323SM  H21F 9656   5.275   1.282  14.556  1.1792  0.6167  1.0000
   7323SM  H21G 9657   5.253   1.457  14.520  1.6905 -1.3991 -1.7865
   7323SM  C22F 9658   5.100   1.342  14.441  0.4573  0.1072  0.2372
   7323SM  H22F 9659   5.048   1.246  14.457 -0.6744  0.2612 -2.1282
   7323SM  H22G 9660   5.144   1.335  14.339  0.0103 -0.2148  0.0663
   7323SM  C23F 9661   4.999   1.464  14.431  0.3538  0.0840 -0.2043
   7323SM  H23F 9662   4.953   1.468  14.330  0.7274  1.0433 -0.3438
   7323SM  H23G 9663   5.058   1.557  14.445 -1.9322  1.7632 -1.2021
   7323SM  H23H 9664   4.919   1.446  14.506 -0.1150 -2.2685 -1.1782
   7423SM     N 9665   0.220   5.821  17.585 -0.6419 -0.5815 -0.8650
   7423SM   C15 9666   0.192   5.875  17.723  0.5317  0.0136  0.3937
   7423SM  H15A 9667   0.266   5.949  17.752 -0.8148  1.1239  1.0799
   7423SM  H15B 9668   0.208   5.794  17.794  1.7970 -0.6359 -0.5964
   7423SM  H15C 9669   0.097   5.924  17.738  0.0018 -1.1030  0.7951
   7423SM   C14 9670   0.344   5.735  17.602  0.2006  0.1866 -0.0631
   7423SM  H14A 9671   0.370   5.683  17.510  2.4265 -0.4332  0.8387
   7423SM  H14B 9672   0.329   5.666  17.683 -3.3408  1.5486  0.5938
   7423SM  H14C 9673   0.425   5.797  17.638 -0.0587  0.4600  0.0470
   7423SM   C13 9674   0.110   5.733  17.537 -0.8658 -0.4676 -0.5272
   7423SM  H13A 9675   0.120   5.641  17.593 -0.8300 -0.9770 -1.3621
   7423SM  H13B 9676   0.120   5.707  17.433 -0.0867 -1.5511 -0.2057
   7423SM  H13C 9677   0.008   5.764  17.554 -0.7655  0.6209 -1.7993
   7423SM   C12 9678   0.253   5.929  17.488 -0.3483 -0.3487 -0.4799
   7423SM  H12A 9679   0.340   5.983  17.524 -0.0718 -1.1605  0.1156
   7423SM  H12B 9680   0.173   6.001  17.496 -1.1778 -1.4362  2.3463
   7423SM   C11 9681   0.283   5.891  17.352 -0.2615 -0.5317  0.8684
   7423SM  H11A 9682   0.202   5.825  17.315  1.6769 -3.4254  1.4185
   7423SM  H11B 9683   0.375   5.830  17.340 -1.2788 -1.9204 -0.1996
   7423SM     P 9684   0.418   6.100  17.262  0.5812 -0.3639 -0.4449
   7423SM   O13 9685   0.387   6.212  17.173 -0.1349  0.3678 -0.2940
   7423SM   O14 9686   0.454   6.134  17.404 -0.7542 -0.5478 -0.6433
   7423SM   O11 9687   0.531   6.009  17.210 -0.0778  0.2660 -0.0924
   7423SM   O12 9688   0.291   6.007  17.273 -0.4530 -0.2771  0.1906
   7423SM   C1S 9689   0.521   5.939  17.084  0.1525 -0.0781  0.4695
   7423SM   H1S 9690   0.421   5.943  17.037  0.7875 -0.8381 -1.0049
   7423SM   H1T 9691   0.552   5.833  17.100 -0.3603 -0.2709  0.2159
   7423SM    NF 9692   0.614   5.951  16.848  0.0678 -0.1747  0.0479
   7423SM   HNF 9693   0.661   5.866  16.822 -0.4054 -0.5587  0.4358
   7423SM   C2S 9694   0.632   6.000  16.984 -0.0651  0.2400  0.1257
   7423SM   H2S 9695   0.621   6.110  16.989  0.0028  0.2048  2.3737
   7423SM   C3S 9696   0.772   5.960  17.046 -0.5278 -0.0950  0.2090
   7423SM   H3S 9697   0.774   5.849  17.054  1.9286 -0.2334 -1.2727
   7423SM    O3 9698   0.796   5.996  17.184  0.0436 -0.2613 -0.3439
   7423SM   HO3 9699   0.711   5.998  17.229  2.4478 -0.9410  5.0879
   7423SM   C4S 9700   0.890   6.003  16.967 -0.0188 -0.5194  0.3466
   7423SM   H4S 9701   0.909   6.112  16.966  1.2016 -0.7103  0.4908
   7423SM   C5S 9702   0.993   5.924  16.930  0.2249  0.5920 -0.0387
   7423SM   H5S 9703   0.994   5.816  16.953  1.3947  0.4149 -0.8164
   7423SM   C6S 9704   1.115   5.969  16.859  0.4590  0.1528 -0.1270
   7423SM   H6S 9705   1.197   5.972  16.935 -0.4327  1.0853  0.8408
   7423SM   H6T 9706   1.121   6.071  16.817  1.2118  0.3516  0.4252
   7423SM   C7S 9707   1.164   5.872  16.758 -0.0310  0.0952 -0.5121
   7423SM   H7S 9708   1.122   5.770  16.771  0.9911 -0.3765 -0.8439
   7423SM   H7T 9709   1.275   5.877  16.760  0.0020 -0.2364  1.7991
   7423SM   C8S 9710   1.118   5.914  16.618 -0.3532 -0.7719 -1.0377
   7423SM   H8S 9711   1.141   6.022  16.605 -1.4379 -0.4630 -0.4754
   7423SM   H8T 9712   1.008   5.901  16.616 -0.3594 -1.3861  1.0227
   7423SM   C9S 9713   1.179   5.836  16.512 -0.6908 -0.0450  0.2028
   7423SM   H9S 9714   1.119   5.844  16.420  0.5055 -1.3110 -0.7339
   7423SM   H9T 9715   1.167   5.727  16.532 -1.9023  0.0950  0.2844
   7423SM  C10S 9716   1.328   5.865  16.489  0.3004  0.2023 -0.0933
   7423SM  H10S 9717   1.388   5.825  16.573  0.0153 -0.4181 -0.1852
   7423SM  H10T 9718   1.335   5.976  16.493 -1.1478  0.3116  0.0491
   7423SM  C11S 9719   1.361   5.802  16.356 -0.8442 -0.2392 -0.3517
   7423SM  H11S 9720   1.306   5.846  16.270  0.1741  0.4636 -0.6659
   7423SM  H11T 9721   1.349   5.691  16.357 -1.1502 -0.2034  0.4790
   7423SM  C12S 9722   1.519   5.813  16.322 -0.0225 -0.2228  0.2971
   7423SM  H12S 9723   1.574   5.764  16.405 -2.8211  1.4811  3.4148
   7423SM  H12T 9724   1.542   5.922  16.327 -0.7500  0.1037 -2.1826
   7423SM  C13S 9725   1.571   5.744  16.191  0.4605 -0.4446 -0.1590
   7423SM  H13S 9726   1.520   5.795  16.106  0.8243  0.4898  0.1775
   7423SM  H13T 9727   1.547   5.636  16.204  1.1229 -0.3772  1.9659
   7423SM  C14S 9728   1.721   5.769  16.171  0.0262 -0.5147  0.4474
   7423SM  H14S 9729   1.793   5.704  16.225  0.8660  1.0812  1.3111
   7423SM  H14T 9730   1.753   5.872  16.196  0.3470 -0.1409 -1.3425
   7423SM  C15S 9731   1.751   5.756  16.020  1.0126 -0.4560  0.3114
   7423SM  H15S 9732   1.710   5.848  15.974  1.3491  0.2002  1.3109
   7423SM  H15T 9733   1.690   5.673  15.977 -0.4612  1.0391 -0.6174
   7423SM  C16S 9734   1.897   5.727  15.985  0.4171  0.3449 -0.0223
   7423SM  H16S 9735   1.931   5.630  16.027  0.6665 -0.2110 -1.4654
   7423SM  H16T 9736   1.965   5.807  16.023  0.6872  0.2483 -0.2951
   7423SM  C17S 9737   1.937   5.728  15.830 -0.3114 -0.3391  0.0669
   7423SM  H17S 9738   1.911   5.826  15.784  1.2886  0.9442  1.7597
   7423SM  H17T 9739   1.890   5.639  15.781 -0.9867 -0.9948  1.8296
   7423SM  C18S 9740   2.093   5.729  15.810 -0.4723 -0.0271 -0.2531
   7423SM  H18S 9741   2.113   5.695  15.706 -0.4012  2.2212 -1.0282
   7423SM  H18T 9742   2.134   5.646  15.872  1.2852 -1.7743 -3.4764
   7423SM  H18U 9743   2.132   5.831  15.831  0.0636 -0.6170  1.8658
   7423SM   C1F 9744   0.506   5.997  16.779 -0.5845 -0.2282 -0.1145
   7423SM    OF 9745   0.432   6.077  16.836 -0.0248 -0.0708  0.3474
   7423SM   C2F 9746   0.488   5.952  16.637  0.3040  0.0428  0.6803
   7423SM   H2F 9747   0.526   5.848  16.624  0.6134  0.3470 -1.1234
   7423SM   H2G 9748   0.533   6.025  16.567 -0.2668 -1.0675 -0.9132
   7423SM   C3F 9749   0.337   5.953  16.610  0.1236 -0.1202  0.7034
   7423SM   H3F 9750   0.295   6.055  16.592  1.5283  0.4097  0.3292
   7423SM   H3G 9751   0.286   5.916  16.702  2.8138 -0.3268  2.2036
   7423SM   C4F 9752   0.290   5.875  16.477  0.2089 -0.0047 -0.4671
   7423SM   H4F 9753   0.181   5.868  16.496  0.3521  0.5925  0.6723
   7423SM   H4G 9754   0.329   5.772  16.465 -1.8428 -0.6345 -2.3464
   7423SM   C5F 9755   0.318   5.955  16.352 -0.2311  0.2812 -0.1117
   7423SM   H5F 9756   0.294   6.059  16.380 -1.2401 -0.0605  0.3191
   7423SM   H5G 9757   0.243   5.920  16.277 -1.5352 -0.2043  1.3607
   7423SM   C6F 9758   0.454   5.926  16.287 -0.5919  0.0283  0.3584
   7423SM   H6F 9759   0.459   5.815  16.279  1.3879  0.1084 -0.0960
   7423SM   H6G 9760   0.540   5.955  16.351 -1.6201 -0.6752  2.1327
   7423SM   C7F 9761   0.468   5.993  16.145  0.5671 -0.1869 -0.6217
   7423SM   H7F 9762   0.465   6.104  16.147 -0.8428 -0.2038 -0.9062
   7423SM   H7G 9763   0.389   5.956  16.076  0.2751  1.5911 -1.2991
   7423SM   C8F 9764   0.605   5.959  16.084 -0.3537 -0.2237  0.2392
   7423SM   H8F 9765   0.608   5.850  16.063  1.9580 -0.1360 -0.0988
   7423SM   H8G 9766   0.697   5.988  16.138  1.0092  1.1702 -2.6182
   7423SM   C9F 9767   0.619   6.037  15.947  0.5241  0.4315 -0.1394
   7423SM   H9F 9768   0.622   6.146  15.968 -0.1475  0.7001 -1.3000
   7423SM   H9G 9769   0.535   6.012  15.878 -0.0802 -0.5116  0.9078
   7423SM  C10F 9770   0.750   5.998  15.879 -0.3867 -0.4393 -0.2470
   7423SM  H10F 9771   0.744   5.893  15.844  0.8659 -0.3506 -0.7973
   7423SM  H10G 9772   0.842   6.015  15.939 -1.2551  2.2010  0.4881
   7423SM  C11F 9773   0.786   6.086  15.762  0.3016 -0.5061 -0.3703
   7423SM  H11F 9774   0.831   6.178  15.806 -1.8488 -0.6254  2.4341
   7423SM  H11G 9775   0.697   6.122  15.706  0.5035  3.9145  1.7083
   7423SM  C12F 9776   0.881   6.020  15.663  0.4519  0.6978 -0.2026
   7423SM  H12F 9777   0.930   5.931  15.707  0.8829  0.8978 -0.2812
   7423SM  H12G 9778   0.956   6.096  15.635 -1.0125  2.8982  1.4492
   7423SM  C13F 9779   0.800   5.966  15.541 -0.0548  0.7296  0.0439
   7423SM  H13F 9780   0.763   6.063  15.503  1.2121  0.3368 -2.3532
   7423SM  H13G 9781   0.723   5.896  15.580  0.5776  1.5650  3.1404
   7423SM  C14F 9782   0.882   5.900  15.439  0.0112  0.9725 -0.2483
   7423SM  H14F 9783   0.941   5.818  15.485 -0.1350  0.9361 -0.1289
   7423SM  H14G 9784   0.962   5.969  15.403  0.7566  0.5076  0.4898
   7423SM  C15F 9785   0.806   5.844  15.310 -0.2048  0.3611  0.1677
   7423SM  H15F 9786   0.892   5.800  15.254 -0.8487  0.7572 -1.1815
   7423SM  H15G 9787   0.749   5.927  15.262 -3.2940 -1.6814  0.0080
   7423SM  C16F 9788   0.707   5.729  15.340  0.1317  0.3589  0.0801
   7423SM  H16F 9789   0.635   5.767  15.416  1.2720  1.7903  0.5044
   7423SM  H16G 9790   0.754   5.642  15.391 -0.2004  0.0614 -0.1153
   7423SM  C17F 9791   0.645   5.658  15.217 -0.2452  0.5633  0.0612
   7423SM  H17F 9792   0.717   5.679  15.134  0.3878  2.1635  0.9614
   7423SM  H17G 9793   0.555   5.719  15.198  0.3630  1.4097 -0.1875
   7423SM  C18F 9794   0.604   5.509  15.231 -0.0658  0.3415 -0.0897
   7423SM  H18F 9795   0.526   5.498  15.310  0.9278  1.3729  1.0778
   7423SM  H18G 9796   0.691   5.455  15.274 -1.2824  0.0801  2.1972
   7423SM  C19F 9797   0.573   5.439  15.099  0.0990 -0.1958  0.5365
   7423SM  H19F 9798   0.539   5.334  15.116 -2.5271  0.7248  1.4680
   7423SM  H19G 9799   0.664   5.431  15.036 -0.5910 -0.7473 -0.4197
   7423SM  C20F 9800   0.469   5.511  15.015 -0.2778  0.1325  0.2981
   7423SM  H20F 9801   0.471   5.466  14.913 -0.0431  0.2062  0.2680
   7423SM  H20G 9802   0.497   5.617  14.996 -1.2279  0.1212 -1.3716
   7423SM  C21F 9803   0.327   5.501  15.071 -0.4886  0.0181 -0.0967
   7423SM  H21F 9804   0.322   5.544  15.173  2.4452 -0.3424  0.2953
   7423SM  H21G 9805   0.295   5.394  15.074 -0.3535 -0.0886 -1.4336
   7423SM  C22F 9806   0.222   5.566  14.982 -0.8935  0.1079  0.1624
   7423SM  H22F 9807   0.226   5.521  14.881 -1.9349 -0.9548  0.5624
   7423SM  H22G 9808   0.246   5.674  14.983  0.4559 -0.1360 -1.4363
   7423SM  C23F 9809   0.077   5.548  15.037  0.2789  0.2554  0.6280
   7423SM  H23F 9810   0.068   5.463  15.107  1.1800 -0.4888 -0.1388
   7423SM  H23G 9811   0.004   5.530  14.956  0.5741  2.6833 -0.2807
   7423SM  H23H 9812   0.062   5.646  15.089 -1.1844  1.3975 -1.7770
   7523SM     N 9813   6.126   7.571  17.903 -0.2569 -0.1017  0.2534
   7523SM   C15 9814   6.271   7.591  17.870 -0.4004  0.3141  0.1350
   7523SM  H15A 9815   6.314   7.676  17.920  1.0874  0.3487 -1.1161
   7523SM  H15B 9816   6.272   7.604  17.763 -0.3395  4.2338  0.4676
   7523SM  H15C 9817   6.330   7.505  17.900 -0.1803  0.1010 -0.8826
   7523SM   C14 9818   6.111   7.551  18.052 -0.5114  0.3973 -0.4596
   7523SM  H14A 9819   6.174   7.464  18.060 -2.5207 -1.4892 -3.1969
   7523SM  H14B 9820   6.010   7.539  18.088  0.3212 -0.1118  1.8742
   7523SM  H14C 9821   6.145   7.638  18.106  0.0134  1.6861 -2.7307
   7523SM   C13 9822   6.056   7.696  17.858  0.3212  0.2694 -0.0565
   7523SM  H13A 9823   6.083   7.707  17.754  1.2319 -1.2533 -0.0129
   7523SM  H13B 9824   6.094   7.781  17.911  1.7968 -1.4813  1.8641
   7523SM  H13C 9825   5.948   7.700  17.865 -0.0162 -2.4310 -1.9027
   7523SM   C12 9826   6.072   7.451  17.830 -0.5079  0.0734 -0.0470
   7523SM  H12A 9827   5.967   7.436  17.849 -0.1183 -4.3767 -0.1706
   7523SM  H12B 9828   6.118   7.361  17.868 -2.1360 -0.8473 -0.1680
   7523SM   C11 9829   6.083   7.456  17.678  0.0698  0.6824 -0.3047
   7523SM  H11A 9830   6.029   7.541  17.631 -1.0400 -0.1282 -0.5249
   7523SM  H11B 9831   6.022   7.373  17.635 -1.4603  1.4443  0.3057
   7523SM     P 9832   6.306   7.313  17.634  0.6876  0.2613  0.3559
   7523SM   O13 9833   6.432   7.354  17.691 -0.0993  0.1236  0.2884
   7523SM   O14 9834   6.232   7.206  17.703  0.1687 -0.5585 -0.4199
   7523SM   O11 9835   6.319   7.274  17.482 -1.0441 -0.2265  0.9415
   7523SM   O12 9836   6.213   7.447  17.623  0.2099 -0.2846 -0.0559
   7523SM   C1S 9837   6.269   7.355  17.372  0.1633  1.0391  0.8898
   7523SM   H1S 9838   6.307   7.458  17.359 -2.8327  1.9172 -2.4441
   7523SM   H1T 9839   6.161   7.378  17.379 -0.3634 -0.2257 -1.7106
   7523SM    NF 9840   6.239   7.393  17.130  0.0294  0.3324 -0.0883
   7523SM   HNF 9841   6.143   7.402  17.103 -0.4818  0.0591  1.4868
   7523SM   C2S 9842   6.271   7.290  17.234  0.3787  0.0417 -0.2774
   7523SM   H2S 9843   6.373   7.251  17.214 -0.4861 -2.0951 -0.7548
   7523SM   C3S 9844   6.185   7.156  17.240 -0.7065 -0.3251 -0.5127
   7523SM   H3S 9845   6.078   7.180  17.257 -1.5621 -1.4151 -3.6966
   7523SM    O3 9846   6.215   7.067  17.351  0.2447 -0.3404  0.0627
   7523SM   HO3 9847   6.276   7.120  17.403  1.1983 -0.8542 -0.4960
   7523SM   C4S 9848   6.205   7.088  17.109 -0.6379  0.7123 -0.7640
   7523SM   H4S 9849   6.109   7.079  17.056 -0.9795 -0.3649  0.0012
   7523SM   C5S 9850   6.305   7.006  17.066  0.3027 -0.3011  0.5092
   7523SM   H5S 9851   6.400   6.990  17.119  1.0283  1.0819 -0.3279
   7523SM   C6S 9852   6.289   6.925  16.938 -0.5013 -0.1457  0.4766
   7523SM   H6S 9853   6.250   6.825  16.965 -2.2985  0.9462  2.1304
   7523SM   H6T 9854   6.389   6.913  16.891 -0.9890 -2.0567 -0.1613
   7523SM   C7S 9855   6.192   6.984  16.831  0.2912  0.0572 -0.3672
   7523SM   H7S 9856   6.202   7.095  16.823  3.4281 -0.0954  0.0094
   7523SM   H7T 9857   6.093   6.952  16.870  0.5184 -1.3788 -0.9208
   7523SM   C8S 9858   6.228   6.929  16.693 -0.2400 -0.0340 -0.3721
   7523SM   H8S 9859   6.332   6.947  16.659 -0.2976  1.2239  0.0502
   7523SM   H8T 9860   6.163   6.994  16.631 -2.9851 -0.4919  1.8198
   7523SM   C9S 9861   6.192   6.779  16.692  0.2685  0.0112  0.5997
   7523SM   H9S 9862   6.093   6.763  16.740  0.4671 -1.3871  0.5719
   7523SM   H9T 9863   6.263   6.707  16.738 -1.2013 -1.5392  0.5395
   7523SM  C10S 9864   6.156   6.733  16.545 -0.3472 -0.3063 -0.9948
   7523SM  H10S 9865   6.069   6.786  16.501 -1.3969 -2.6871 -1.9331
   7523SM  H10T 9866   6.117   6.630  16.556 -1.4916  0.1712 -0.3384
   7523SM  C11S 9867   6.272   6.741  16.448  0.4440  0.0217 -0.6850
   7523SM  H11S 9868   6.363   6.693  16.492 -0.3860 -0.3174  0.7420
   7523SM  H11T 9869   6.308   6.845  16.432  0.1062  0.2876  0.1916
   7523SM  C12S 9870   6.243   6.683  16.309 -0.5017  0.4367 -0.5702
   7523SM  H12S 9871   6.238   6.573  16.327 -0.3017  0.3841 -0.8410
   7523SM  H12T 9872   6.323   6.718  16.241  0.4877 -0.3419  0.1680
   7523SM  C13S 9873   6.107   6.730  16.251  0.1245  0.7495 -0.5961
   7523SM  H13S 9874   6.098   6.841  16.256 -0.6926  0.7584 -1.8805
   7523SM  H13T 9875   6.030   6.682  16.315  0.9060 -1.9527 -1.5479
   7523SM  C14S 9876   6.081   6.682  16.109  0.3211 -0.2357 -0.6226
   7523SM  H14S 9877   6.096   6.573  16.097  1.9270 -0.2699  1.1933
   7523SM  H14T 9878   6.164   6.735  16.058  0.6604  0.9055  1.0237
   7523SM  C15S 9879   5.941   6.712  16.054  0.8083  0.0251 -0.0321
   7523SM  H15S 9880   5.911   6.818  16.061  2.6654  0.5849 -0.1084
   7523SM  H15T 9881   5.872   6.652  16.117  2.0505 -1.6138 -0.1610
   7523SM  C16S 9882   5.941   6.669  15.903  0.7064  0.0380 -1.2289
   7523SM  H16S 9883   6.003   6.577  15.893  1.5642  0.6021 -1.2369
   7523SM  H16T 9884   5.999   6.750  15.854  3.1363  1.2661  3.1895
   7523SM  C17S 9885   5.809   6.633  15.845  0.1265  0.2340  0.2425
   7523SM  H17S 9886   5.737   6.718  15.841 -0.0532  0.0294 -1.2272
   7523SM  H17T 9887   5.761   6.560  15.913 -1.6823  0.4112 -0.8073
   7523SM  C18S 9888   5.825   6.577  15.703  0.4044  0.3142 -0.1359
   7523SM  H18S 9889   5.859   6.657  15.634  0.6089  1.1898  0.9563
   7523SM  H18T 9890   5.735   6.532  15.655 -0.4437  0.5197  1.2401
   7523SM  H18U 9891   5.912   6.509  15.691 -0.4998 -0.6721 -1.4903
   7523SM   C1F 9892   6.332   7.488  17.099 -0.3551 -0.1054  0.3098
   7523SM    OF 9893   6.443   7.497  17.154  0.7717  0.3598  0.7062
   7523SM   C2F 9894   6.298   7.581  16.982 -0.1589 -0.1469  0.4089
   7523SM   H2F 9895   6.231   7.662  17.019  0.7372  0.7204  0.1759
   7523SM   H2G 9896   6.246   7.521  16.905 -0.0434 -1.0425  1.0179
   7523SM   C3F 9897   6.418   7.654  16.925 -0.9486  0.5514 -0.1097
   7523SM   H3F 9898   6.475   7.581  16.864 -0.1605  1.5092 -0.5404
   7523SM   H3G 9899   6.497   7.687  16.997  1.1117  2.2811 -2.9554
   7523SM   C4F 9900   6.389   7.771  16.830  0.1975 -0.6441 -0.1638
   7523SM   H4F 9901   6.486   7.808  16.791 -0.3518  0.2817 -0.6636
   7523SM   H4G 9902   6.345   7.855  16.889 -0.0435  0.6082 -2.0537
   7523SM   C5F 9903   6.302   7.747  16.706  0.6422  0.1830 -0.5607
   7523SM   H5F 9904   6.199   7.737  16.746  0.1064  0.6502 -1.7796
   7523SM   H5G 9905   6.315   7.653  16.648  3.6038 -0.2657  0.6113
   7523SM   C6F 9906   6.300   7.873  16.616  0.0831 -0.3529 -0.0847
   7523SM   H6F 9907   6.403   7.883  16.575  1.4665 -3.1092  2.3852
   7523SM   H6G 9908   6.291   7.963  16.681 -1.7792 -1.2441  0.9722
   7523SM   C7F 9909   6.187   7.873  16.517  1.1619  0.0989  0.0681
   7523SM   H7F 9910   6.176   7.975  16.473  2.7535 -0.2212 -1.1481
   7523SM   H7G 9911   6.094   7.854  16.575  1.9352 -0.7726  1.0461
   7523SM   C8F 9912   6.191   7.782  16.401  0.0860  0.3285  1.0109
   7523SM   H8F 9913   6.090   7.783  16.353  0.2537 -1.7444  0.5221
   7523SM   H8G 9914   6.215   7.678  16.430  0.7476  0.2874  0.3434
   7523SM   C9F 9915   6.286   7.824  16.283 -0.0972  0.0598  0.1193
   7523SM   H9F 9916   6.382   7.856  16.327  1.3533 -1.5354 -1.7415
   7523SM   H9G 9917   6.229   7.912  16.246 -0.1516  0.2976  0.7572
   7523SM  C10F 9918   6.299   7.715  16.173 -0.5210  0.1915 -0.7870
   7523SM  H10F 9919   6.338   7.617  16.208  1.7600  1.3054 -0.0354
   7523SM  H10G 9920   6.361   7.761  16.093 -1.0510 -0.0951 -1.3790
   7523SM  C11F 9921   6.157   7.682  16.118 -0.7465  0.1266  0.3882
   7523SM  H11F 9922   6.095   7.774  16.113 -1.5487 -0.4522 -0.8296
   7523SM  H11G 9923   6.098   7.619  16.189 -2.7646  0.0044 -1.2990
   7523SM  C12F 9924   6.163   7.620  15.978  0.1157 -0.4137 -0.3016
   7523SM  H12F 9925   6.236   7.536  15.983  1.6073  0.6881 -1.9948
   7523SM  H12G 9926   6.200   7.694  15.904 -1.2684 -1.2516 -1.8821
   7523SM  C13F 9927   6.022   7.572  15.935 -0.4447 -0.6532  0.2257
   7523SM  H13F 9928   5.947   7.653  15.924 -1.0696 -1.1520  0.7060
   7523SM  H13G 9929   5.981   7.504  16.013 -1.0481  2.3915  2.7663
   7523SM  C14F 9930   6.031   7.493  15.799  0.4463  0.5309 -1.2770
   7523SM  H14F 9931   6.117   7.423  15.806  0.2023  0.3889  1.4994
   7523SM  H14G 9932   6.040   7.570  15.719  0.1962  2.5595  0.5577
   7523SM  C15F 9933   5.903   7.400  15.785  0.0762  0.3379  0.5396
   7523SM  H15F 9934   5.818   7.443  15.843 -1.7162 -3.0114  0.6695
   7523SM  H15G 9935   5.936   7.303  15.827 -0.1053 -0.0104 -0.1018
   7523SM  C16F 9936   5.848   7.382  15.639 -0.3914 -0.3103  0.2902
   7523SM  H16F 9937   5.835   7.487  15.605  1.8113  0.2222  0.9274
   7523SM  H16G 9938   5.756   7.320  15.637 -0.8359  0.3580 -1.1705
   7523SM  C17F 9939   5.950   7.315  15.536 -0.3368  1.2952 -0.5574
   7523SM  H17F 9940   5.942   7.210  15.572 -1.8967  1.5923  0.0579
   7523SM  H17G 9941   6.052   7.356  15.551  0.4968 -0.5892 -0.7946
   7523SM  C18F 9942   5.902   7.327  15.392 -0.2910  0.0450 -0.3611
   7523SM  H18F 9943   5.792   7.326  15.382 -0.3121 -0.0062 -0.1239
   7523SM  H18G 9944   5.939   7.244  15.329  2.6353  0.9129  0.0635
   7523SM  C19F 9945   5.940   7.463  15.334  0.4696 -0.3219  0.0661
   7523SM  H19F 9946   6.042   7.447  15.294  0.1690 -1.2435 -0.3445
   7523SM  H19G 9947   5.938   7.540  15.415 -0.2941 -0.2599 -0.0113
   7523SM  C20F 9948   5.855   7.498  15.214 -0.4520 -0.1885  0.7930
   7523SM  H20F 9949   5.864   7.417  15.138  1.2470  1.0309 -0.3903
   7523SM  H20G 9950   5.903   7.584  15.162  0.4902 -1.8391 -1.2408
   7523SM  C21F 9951   5.701   7.534  15.224 -0.5527 -0.2146 -0.4230
   7523SM  H21F 9952   5.712   7.621  15.292  1.1690 -0.0381 -0.8820
   7523SM  H21G 9953   5.650   7.447  15.271  0.3736 -1.2264 -1.2241
   7523SM  C22F 9954   5.649   7.592  15.090 -0.4058  0.0154 -0.3351
   7523SM  H22F 9955   5.729   7.653  15.043 -0.3597 -0.7010 -1.2152
   7523SM  H22G 9956   5.557   7.651  15.111 -0.8111 -1.1087  1.2326
   7523SM  C23F 9957   5.604   7.479  14.992 -0.8115  0.1958  0.2257
   7523SM  H23F 9958   5.532   7.409  15.038 -1.0568  1.6001  2.0879
   7523SM  H23G 9959   5.699   7.426  14.972 -1.3867  0.2102 -3.1698
   7523SM  H23H 9960   5.573   7.515  14.892 -0.1324 -3.4208 -1.4350
   7623SM     N 9961   7.191   0.708  17.601  0.4398 -0.4191 -0.0075
   7623SM   C15 9962   7.271   0.661  17.482 -0.4512 -0.5579  0.6053
   7623SM  H15A 9963   7.220   0.581  17.429  1.2880  0.0786 -2.2012
   7623SM  H15B 9964   7.366   0.622  17.513 -0.5200 -0.6078  0.7558
   7623SM  H15C 9965   7.285   0.747  17.419  1.3561 -0.1967  1.4574
   7623SM   C14 9966   7.256   0.820  17.669 -0.1078 -0.0409  0.0033
   7623SM  H14A 9967   7.208   0.856  17.759  2.8321  2.1410  0.8444
   7623SM  H14B 9968   7.268   0.903  17.601  1.1087  0.4322  0.7568
   7623SM  H14C 9969   7.355   0.793  17.704 -0.9183 -1.7767  1.0660
   7623SM   C13 9970   7.061   0.746  17.534  0.5326 -0.7565 -0.1358
   7623SM  H13A 9971   7.078   0.817  17.454  0.9815 -0.7031  0.0018
   7623SM  H13B 9972   6.999   0.784  17.614  2.6749  0.4701  1.0207
   7623SM  H13C 9973   7.016   0.662  17.483 -0.4721 -1.5222  1.9119
   7623SM   C12 9974   7.163   0.602  17.705  0.0258  0.1627  0.2066
   7623SM  H12A 9975   7.127   0.647  17.796  1.6616  0.6475  0.6548
   7623SM  H12B 9976   7.259   0.567  17.741  0.0735  1.6690  1.6838
   7623SM   C11 9977   7.074   0.480  17.670  0.4675 -0.4354 -0.5482
   7623SM  H11A 9978   6.968   0.512  17.665  1.1236  1.6891 -3.4182
   7623SM  H11B 9979   7.079   0.416  17.760 -0.3856  0.3668  0.0844
   7623SM     P 9980   7.211   0.293  17.565 -0.2114 -0.0894 -0.5262
   7623SM   O13 9981   7.338   0.352  17.608 -0.0587  0.7632 -0.3855
   7623SM   O14 9982   7.151   0.177  17.646  0.3964 -0.5044  0.6822
   7623SM   O11 9983   7.226   0.245  17.412  1.0089  0.0079  0.0225
   7623SM   O12 9984   7.105   0.410  17.548  0.0531  0.0737  0.5683
   7623SM   C1S 9985   7.104   0.199  17.344  0.4105 -0.0951 -0.1663
   7623SM   H1S 9986   7.051   0.286  17.300  0.9442  0.9923  1.2375
   7623SM   H1T 9987   7.033   0.151  17.415 -0.6719  2.1369  0.3409
   7623SM    NF 9988   7.001   0.103  17.137  0.2926 -0.0744  0.0829
   7623SM   HNF 9989   6.926   0.058  17.185  0.4527 -1.2688 -0.7318
   7623SM   C2S 9990   7.121   0.107  17.222 -0.2474  0.4538 -0.1144
   7623SM   H2S 9991   7.202   0.160  17.167  0.0184  0.7314  0.5329
   7623SM   C3S 9992   7.184  -0.028  17.260  0.6777  0.3086  0.0055
   7623SM   H3S 9993   7.108  -0.093  17.310  1.0052 -0.1949 -0.1398
   7623SM    O3 9994   7.302  -0.003  17.344 -0.3662  0.1134 -0.2513
   7623SM   HO3 9995   7.275   0.086  17.370  0.1025  0.1578  0.0879
   7623SM   C4S 9996   7.228  -0.110  17.142  0.1512 -0.5074 -0.1862
   7623SM   H4S 9997   7.294  -0.066  17.065 -2.9679  0.8835 -2.2698
   7623SM   C5S 9998   7.191  -0.236  17.115 -0.8289  0.6976 -0.0588
   7623SM   H5S 9999   7.121  -0.292  17.177  0.0108  1.1185  1.3101
   7623SM   C6S10000   7.237  -0.319  16.995  0.6353 -0.5993  0.6052
   7623SM   H6S10001   7.144  -0.351  16.943 -0.3560  0.9956  1.3278
   7623SM   H6T10002   7.277  -0.419  17.023  1.2577 -1.1770 -2.1381
   7623SM   C7S10003   7.315  -0.247  16.880 -0.2027 -0.1615  0.6474
   7623SM   H7S10004   7.424  -0.255  16.900  0.2443 -0.3758 -1.6546
   7623SM   H7T10005   7.269  -0.146  16.872 -1.3175 -0.7141 -0.1510
   7623SM   C8S10006   7.317  -0.329  16.749  0.3560 -0.2513  0.8474
   7623SM   H8S10007   7.398  -0.292  16.683  2.4375 -3.2673  1.5413
   7623SM   H8T10008   7.217  -0.313  16.702  1.1797 -0.4744 -1.0846
   7623SM   C9S10009   7.343  -0.482  16.761  0.0652 -0.1045  0.2054
   7623SM   H9S10010   7.270  -0.527  16.832  1.6082 -0.7380  1.4769
   7623SM   H9T10011   7.442  -0.496  16.810  2.3271  0.6248 -3.7664
   7623SM  C10S10012   7.343  -0.560  16.626 -0.3544  0.1821 -0.3136
   7623SM  H10S10013   7.236  -0.585  16.607 -0.3158 -0.6410  0.5106
   7623SM  H10T10014   7.394  -0.655  16.652 -0.1452 -0.5977 -3.2150
   7623SM  C11S10015   7.417  -0.499  16.505  0.0677 -0.1826  0.8206
   7623SM  H11S10016   7.525  -0.485  16.525  0.3358  0.2818 -0.8104
   7623SM  H11T10017   7.372  -0.398  16.493 -1.5084 -1.0521 -1.2459
   7623SM  C12S10018   7.388  -0.573  16.369  0.2953 -0.1284 -0.2689
   7623SM  H12S10019   7.278  -0.584  16.361 -0.0630  2.8190 -0.7148
   7623SM  H12T10020   7.419  -0.678  16.382  1.0431  0.1767  0.5203
   7623SM  C13S10021   7.456  -0.509  16.254  0.3184  0.4907 -0.7826
   7623SM  H13S10022   7.566  -0.504  16.271  0.4210 -1.8403 -0.4348
   7623SM  H13T10023   7.424  -0.403  16.248 -1.0113  0.1304 -0.3270
   7623SM  C14S10024   7.418  -0.579  16.117 -0.1866  0.3953 -0.4707
   7623SM  H14S10025   7.307  -0.575  16.113 -0.3410 -1.2192  0.8896
   7623SM  H14T10026   7.438  -0.689  16.126 -2.3388 -0.1977 -2.1458
   7623SM  C15S10027   7.471  -0.512  15.985 -0.1857  0.3677 -0.1745
   7623SM  H15S10028   7.433  -0.572  15.899  0.2258 -2.7007  1.6574
   7623SM  H15T10029   7.581  -0.526  15.971 -0.1877  0.9993 -0.9090
   7623SM  C16S10030   7.424  -0.370  15.955 -0.3110  0.1826 -0.5181
   7623SM  H16S10031   7.470  -0.308  16.034  1.0858  0.6586 -1.6549
   7623SM  H16T10032   7.315  -0.380  15.971 -0.3845  1.6852  0.0764
   7623SM  C17S10033   7.448  -0.320  15.811  0.0253  0.1002  0.4404
   7623SM  H17S10034   7.553  -0.340  15.782 -0.7198 -0.8020 -1.8292
   7623SM  H17T10035   7.426  -0.211  15.816 -1.5006 -0.1402 -0.5128
   7623SM  C18S10036   7.348  -0.368  15.714 -0.3428 -0.0129 -0.0709
   7623SM  H18S10037   7.357  -0.472  15.676 -1.0389  0.9514 -3.1425
   7623SM  H18T10038   7.369  -0.321  15.616  0.7395 -0.8356 -0.2518
   7623SM  H18U10039   7.244  -0.343  15.744 -0.9832 -2.0695 -0.4013
   7623SM   C1F10040   6.967   0.200  17.051  0.5443  0.2335 -0.1279
   7623SM    OF10041   7.035   0.300  17.029  0.5034  0.3413  0.2770
   7623SM   C2F10042   6.827   0.186  17.001  0.9963  0.1323  0.4985
   7623SM   H2F10043   6.771   0.275  17.036 -1.3624 -0.4607 -1.4732
   7623SM   H2G10044   6.789   0.092  17.045  1.7464  0.0518  0.9865
   7623SM   C3F10045   6.815   0.164  16.844  0.3664  0.2639  0.3061
   7623SM   H3F10046   6.832   0.264  16.799  0.1713  0.3196  0.3579
   7623SM   H3G10047   6.714   0.126  16.816  0.9188 -2.4648  1.6513
   7623SM   C4F10048   6.919   0.061  16.800  0.2999 -0.0647 -0.4560
   7623SM   H4F10049   6.913  -0.017  16.879  1.5953  1.6188  1.4229
   7623SM   H4G10050   7.021   0.105  16.796  0.8540 -1.1603  0.7150
   7623SM   C5F10051   6.887  -0.004  16.664  0.0284  0.3572 -0.1799
   7623SM   H5F10052   6.866   0.071  16.585 -0.1656 -0.3062 -0.7605
   7623SM   H5G10053   6.787  -0.048  16.679  0.0303  0.4513  0.1206
   7623SM   C6F10054   6.994  -0.102  16.612  0.2464 -0.0443 -0.3485
   7623SM   H6F10055   6.991  -0.189  16.682  2.1555  1.3420  1.5862
   7623SM   H6G10056   7.090  -0.047  16.611  0.0781  0.3285  1.2472
   7623SM   C7F10057   6.947  -0.134  16.467 -0.0861  0.4695 -0.0039
   7623SM   H7F10058   6.931  -0.041  16.408  0.1097  1.4806  1.4703
   7623SM   H7G10059   6.851  -0.190  16.469  0.4907 -0.5485 -0.3970
   7623SM   C8F10060   7.040  -0.232  16.390  0.2538  0.1383  0.3112
   7623SM   H8F10061   7.051  -0.333  16.436 -0.7454  0.2319  0.7760
   7623SM   H8G10062   7.135  -0.178  16.373 -1.1079  2.1142 -1.6442
   7623SM   C9F10063   6.979  -0.256  16.249  0.8479 -0.2055 -1.1006
   7623SM   H9F10064   6.938  -0.157  16.218 -0.8432 -0.1990  0.9415
   7623SM   H9G10065   6.891  -0.321  16.266 -0.3564  1.7259  0.5178
   7623SM  C10F10066   7.077  -0.321  16.154 -0.7602  0.0323  0.3909
   7623SM  H10F10067   7.098  -0.420  16.200  3.3047  0.7664  0.5343
   7623SM  H10G10068   7.176  -0.270  16.157 -0.3000 -0.8499  0.8204
   7623SM  C11F10069   7.022  -0.334  16.006  0.0439 -0.0298 -0.3365
   7623SM  H11F10070   6.918  -0.371  15.998  0.6578 -2.2743  1.2405
   7623SM  H11G10071   7.079  -0.409  15.948  1.1525  0.2321  0.3803
   7623SM  C12F10072   7.022  -0.198  15.927 -0.1590  0.2414  0.2994
   7623SM  H12F10073   7.125  -0.159  15.916  0.3234 -1.1833 -0.5256
   7623SM  H12G10074   6.970  -0.125  15.992 -2.1247 -1.5299  0.8496
   7623SM  C13F10075   6.959  -0.203  15.786 -0.3894  0.4304 -0.4014
   7623SM  H13F10076   6.854  -0.239  15.796  0.5866 -2.3618  0.6166
   7623SM  H13G10077   7.006  -0.285  15.728 -0.0592 -0.4703  1.0978
   7623SM  C14F10078   6.965  -0.063  15.722 -0.5899  0.4993 -0.0233
   7623SM  H14F10079   7.070  -0.026  15.718 -0.3331 -0.2784 -0.7795
   7623SM  H14G10080   6.913   0.002  15.795 -0.4866  0.6668 -0.0997
   7623SM  C15F10081   6.905  -0.047  15.584  0.3801  0.3170 -0.7642
   7623SM  H15F10082   6.958  -0.115  15.514 -1.6274 -1.8453 -0.3249
   7623SM  H15G10083   6.908   0.058  15.546 -1.0761  0.2058 -1.2771
   7623SM  C16F10084   6.762  -0.086  15.581 -0.1801 -0.3153 -0.0403
   7623SM  H16F10085   6.706  -0.025  15.655 -0.2067  0.7468 -0.9160
   7623SM  H16G10086   6.747  -0.190  15.616  1.7084 -0.5515  0.1656
   7623SM  C17F10087   6.692  -0.062  15.453  0.2253 -0.0252  0.0218
   7623SM  H17F10088   6.667   0.046  15.439 -0.0829 -0.2358 -1.0992
   7623SM  H17G10089   6.593  -0.113  15.460 -0.2530  0.6671 -1.3203
   7623SM  C18F10090   6.771  -0.105  15.325  0.0740 -0.3458  0.3235
   7623SM  H18F10091   6.847  -0.034  15.287  0.1958 -0.5500  0.1829
   7623SM  H18G10092   6.687  -0.101  15.252  0.0650 -1.1194  0.2870
   7623SM  C19F10093   6.829  -0.248  15.329  0.3212  0.5480 -0.9433
   7623SM  H19F10094   6.791  -0.327  15.398 -0.6670  0.7400 -1.2523
   7623SM  H19G10095   6.936  -0.234  15.359  0.2026 -0.0400 -0.1832
   7623SM  C20F10096   6.822  -0.300  15.188  0.4853  0.3035  0.1435
   7623SM  H20F10097   6.878  -0.250  15.107 -1.0832  0.8004 -0.6750
   7623SM  H20G10098   6.717  -0.280  15.156 -0.8635 -2.5983  2.1958
   7623SM  C21F10099   6.822  -0.450  15.182  0.0144 -0.0450  0.5477
   7623SM  H21F10100   6.733  -0.492  15.233 -2.0236  0.5870 -2.2036
   7623SM  H21G10101   6.913  -0.500  15.223 -1.0230 -2.9020 -0.3841
   7623SM  C22F10102   6.825  -0.506  15.030 -0.2733 -0.0340 -0.1601
   7623SM  H22F10103   6.846  -0.615  15.025  0.2672  0.1092 -1.2683
   7623SM  H22G10104   6.902  -0.454  14.970 -1.6109 -0.6388 -2.5204
   7623SM  C23F10105   6.682  -0.486  14.971 -0.1044 -0.0522 -0.1102
   7623SM  H23F10106   6.605  -0.531  15.037 -1.6530  2.3907 -0.1075
   7623SM  H23G10107   6.685  -0.527  14.869  1.9422 -0.8113  0.2177
   7623SM  H23H10108   6.659  -0.377  14.968  1.2146  0.2512  0.0484
   7723SM     N10109   0.805   2.953  17.661  0.1048  0.4198  0.8769
   7723SM   C1510110   0.945   2.973  17.713 -0.0951  0.1720  0.1130
   7723SM  H15A10111   0.985   3.072  17.705 -0.2054  0.2639  0.6834
   7723SM  H15B10112   1.016   2.911  17.660  0.3834  0.4081  0.4694
   7723SM  H15C10113   0.956   2.927  17.810 -2.3926 -2.5634 -0.7448
   7723SM   C1410114   0.763   2.811  17.699 -0.5988 -1.0544 -0.7704
   7723SM  H14A10115   0.807   2.751  17.620 -2.3004  1.0409 -3.4585
   7723SM  H14B10116   0.656   2.799  17.705 -0.8348  1.2895  1.3382
   7723SM  H14C10117   0.810   2.790  17.794  0.5158 -2.6382 -1.6245
   7723SM   C1310118   0.723   3.046  17.741  0.5270  0.4330  0.5016
   7723SM  H13A10119   0.761   3.049  17.842 -0.0730 -0.5419  0.7644
   7723SM  H13B10120   0.624   3.003  17.743  0.2957  0.8159 -1.2684
   7723SM  H13C10121   0.721   3.143  17.693 -0.0707 -0.7278 -1.9499
   7723SM   C1210122   0.811   2.969  17.511  0.3643  0.1127 -0.5285
   7723SM  H12A10123   0.898   2.922  17.466  0.2490 -1.2417  0.5932
   7723SM  H12B10124   0.815   3.074  17.486 -0.0589  0.6290  1.4100
   7723SM   C1110125   0.689   2.916  17.433  0.4028  0.4698  0.6136
   7723SM  H11A10126   0.688   2.808  17.409  0.5640  0.6149 -0.0503
   7723SM  H11B10127   0.713   2.961  17.335  0.7766  0.0429  0.5057
   7723SM     P10128   0.437   2.876  17.483 -0.1540 -0.2343  0.2451
   7723SM   O1310129   0.455   2.762  17.570  0.0839 -0.0816  0.4926
   7723SM   O1410130   0.322   2.965  17.519 -0.2378  0.0645 -0.2178
   7723SM   O1110131   0.424   2.838  17.334 -0.5366  0.2743  0.0377
   7723SM   O1210132   0.567   2.966  17.486 -0.0218 -0.2023 -0.5595
   7723SM   C1S10133   0.308   2.884  17.264  0.2696 -0.0948 -0.8151
   7723SM   H1S10134   0.313   2.995  17.275  0.8013 -0.3444  2.2987
   7723SM   H1T10135   0.213   2.854  17.314  0.5899 -0.5464 -0.4805
   7723SM    NF10136   0.169   2.887  17.072  0.0183 -0.1984  0.3624
   7723SM   HNF10137   0.115   2.818  17.023 -1.5988  1.6385 -0.5922
   7723SM   C2S10138   0.297   2.846  17.120 -0.4485  0.2716 -0.5380
   7723SM   H2S10139   0.380   2.900  17.069  1.4593 -0.5705  1.5010
   7723SM   C3S10140   0.337   2.698  17.095  0.0960 -0.4018  0.4648
   7723SM   H3S10141   0.263   2.630  17.143 -0.7272  0.7723  0.9005
   7723SM    O310142   0.460   2.654  17.153 -0.1560 -0.0598  0.5774
   7723SM   HO310143   0.490   2.727  17.208 -0.8056  0.1792  0.6249
   7723SM   C4S10144   0.327   2.663  16.947 -0.6581  0.0496 -1.0071
   7723SM   H4S10145   0.223   2.650  16.915 -0.2096 -3.1850 -1.5554
   7723SM   C5S10146   0.417   2.643  16.851  0.2303 -0.3329 -0.6526
   7723SM   H5S10147   0.524   2.653  16.875  0.3884  0.4096 -1.6085
   7723SM   C6S10148   0.385   2.596  16.708 -0.6885 -0.2871  1.1825
   7723SM   H6S10149   0.286   2.546  16.708 -0.2464 -1.3163 -1.2720
   7723SM   H6T10150   0.455   2.517  16.674 -2.1515 -1.2808  0.4049
   7723SM   C7S10151   0.385   2.724  16.618  0.5260  0.3882  0.3863
   7723SM   H7S10152   0.482   2.777  16.632  0.8215 -0.4476  1.7143
   7723SM   H7T10153   0.304   2.793  16.649  0.4132  0.4577 -0.0626
   7723SM   C8S10154   0.362   2.700  16.469 -0.2196 -0.2332  0.8870
   7723SM   H8S10155   0.397   2.788  16.410 -2.5868 -0.2842 -0.7159
   7723SM   H8T10156   0.252   2.697  16.454  0.0168 -0.0564 -1.1517
   7723SM   C9S10157   0.444   2.579  16.421  0.1881 -0.2160  0.2778
   7723SM   H9S10158   0.394   2.481  16.441  0.9796 -0.2073  2.6675
   7723SM   H9T10159   0.548   2.581  16.459 -0.3034 -0.6939  1.7286
   7723SM  C10S10160   0.462   2.581  16.267  0.0265 -0.1203 -0.1027
   7723SM  H10S10161   0.517   2.677  16.265  1.8241 -1.1122 -0.3047
   7723SM  H10T10162   0.362   2.581  16.219  0.1089  2.5350 -0.4339
   7723SM  C11S10163   0.543   2.458  16.215 -0.3127  0.8628  0.7100
   7723SM  H11S10164   0.498   2.360  16.240 -1.4413  0.1847 -3.2807
   7723SM  H11T10165   0.643   2.453  16.262 -0.8392 -0.5634  1.7636
   7723SM  C12S10166   0.566   2.459  16.063 -0.1295 -0.3225 -0.2407
   7723SM  H12S10167   0.613   2.556  16.035  0.1875 -0.0840  1.0521
   7723SM  H12T10168   0.463   2.455  16.021 -0.4393 -0.5968  0.5230
   7723SM  C13S10169   0.649   2.339  16.006 -0.2064  0.0068 -0.0134
   7723SM  H13S10170   0.619   2.236  16.038  0.1157 -0.7043 -1.8943
   7723SM  H13T10171   0.756   2.359  16.027 -0.7701  0.6059  2.7155
   7723SM  C14S10172   0.647   2.327  15.852  0.5414 -0.4364 -0.6681
   7723SM  H14S10173   0.541   2.299  15.834  0.7486 -1.9409  0.3109
   7723SM  H14T10174   0.715   2.242  15.830  2.6002  0.1976  2.5376
   7723SM  C15S10175   0.687   2.458  15.772  0.2499  0.7073  0.2760
   7723SM  H15S10176   0.792   2.476  15.803  0.7813 -4.2921  2.3846
   7723SM  H15T10177   0.618   2.543  15.792 -1.1748 -0.5232  0.7815
   7723SM  C16S10178   0.695   2.422  15.622 -0.1635  0.4050  0.0050
   7723SM  H16S10179   0.597   2.376  15.599  0.0240  1.2779 -2.8997
   7723SM  H16T10180   0.774   2.345  15.607  0.0546  0.8939 -1.5002
   7723SM  C17S10181   0.697   2.542  15.523 -0.0902  0.4350 -0.4228
   7723SM  H17S10182   0.779   2.609  15.556 -1.8856  2.3721  0.3234
   7723SM  H17T10183   0.606   2.604  15.533 -0.7624 -0.4836 -0.7456
   7723SM  C18S10184   0.730   2.508  15.370  0.6314 -0.5586  0.2840
   7723SM  H18S10185   0.821   2.567  15.343 -1.0797  2.4413  0.6201
   7723SM  H18T10186   0.657   2.531  15.290  1.0975 -1.7307 -0.5027
   7723SM  H18U10187   0.761   2.402  15.359  0.3214 -0.5812 -0.3979
   7723SM   C1F10188   0.116   3.008  17.067  0.2056  0.0837 -1.0492
   7723SM    OF10189   0.186   3.111  17.096 -0.3498  0.3500  0.1097
   7723SM   C2F10190  -0.022   3.020  17.015 -0.8012  0.0639 -0.2334
   7723SM   H2F10191  -0.075   3.102  17.069  2.6008  0.9380  2.1582
   7723SM   H2G10192  -0.075   2.927  17.045 -1.9198  1.2233  1.5919
   7723SM   C3F10193  -0.039   3.032  16.861 -0.4991 -0.2388  0.0491
   7723SM   H3F10194  -0.143   3.020  16.825  0.1084  0.6804 -2.1459
   7723SM   H3G10195   0.022   2.956  16.808  0.0638  0.4027 -0.2298
   7723SM   C4F10196   0.005   3.166  16.812 -0.8445 -0.3940 -0.1229
   7723SM   H4F10197   0.115   3.178  16.816 -0.4498 -2.3056 -2.5150
   7723SM   H4G10198  -0.053   3.239  16.872  2.5777  0.6042  2.2533
   7723SM   C5F10199  -0.026   3.172  16.658 -0.3463  0.3323  0.0386
   7723SM   H5F10200  -0.133   3.191  16.633 -0.5837 -0.8954  0.0700
   7723SM   H5G10201   0.004   3.074  16.615  3.6233  1.7282 -0.8359
   7723SM   C6F10202   0.051   3.294  16.598 -0.0539 -0.0147  0.1337
   7723SM   H6F10203   0.051   3.385  16.661 -0.3233  1.4535 -1.8814
   7723SM   H6G10204   0.011   3.329  16.500 -1.5717 -0.3039  0.6310
   7723SM   C7F10205   0.196   3.262  16.561 -0.4769  0.1124 -0.0763
   7723SM   H7F10206   0.236   3.196  16.642 -2.5563 -1.4760 -0.2500
   7723SM   H7G10207   0.254   3.357  16.561  0.1932 -0.2752  0.7913
   7723SM   C8F10208   0.214   3.183  16.429 -0.0219  0.1572  0.5906
   7723SM   H8F10209   0.172   3.242  16.345 -0.8191 -1.5627 -0.2743
   7723SM   H8G10210   0.164   3.084  16.434 -2.9381  1.4138 -0.7582
   7723SM   C9F10211   0.356   3.158  16.387 -0.4401  0.5035 -0.1137
   7723SM   H9F10212   0.397   3.259  16.364 -1.5872  0.8095 -0.8574
   7723SM   H9G10213   0.359   3.105  16.290  1.5062  2.2790 -1.1147
   7723SM  C10F10214   0.454   3.093  16.495  0.6465  0.2729  0.3075
   7723SM  H10F10215   0.395   3.007  16.532  0.2150  1.0707  1.5633
   7723SM  H10G10216   0.470   3.166  16.578  0.8452  2.4604 -1.5511
   7723SM  C11F10217   0.594   3.046  16.451 -0.2322  0.0414  0.3979
   7723SM  H11F10218   0.577   2.960  16.382  3.0777 -1.0181  0.7375
   7723SM  H11G10219   0.654   3.018  16.540 -0.7448 -1.8618  0.2001
   7723SM  C12F10220   0.673   3.162  16.379  1.1318  0.3211  0.3775
   7723SM  H12F10221   0.695   3.248  16.446  0.1982  1.7986 -1.1391
   7723SM  H12G10222   0.597   3.193  16.304 -1.5078 -1.3909  2.1733
   7723SM  C13F10223   0.804   3.131  16.306 -0.5441 -0.5785 -0.6175
   7723SM  H13F10224   0.794   3.039  16.245  2.3715 -1.2270 -0.2952
   7723SM  H13G10225   0.886   3.106  16.377 -0.7676 -0.1617 -0.2082
   7723SM  C14F10226   0.846   3.255  16.223 -0.3029  0.2015  0.9300
   7723SM  H14F10227   0.861   3.344  16.288 -1.5879  0.2409  1.1872
   7723SM  H14G10228   0.760   3.284  16.159  0.7037  0.7865 -0.2102
   7723SM  C15F10229   0.994   3.240  16.158 -0.1704  0.8222 -0.2136
   7723SM  H15F10230   0.981   3.183  16.064  0.9559 -0.3464  0.3011
   7723SM  H15G10231   1.065   3.178  16.218 -0.4180 -1.4680 -2.1487
   7723SM  C16F10232   1.051   3.383  16.142  0.7751 -0.1673 -0.1210
   7723SM  H16F10233   1.072   3.426  16.242  1.3147 -0.4548 -0.1072
   7723SM  H16G10234   0.975   3.456  16.107  1.1403  0.2678 -0.0134
   7723SM  C17F10235   1.175   3.390  16.051  0.6646  0.4817  0.2747
   7723SM  H17F10236   1.259   3.343  16.106 -0.6929 -2.0597  0.3350
   7723SM  H17G10237   1.208   3.496  16.047  0.6324  0.4688 -0.4830
   7723SM  C18F10238   1.169   3.331  15.906 -0.6098  0.5329 -0.1707
   7723SM  H18F10239   1.084   3.380  15.854  0.4688  0.3786 -2.2273
   7723SM  H18G10240   1.151   3.222  15.905  0.1744  0.3972 -0.1073
   7723SM  C19F10241   1.299   3.361  15.833  0.0152  0.4682  0.6635
   7723SM  H19F10242   1.328   3.468  15.838  0.6952  0.2433  1.9734
   7723SM  H19G10243   1.282   3.336  15.726  0.3564 -1.4948  1.0299
   7723SM  C20F10244   1.423   3.276  15.882 -0.1927  0.5388  1.0388
   7723SM  H20F10245   1.408   3.166  15.873  0.2595  0.5655 -0.2892
   7723SM  H20G10246   1.432   3.297  15.991 -2.1320 -0.5733  1.4679
   7723SM  C21F10247   1.541   3.310  15.789  0.4346  0.0592  0.3949
   7723SM  H21F10248   1.562   3.417  15.811  1.2607  0.0220 -0.1556
   7723SM  H21G10249   1.510   3.283  15.686 -1.3274  1.5749  0.4760
   7723SM  C22F10250   1.666   3.234  15.812 -0.4868  0.0790 -0.2355
   7723SM  H22F10251   1.662   3.124  15.803  1.6584 -0.3517  2.5716
   7723SM  H22G10252   1.680   3.236  15.923  1.7193  1.0331 -0.4708
   7723SM  C23F10253   1.793   3.291  15.744 -0.4861  0.5672  0.1039
   7723SM  H23F10254   1.774   3.296  15.635  1.6409 -1.1324 -0.4129
   7723SM  H23G10255   1.887   3.237  15.767 -0.6945  0.0760 -0.1942
   7723SM  H23H10256   1.807   3.397  15.776  0.4904  0.7309 -0.8042
   7823SM     N10257   1.166   0.962  17.177 -0.3886 -0.7720  0.4545
   7823SM   C1510258   1.210   1.103  17.202 -0.5700  0.3079 -0.2173
   7823SM  H15A10259   1.313   1.120  17.175  0.2427 -0.5168  2.1220
   7823SM  H15B10260   1.196   1.115  17.308  0.5421  1.3056 -0.1605
   7823SM  H15C10261   1.150   1.173  17.147  0.0255  0.6142 -0.4928
   7823SM   C1410262   1.014   0.960  17.191  0.6938  0.2169  0.3382
   7823SM  H14A10263   0.987   1.037  17.120  2.2655 -1.9786 -2.8410
   7823SM  H14B10264   0.978   0.966  17.293  2.1901 -2.0559  1.0678
   7823SM  H14C10265   0.969   0.869  17.155  0.3706  0.4435  0.1598
   7823SM   C1310266   1.200   0.929  17.031 -0.0438 -0.2071  1.0151
   7823SM  H13A10267   1.307   0.926  17.020 -0.1228  0.0280  0.1367
   7823SM  H13B10268   1.158   1.003  16.965 -0.5726 -1.6634 -0.3611
   7823SM  H13C10269   1.177   0.826  17.008  2.1718 -0.3879 -0.6359
   7823SM   C1210270   1.232   0.870  17.277  0.3546  0.6132 -0.2624
   7823SM  H12A10271   1.190   0.894  17.374  2.1227 -1.6371  1.1642
   7823SM  H12B10272   1.339   0.884  17.283  0.7203 -1.4529 -1.1884
   7823SM   C1110273   1.208   0.716  17.246 -0.0242 -0.4300  0.0641
   7823SM  H11A10274   1.099   0.698  17.243  0.0873 -1.1992  0.3818
   7823SM  H11B10275   1.255   0.664  17.332 -1.0325 -0.5292  0.5625
   7823SM     P10276   1.293   0.529  17.084  0.3020  0.1585  0.1996
   7823SM   O1310277   1.433   0.507  17.039 -0.3205 -0.3603 -0.2947
   7823SM   O1410278   1.236   0.436  17.185  0.0945 -0.4375  0.2570
   7823SM   O1110279   1.194   0.519  16.959 -0.0134  0.2201 -0.1801
   7823SM   O1210280   1.271   0.678  17.127 -0.9093 -0.0598 -0.1059
   7823SM   C1S10281   1.056   0.541  16.992 -0.2306  0.0526 -0.1485
   7823SM   H1S10282   1.038   0.643  17.032 -0.6743 -0.7014  1.7130
   7823SM   H1T10283   1.008   0.462  17.054 -0.6233 -0.2128 -0.7798
   7823SM    NF10284   0.821   0.546  16.898 -0.1800  0.4582  0.4749
   7823SM   HNF10285   0.769   0.468  16.865  1.4773  0.2354 -1.8442
   7823SM   C2S10286   0.960   0.524  16.867 -0.5011  0.3574  0.3111
   7823SM   H2S10287   0.991   0.604  16.796 -0.9287 -0.1669 -0.4839
   7823SM   C3S10288   0.983   0.386  16.791  0.2101  0.2834  0.5092
   7823SM   H3S10289   0.939   0.307  16.856  2.0103  2.0211  4.1197
   7823SM    O310290   1.123   0.344  16.784  0.0078  0.0015  0.2324
   7823SM   HO310291   1.160   0.411  16.843 -0.0108  2.3282 -2.2234
   7823SM   C4S10292   0.911   0.379  16.658 -0.4359  0.1707 -0.0971
   7823SM   H4S10293   0.834   0.301  16.661  0.5069 -0.7830 -0.3482
   7823SM   C5S10294   0.944   0.443  16.543 -0.5071  0.0171  0.7618
   7823SM   H5S10295   1.038   0.500  16.536 -0.9642  1.0080  2.1767
   7823SM   C6S10296   0.878   0.426  16.411 -0.1517  0.6107  0.6731
   7823SM   H6S10297   0.809   0.511  16.391 -0.1790  0.7793  1.4816
   7823SM   H6T10298   0.827   0.327  16.410 -1.0462  1.0598  0.7828
   7823SM   C7S10299   0.968   0.426  16.288  0.1143 -0.2038 -0.1535
   7823SM   H7S10300   1.050   0.353  16.302  0.7894  0.3864 -0.9695
   7823SM   H7T10301   1.013   0.526  16.267 -0.8334  0.8052  2.2207
   7823SM   C8S10302   0.898   0.378  16.160 -0.3571  0.1144 -0.5885
   7823SM   H8S10303   0.918   0.452  16.080  0.6706  1.0002  0.4555
   7823SM   H8T10304   0.788   0.380  16.175 -0.4319 -0.6172 -1.0031
   7823SM   C9S10305   0.947   0.239  16.106  0.2017  0.3991  1.1552
   7823SM   H9S10306   0.944   0.167  16.191 -1.6487  0.8215  1.4982
   7823SM   H9T10307   1.047   0.244  16.058 -0.8127 -1.0061 -1.2753
   7823SM  C10S10308   0.859   0.181  15.997  0.1443  0.3011  0.0794
   7823SM  H10S10309   0.844   0.254  15.914  1.4292  1.9901  1.2730
   7823SM  H10T10310   0.758   0.172  16.043  0.3839  0.8034  0.7206
   7823SM  C11S10311   0.907   0.041  15.962  0.1779  0.4484 -0.4684
   7823SM  H11S10312   0.820  -0.007  15.911 -0.8253 -1.9099  3.0886
   7823SM  H11T10313   0.918  -0.020  16.054  0.6160 -0.3551 -1.0375
   7823SM  C12S10314   1.021   0.044  15.855 -0.0462  0.1341  0.2636
   7823SM  H12S10315   1.112   0.086  15.905  0.9863  0.1585 -1.5510
   7823SM  H12T10316   0.996   0.115  15.773  0.0845  0.6586  0.6678
   7823SM  C13S10317   1.061  -0.094  15.803 -0.2640  0.1687  0.2534
   7823SM  H13S10318   0.970  -0.143  15.760 -2.2845  3.0791  0.9076
   7823SM  H13T10319   1.089  -0.145  15.897  0.0466  0.7723  0.4905
   7823SM  C14S10320   1.171  -0.100  15.689 -0.4754 -0.2434 -0.3287
   7823SM  H14S10321   1.265  -0.061  15.734  0.3405 -0.9796 -1.3546
   7823SM  H14T10322   1.135  -0.029  15.610  0.2221  1.3984  0.7814
   7823SM  C15S10323   1.193  -0.244  15.627 -0.2151  1.1406 -0.6320
   7823SM  H15S10324   1.101  -0.283  15.579  0.7874  1.1829 -2.6638
   7823SM  H15T10325   1.226  -0.319  15.702 -0.2088 -2.1050 -3.6257
   7823SM  C16S10326   1.300  -0.239  15.521  0.0682  0.6759  0.6396
   7823SM  H16S10327   1.402  -0.217  15.559  1.3114 -1.8145 -0.9623
   7823SM  H16T10328   1.273  -0.161  15.446 -3.0715 -0.5153  0.3959
   7823SM  C17S10329   1.324  -0.379  15.445 -0.2924 -0.6329  0.6977
   7823SM  H17S10330   1.232  -0.409  15.391  0.9799 -0.5548 -1.6319
   7823SM  H17T10331   1.334  -0.445  15.534 -1.7530 -1.5838  0.1789
   7823SM  C18S10332   1.444  -0.387  15.346  0.1502  0.3652 -0.0889
   7823SM  H18S10333   1.406  -0.351  15.249 -0.1379 -1.0561 -0.5211
   7823SM  H18T10334   1.498  -0.484  15.350 -1.9028 -0.8498 -0.5583
   7823SM  H18U10335   1.503  -0.301  15.386 -1.0019 -0.0742  2.8489
   7823SM   C1F10336   0.772   0.659  16.950  0.1641  0.2462  0.3399
   7823SM    OF10337   0.833   0.764  16.967  0.0253  0.6109 -0.1221
   7823SM   C2F10338   0.625   0.666  16.982 -0.5478  0.5637 -0.1507
   7823SM   H2F10339   0.627   0.670  17.093  2.6884 -1.0992 -0.0447
   7823SM   H2G10340   0.584   0.565  16.962  0.2686  0.0922  0.5050
   7823SM   C3F10341   0.550   0.779  16.909  0.1958 -0.4935  0.0559
   7823SM   H3F10342   0.601   0.875  16.931  1.6983 -1.5962  1.7126
   7823SM   H3G10343   0.453   0.787  16.962  0.8585 -0.7504  1.3575
   7823SM   C4F10344   0.523   0.759  16.762 -0.1930 -0.8091  0.5007
   7823SM   H4F10345   0.463   0.668  16.740  2.0239 -2.2172 -0.0510
   7823SM   H4G10346   0.616   0.745  16.703 -0.5014 -2.9060  0.4483
   7823SM   C5F10347   0.433   0.862  16.684 -0.5996  0.3342 -1.2188
   7823SM   H5F10348   0.478   0.963  16.675 -2.3564  1.2240 -0.5831
   7823SM   H5G10349   0.342   0.888  16.743  0.1140 -0.7674  0.4711
   7823SM   C6F10350   0.385   0.809  16.544  0.0563  0.3087 -0.4594
   7823SM   H6F10351   0.316   0.879  16.492 -0.1666  0.5847  0.1984
   7823SM   H6G10352   0.332   0.711  16.551  2.2647 -0.8695  0.8505
   7823SM   C7F10353   0.501   0.801  16.446  0.0925  0.1001  0.4956
   7823SM   H7F10354   0.577   0.727  16.477  0.7941  0.3278 -0.6327
   7823SM   H7G10355   0.545   0.903  16.439  0.6937 -0.1755  0.2478
   7823SM   C8F10356   0.455   0.753  16.309  0.4003  0.2329 -0.1910
   7823SM   H8F10357   0.384   0.827  16.268  0.7534  1.8983  2.0014
   7823SM   H8G10358   0.409   0.655  16.335 -1.9102  1.4325  0.4688
   7823SM   C9F10359   0.577   0.728  16.219 -0.2632  0.0809  0.8055
   7823SM   H9F10360   0.643   0.647  16.259 -1.0891 -3.0049 -3.3708
   7823SM   H9G10361   0.626   0.827  16.209 -1.1441  0.3636 -1.3036
   7823SM  C10F10362   0.542   0.680  16.079 -0.8997  0.0834  0.3489
   7823SM  H10F10363   0.471   0.750  16.030  0.0358  0.0114 -1.1650
   7823SM  H10G10364   0.498   0.578  16.082  1.2015 -0.8510  2.1929
   7823SM  C11F10365   0.673   0.671  15.993 -0.2545 -0.8798 -0.1930
   7823SM  H11F10366   0.723   0.575  16.020  0.0252 -1.1388 -1.5385
   7823SM  H11G10367   0.733   0.759  16.023 -1.2897 -0.6877  1.4070
   7823SM  C12F10368   0.648   0.667  15.842 -0.1006  0.6341  0.1047
   7823SM  H12F10369   0.743   0.638  15.791  0.1891 -0.2350  1.1056
   7823SM  H12G10370   0.613   0.762  15.798 -0.1022 -0.3331 -2.1351
   7823SM  C13F10371   0.558   0.557  15.803 -0.3075  0.1890 -0.8129
   7823SM  H13F10372   0.453   0.569  15.836  0.4257  1.6299  1.2895
   7823SM  H13G10373   0.590   0.459  15.844 -1.9070 -0.1002 -0.2030
   7823SM  C14F10374   0.551   0.539  15.649  0.4893  0.4805 -0.0347
   7823SM  H14F10375   0.636   0.469  15.628 -0.2429 -0.2470 -0.6520
   7823SM  H14G10376   0.556   0.635  15.594 -1.2558  0.9774  0.6098
   7823SM  C15F10377   0.434   0.445  15.597 -0.0767 -0.0012  0.1033
   7823SM  H15F10378   0.343   0.503  15.625  0.7851  0.8970  1.0876
   7823SM  H15G10379   0.423   0.355  15.661  0.6305  1.1445  1.8826
   7823SM  C16F10380   0.436   0.409  15.446  0.6490  0.6551 -0.3752
   7823SM  H16F10381   0.517   0.340  15.415 -1.5782 -2.2011 -0.2778
   7823SM  H16G10382   0.447   0.499  15.382  0.7317 -0.4638 -1.9780
   7823SM  C17F10383   0.308   0.330  15.417 -0.2823 -0.8605 -0.5906
   7823SM  H17F10384   0.286   0.238  15.477 -3.4551  1.2011  1.7960
   7823SM  H17G10385   0.312   0.295  15.312 -0.9516  2.1219 -1.7151
   7823SM  C18F10386   0.180   0.419  15.415  0.7945  0.4683 -0.7098
   7823SM  H18F10387   0.121   0.406  15.322 -0.8193  0.5398  0.2630
   7823SM  H18G10388   0.205   0.527  15.426 -1.3295  0.8892  0.5027
   7823SM  C19F10389   0.074   0.383  15.526 -0.4295 -0.0614 -0.1570
   7823SM  H19F10390   0.126   0.407  15.621  1.1443 -0.4899 -0.8750
   7823SM  H19G10391   0.046   0.275  15.524  0.8765 -0.4122 -0.4186
   7823SM  C20F10392  -0.051   0.463  15.525 -0.0711 -0.8832 -0.3785
   7823SM  H20F10393  -0.111   0.423  15.609 -1.2917 -0.4342 -1.0138
   7823SM  H20G10394  -0.098   0.445  15.426  0.8953 -1.2006 -0.7937
   7823SM  C21F10395  -0.033   0.614  15.535  0.5739  0.1019 -0.8096
   7823SM  H21F10396   0.036   0.650  15.455  1.5373  0.9865  0.3859
   7823SM  H21G10397   0.017   0.637  15.632 -1.3509 -3.7885  1.3429
   7823SM  C22F10398  -0.169   0.687  15.533 -0.1423  0.2759  0.1930
   7823SM  H22F10399  -0.215   0.665  15.434  0.4200 -1.0173  0.1942
   7823SM  H22G10400  -0.161   0.795  15.555 -2.7788  1.0728 -2.1533
   7823SM  C23F10401  -0.273   0.634  15.636 -0.0169  0.3665 -0.0991
   7823SM  H23F10402  -0.233   0.622  15.739  3.3621 -2.2414 -1.5035
   7823SM  H23G10403  -0.318   0.537  15.607  2.6013 -0.4169 -1.9458
   7823SM  H23H10404  -0.355   0.710  15.634  0.0426  0.5695  2.4106
   7923SM     N10405   6.222   2.040  17.497 -0.4022  0.3695  0.6267
   7923SM   C1510406   6.356   2.056  17.556 -0.2804  0.5797  0.5115
   7923SM  H15A10407   6.357   2.035  17.662  0.2233  3.1770  1.0786
   7923SM  H15B10408   6.389   2.157  17.540 -1.2949  1.0546  1.3073
   7923SM  H15C10409   6.425   1.995  17.500  1.5286  1.6137  1.5264
   7923SM   C1410410   6.145   1.937  17.578 -0.4437  0.4284 -0.0884
   7923SM  H14A10411   6.163   1.958  17.682 -0.1780 -1.1790  0.2243
   7923SM  H14B10412   6.195   1.842  17.561  1.2762  1.6011 -2.2331
   7923SM  H14C10413   6.040   1.941  17.553 -0.3277 -0.4550 -0.7992
   7923SM   C1310414   6.130   2.163  17.503  0.4989 -0.3900 -0.7199
   7923SM  H13A10415   6.152   2.231  17.422 -0.3132  1.5812  0.6623
   7923SM  H13B10416   6.144   2.220  17.594 -0.0073 -0.0174 -0.8770
   7923SM  H13C10417   6.026   2.138  17.492 -0.1982  2.5875 -1.6856
   7923SM   C1210418   6.238   1.993  17.348  0.3712 -0.2752 -0.0100
   7923SM  H12A10419   6.300   1.905  17.339  0.9090  0.0089  0.8307
   7923SM  H12B10420   6.296   2.064  17.290 -1.8175  0.3611 -1.5322
   7923SM   C1110421   6.105   1.968  17.265 -0.0423  0.7320  0.3186
   7923SM  H11A10422   6.123   1.956  17.156  0.7554 -0.5117  0.5780
   7923SM  H11B10423   6.046   2.063  17.268 -0.4678  0.4792  0.0309
   7923SM     P10424   6.055   1.714  17.276 -0.4092 -0.4181 -0.1231
   7923SM   O1310425   6.199   1.683  17.294 -0.1261 -0.5141  0.2232
   7923SM   O1410426   5.953   1.633  17.345 -0.2720 -0.5724  0.1307
   7923SM   O1110427   6.024   1.704  17.116 -0.0497 -0.1365  0.1309
   7923SM   O1210428   6.021   1.867  17.316 -0.4138  0.1216  0.0577
   7923SM   C1S10429   6.019   1.563  17.074 -0.0750 -0.3322  1.1148
   7923SM   H1S10430   5.924   1.519  17.110 -0.9239  1.4305  1.1484
   7923SM   H1T10431   6.104   1.508  17.118 -0.3515  0.8910  3.3033
   7923SM    NF10432   5.956   1.424  16.864  0.4644  0.2706  0.2731
   7923SM   HNF10433   6.027   1.361  16.834  1.1983  0.6698  1.0974
   7923SM   C2S10434   6.018   1.549  16.916  0.7310  0.2596 -0.0551
   7923SM   H2S10435   5.956   1.636  16.886 -0.8784 -0.8947 -0.2268
   7923SM   C3S10436   6.160   1.575  16.867 -0.4229 -0.4039  0.0731
   7923SM   H3S10437   6.225   1.495  16.906 -2.8789 -1.4475  2.2973
   7923SM    O310438   6.214   1.703  16.908 -0.2559 -0.0553  0.0491
   7923SM   HO310439   6.153   1.734  16.976  0.9276  2.3647  0.1118
   7923SM   C4S10440   6.167   1.584  16.711  0.7649  0.1615 -0.2183
   7923SM   H4S10441   6.125   1.490  16.672 -2.8606  1.5080  0.0572
   7923SM   C5S10442   6.204   1.677  16.620  0.3159  0.3095  0.1731
   7923SM   H5S10443   6.228   1.777  16.657  1.9558 -1.0055  3.0413
   7923SM   C6S10444   6.210   1.663  16.470 -0.2408  0.3855  0.0633
   7923SM   H6S10445   6.146   1.741  16.423 -1.5403 -0.2050  0.7941
   7923SM   H6T10446   6.161   1.568  16.437 -1.1088 -0.2752  2.9435
   7923SM   C7S10447   6.355   1.668  16.424  0.4742  0.3855 -0.5701
   7923SM   H7S10448   6.409   1.583  16.471  0.4892  1.5807  1.6622
   7923SM   H7T10449   6.392   1.771  16.442  0.0366  0.9229 -2.5256
   7923SM   C8S10450   6.380   1.668  16.270  0.4228  0.0088 -0.6307
   7923SM   H8S10451   6.309   1.740  16.225  0.1518  0.5095  0.5768
   7923SM   H8T10452   6.335   1.575  16.229 -1.1325  1.1075 -1.5424
   7923SM   C9S10453   6.524   1.703  16.235  0.0120  0.4842 -0.1686
   7923SM   H9S10454   6.593   1.622  16.266  0.4937  0.6278 -0.8693
   7923SM   H9T10455   6.540   1.796  16.294  0.8679  0.2401 -0.0078
   7923SM  C10S10456   6.545   1.721  16.085  0.1793 -0.3180 -0.0378
   7923SM  H10S10457   6.459   1.790  16.073  1.2925  1.4118  1.5426
   7923SM  H10T10458   6.539   1.623  16.033  0.0495 -1.0354  1.2841
   7923SM  C11S10459   6.678   1.780  16.031  0.6758  0.1855  0.1736
   7923SM  H11S10460   6.683   1.794  15.921 -0.3912  2.1077  0.3306
   7923SM  H11T10461   6.752   1.701  16.056 -1.3629 -1.8561  0.1281
   7923SM  C12S10462   6.707   1.917  16.095  0.2606 -0.3391  0.1503
   7923SM  H12S10463   6.709   1.911  16.206 -0.6807 -2.0415  0.1034
   7923SM  H12T10464   6.626   1.989  16.066  0.8085  1.2209  2.1941
   7923SM  C13S10465   6.846   1.979  16.053 -0.1768 -0.3914  0.3947
   7923SM  H13S10466   6.928   1.906  16.064  1.4149  1.2355 -0.1481
   7923SM  H13T10467   6.862   2.053  16.134  1.0078 -1.9005  1.5803
   7923SM  C14S10468   6.855   2.027  15.905 -0.3601 -0.2434  0.6347
   7923SM  H14S10469   6.789   2.115  15.889 -0.6001 -0.4149  0.6914
   7923SM  H14T10470   6.841   1.949  15.827  1.7533 -0.7567  0.6987
   7923SM  C15S10471   7.001   2.085  15.886  0.0449 -0.5517  0.2924
   7923SM  H15S10472   6.997   2.115  15.779 -0.7857  1.9475  0.9669
   7923SM  H15T10473   7.082   2.011  15.905 -1.5407 -2.0032  1.7655
   7923SM  C16S10474   7.033   2.213  15.962  0.0745  0.4265  0.1391
   7923SM  H16S10475   7.051   2.180  16.066 -2.7374  1.4912  1.0477
   7923SM  H16T10476   6.950   2.286  15.952  0.3781  0.7810  0.1577
   7923SM  C17S10477   7.167   2.270  15.919  0.4956  0.2444 -0.1134
   7923SM  H17S10478   7.167   2.268  15.808 -0.1288 -0.1148 -0.1090
   7923SM  H17T10479   7.245   2.205  15.966 -1.1690 -0.6327  1.5575
   7923SM  C18S10480   7.179   2.416  15.961  0.1991  0.4133  0.6052
   7923SM  H18S10481   7.104   2.472  15.901 -0.5380 -1.0220  0.1374
   7923SM  H18T10482   7.280   2.453  15.933  0.1742  0.7675  0.9769
   7923SM  H18U10483   7.165   2.417  16.071 -1.2625 -0.2466  0.4460
   7923SM   C1F10484   5.835   1.386  16.893  0.7392  0.6099  0.6658
   7923SM    OF10485   5.758   1.450  16.961  0.5077  0.7358 -0.5938
   7923SM   C2F10486   5.793   1.251  16.835 -0.0444  0.6782 -0.0690
   7923SM   H2F10487   5.832   1.169  16.898 -1.4035 -0.0687 -0.1539
   7923SM   H2G10488   5.834   1.234  16.733  0.3527 -0.4246  0.2655
   7923SM   C3F10489   5.640   1.246  16.844 -0.0864 -0.0649 -0.0734
   7923SM   H3F10490   5.593   1.345  16.827 -1.0680 -0.2552  1.3789
   7923SM   H3G10491   5.609   1.211  16.944  1.5746  0.9435  0.8530
   7923SM   C4F10492   5.577   1.148  16.746  0.2041  0.0179 -0.3043
   7923SM   H4F10493   5.587   1.195  16.646  0.8018  0.8760  0.1383
   7923SM   H4G10494   5.472   1.143  16.782  0.0632  2.4286 -0.1691
   7923SM   C5F10495   5.649   1.008  16.758 -0.8588  0.1853 -0.3823
   7923SM   H5F10496   5.659   0.987  16.867 -0.8415  3.7717  0.4365
   7923SM   H5G10497   5.749   0.998  16.711  0.0482 -0.1200  1.4960
   7923SM   C6F10498   5.572   0.890  16.684 -0.5345 -0.3064  1.2820
   7923SM   H6F10499   5.475   0.877  16.735 -1.5052  1.5312 -0.0021
   7923SM   H6G10500   5.639   0.803  16.702 -0.5423 -0.6258 -0.1151
   7923SM   C7F10501   5.556   0.906  16.535  0.2009  0.0749 -0.2377
   7923SM   H7F10502   5.473   0.974  16.507 -0.1217 -0.3417 -0.3039
   7923SM   H7G10503   5.526   0.810  16.487  1.3358 -0.2484 -0.3473
   7923SM   C8F10504   5.688   0.953  16.465 -0.4365  0.1900 -0.8306
   7923SM   H8F10505   5.776   0.891  16.492  0.0325  0.7646 -1.0148
   7923SM   H8G10506   5.711   1.059  16.486  0.4848 -0.1055 -0.2993
   7923SM   C9F10507   5.666   0.958  16.316 -0.0207 -0.0572 -0.2294
   7923SM   H9F10508   5.573   1.007  16.278 -0.2676 -0.4869 -0.1910
   7923SM   H9G10509   5.655   0.849  16.296  0.3631 -0.6377  2.3524
   7923SM  C10F10510   5.781   1.015  16.238  0.2838 -0.3302  0.0530
   7923SM  H10F10511   5.866   0.993  16.306  0.1133  0.5800  0.5655
   7923SM  H10G10512   5.767   1.125  16.233  0.5605 -0.2943  0.0500
   7923SM  C11F10513   5.797   0.962  16.096 -0.0640 -0.6048 -0.3101
   7923SM  H11F10514   5.705   0.994  16.043 -0.5617 -0.9578  0.3312
   7923SM  H11G10515   5.794   0.852  16.109 -0.7860 -0.3805  1.6371
   7923SM  C12F10516   5.909   1.042  16.027 -0.0903 -0.3559  0.6205
   7923SM  H12F10517   6.005   1.034  16.082  1.0842  1.3128 -1.0328
   7923SM  H12G10518   5.881   1.150  16.034 -1.2327 -0.6905  1.5355
   7923SM  C13F10519   5.930   1.025  15.879  0.3799 -0.0164  0.1128
   7923SM  H13F10520   5.985   1.112  15.838  1.3222 -0.4577  0.4324
   7923SM  H13G10521   5.827   1.032  15.837  0.5167  3.0999  0.0816
   7923SM  C14F10522   5.994   0.886  15.847  1.0511 -0.2251 -0.3301
   7923SM  H14F10523   5.922   0.817  15.895 -0.3094  2.0800  1.1237
   7923SM  H14G10524   6.093   0.885  15.899  2.4560 -2.1921 -2.8096
   7923SM  C15F10525   6.014   0.863  15.694 -0.0632  0.0720  0.3960
   7923SM  H15F10526   5.936   0.914  15.634  1.1796  0.8956 -0.5522
   7923SM  H15G10527   6.008   0.753  15.680 -0.1030 -0.3158  2.9208
   7923SM  C16F10528   6.148   0.914  15.641 -0.2678 -0.2978 -0.2383
   7923SM  H16F10529   6.148   1.024  15.658 -0.7488 -0.1731 -0.9934
   7923SM  H16G10530   6.159   0.885  15.534 -2.1167 -2.7205  0.1374
   7923SM  C17F10531   6.275   0.860  15.707  0.4503  0.0142  0.2022
   7923SM  H17F10532   6.275   0.749  15.716 -3.7875 -0.1470  0.2862
   7923SM  H17G10533   6.295   0.908  15.805  0.3382  0.3854  0.0458
   7923SM  C18F10534   6.389   0.884  15.608 -0.0615  0.2358  0.7752
   7923SM  H18F10535   6.387   0.995  15.596 -0.3980  0.2640  1.0577
   7923SM  H18G10536   6.370   0.833  15.512 -0.7804  0.0524  1.0035
   7923SM  C19F10537   6.525   0.834  15.661  0.3817 -0.3963  0.2882
   7923SM  H19F10538   6.497   0.733  15.698 -2.8015  0.5584  0.8618
   7923SM  H19G10539   6.556   0.899  15.745 -0.7793  1.5132 -0.6866
   7923SM  C20F10540   6.639   0.829  15.562 -0.5335 -1.0501  0.1383
   7923SM  H20F10541   6.659   0.936  15.539 -0.9813 -0.3684  2.6196
   7923SM  H20G10542   6.613   0.768  15.473 -1.8209 -1.0517  0.4986
   7923SM  C21F10543   6.770   0.759  15.613  0.3233  0.1976 -0.9599
   7923SM  H21F10544   6.763   0.649  15.595  1.9740 -0.1476  0.2735
   7923SM  H21G10545   6.775   0.772  15.723  0.6693 -0.0126 -0.9491
   7923SM  C22F10546   6.901   0.816  15.544  0.0756 -0.4219  0.1249
   7923SM  H22F10547   6.893   0.925  15.564 -1.8261 -0.1483 -1.7101
   7923SM  H22G10548   6.890   0.811  15.434 -0.6008  1.0522  0.0988
   7923SM  C23F10549   7.032   0.748  15.590 -0.7285 -0.5248 -0.1036
   7923SM  H23F10550   7.102   0.723  15.507 -2.3449 -2.3032 -1.0233
   7923SM  H23G10551   7.006   0.648  15.630  1.2293 -0.0834  2.5510
   7923SM  H23H10552   7.078   0.807  15.672  1.1478  1.1296 -2.2129
   8023SM     N10553   0.214   1.481  17.765  0.4118 -0.1490 -0.9475
   8023SM   C1510554   0.238   1.445  17.911  0.1791  0.6125  0.3682
   8023SM  H15A10555   0.148   1.415  17.962 -1.5441 -1.5597 -3.5013
   8023SM  H15B10556   0.280   1.532  17.960 -0.2323  0.7580  0.4675
   8023SM  H15C10557   0.315   1.372  17.933  0.1056  0.8911  1.6654
   8023SM   C1410558   0.110   1.589  17.765 -0.1118 -0.2327 -0.1118
   8023SM  H14A10559   0.082   1.608  17.663  0.5499  0.3186 -0.2072
   8023SM  H14B10560   0.138   1.677  17.823 -0.1448 -0.1076 -0.2867
   8023SM  H14C10561   0.018   1.559  17.813 -0.6731  1.1837 -0.2381
   8023SM   C1310562   0.343   1.539  17.715 -0.2880 -1.0600  0.0423
   8023SM  H13A10563   0.327   1.597  17.625 -0.8745 -0.2758  0.6389
   8023SM  H13B10564   0.401   1.450  17.696  0.7021 -0.5793  0.7179
   8023SM  H13C10565   0.388   1.594  17.796  1.3582 -0.2154 -1.3892
   8023SM   C1210566   0.180   1.357  17.680  0.7498 -0.1456  0.1659
   8023SM  H12A10567   0.093   1.306  17.719  1.3389  0.1512  1.9454
   8023SM  H12B10568   0.258   1.283  17.687  1.6312  0.6707 -0.7086
   8023SM   C1110569   0.146   1.391  17.530 -0.5137  0.2733 -0.5521
   8023SM  H11A10570   0.138   1.297  17.471 -0.5403  1.8570 -3.1992
   8023SM  H11B10571   0.226   1.458  17.491  0.0467 -1.9179 -3.5392
   8023SM     P10572  -0.114   1.378  17.507  0.0716  0.2058 -0.4541
   8023SM   O1310573  -0.121   1.279  17.620 -0.0650  0.0931 -0.3698
   8023SM   O1410574  -0.223   1.479  17.502  0.2286 -0.1209  0.0124
   8023SM   O1110575  -0.092   1.297  17.371 -0.2615  0.4300 -0.0061
   8023SM   O1210576   0.022   1.455  17.528 -0.3369 -0.0624  0.0027
   8023SM   C1S10577  -0.048   1.377  17.251 -0.2258  0.1137  0.2919
   8023SM   H1S10578   0.063   1.373  17.252 -0.2609 -1.3404  1.6031
   8023SM   H1T10579  -0.083   1.483  17.257  0.8998  0.4288  2.2469
   8023SM    NF10580  -0.034   1.382  17.006  0.1526  0.2090  0.7208
   8023SM   HNF10581  -0.083   1.443  16.944  2.8321  2.2285  0.4189
   8023SM   C2S10582  -0.090   1.315  17.117 -0.1876 -0.0970 -0.4033
   8023SM   H2S10583  -0.051   1.211  17.122  0.7558  0.3048  1.6515
   8023SM   C3S10584  -0.243   1.310  17.101 -0.2135 -0.1166  0.1523
   8023SM   H3S10585  -0.283   1.413  17.096 -1.0544 -0.4792 -1.2411
   8023SM    O310586  -0.314   1.253  17.217  0.2236 -0.4832  0.1513
   8023SM   HO310587  -0.252   1.245  17.289  1.0808  0.6620 -0.4303
   8023SM   C4S10588  -0.290   1.234  16.981 -0.2039 -0.5211 -0.1790
   8023SM   H4S10589  -0.277   1.125  16.974 -1.9740 -0.7289 -0.8738
   8023SM   C5S10590  -0.351   1.300  16.883  0.1664  0.4906 -0.0827
   8023SM   H5S10591  -0.363   1.409  16.884 -0.1440  0.4572 -0.0054
   8023SM   C6S10592  -0.396   1.229  16.756  0.1287 -0.0664 -0.4729
   8023SM   H6S10593  -0.450   1.306  16.696 -0.5787 -1.0970 -1.1919
   8023SM   H6T10594  -0.462   1.142  16.776 -0.0189  0.0817 -0.3062
   8023SM   C7S10595  -0.283   1.175  16.671  0.3883 -0.4039 -0.0172
   8023SM   H7S10596  -0.335   1.116  16.593 -2.1013 -0.7674  1.7941
   8023SM   H7T10597  -0.218   1.103  16.725  1.4968 -0.7114 -1.6833
   8023SM   C8S10598  -0.196   1.282  16.614  0.8277  0.0780  0.1252
   8023SM   H8S10599  -0.155   1.349  16.692 -1.3133 -0.0696  1.4513
   8023SM   H8T10600  -0.259   1.352  16.555  2.6441 -0.3981 -2.5508
   8023SM   C9S10601  -0.091   1.231  16.521 -0.6287 -0.0384 -0.4133
   8023SM   H9S10602  -0.013   1.174  16.577  0.0914  1.3279  0.0430
   8023SM   H9T10603  -0.032   1.315  16.479  1.4828 -1.3129 -0.1429
   8023SM  C10S10604  -0.136   1.157  16.397 -0.0166  0.3923 -0.3081
   8023SM  H10S10605  -0.227   1.204  16.355 -0.5978 -1.5983 -1.3945
   8023SM  H10T10606  -0.174   1.061  16.438 -1.3424  0.4067 -1.4413
   8023SM  C11S10607  -0.029   1.142  16.290  0.4727 -0.5565  0.4807
   8023SM  H11S10608   0.060   1.093  16.334  0.8193 -1.1674 -0.8368
   8023SM  H11T10609  -0.008   1.242  16.248  1.2591  0.2725  2.6981
   8023SM  C12S10610  -0.081   1.055  16.169 -0.3870 -0.0658 -0.1593
   8023SM  H12S10611   0.011   1.067  16.109  0.6475 -0.7189  1.2414
   8023SM  H12T10612  -0.172   1.094  16.117 -2.0793 -1.8183  1.3049
   8023SM  C13S10613  -0.109   0.902  16.198 -0.7399  0.6666  0.5557
   8023SM  H13S10614  -0.197   0.886  16.264 -0.8951 -2.7175 -0.2707
   8023SM  H13T10615  -0.023   0.863  16.257  0.5785  1.9700 -0.4303
   8023SM  C14S10616  -0.133   0.822  16.066 -0.4861 -0.4871 -0.2750
   8023SM  H14S10617  -0.077   0.858  15.977  0.5941  0.6497  0.8457
   8023SM  H14T10618  -0.240   0.842  16.044  0.0672  1.3328 -1.5133
   8023SM  C15S10619  -0.100   0.674  16.061 -0.3439 -0.0743 -0.2631
   8023SM  H15S10620   0.009   0.667  16.081 -0.5783 -0.3655  0.9690
   8023SM  H15T10621  -0.114   0.646  15.954  0.3465  1.3920 -0.7738
   8023SM  C16S10622  -0.168   0.597  16.184  0.2901 -0.3901  0.2149
   8023SM  H16S10623  -0.275   0.625  16.183  0.3585 -0.0851  0.7291
   8023SM  H16T10624  -0.119   0.639  16.275  1.2878 -1.0823  0.0074
   8023SM  C17S10625  -0.139   0.449  16.185  0.8571  0.2566 -0.1954
   8023SM  H17S10626  -0.196   0.385  16.115  0.9007 -2.0559  1.7562
   8023SM  H17T10627  -0.171   0.411  16.285  0.8439 -0.9475 -0.6362
   8023SM  C18S10628   0.002   0.402  16.151 -0.7784 -0.1045  0.2431
   8023SM  H18S10629   0.011   0.291  16.154 -1.0800 -0.1738 -0.8881
   8023SM  H18T10630   0.076   0.447  16.220 -1.4205  0.9350  0.2772
   8023SM  H18U10631   0.032   0.441  16.052  1.8157  0.5617  1.2120
   8023SM   C1F10632   0.089   1.367  16.968  0.5866 -0.1481  0.2591
   8023SM    OF10633   0.167   1.301  17.039 -0.0994  0.2347 -0.1000
   8023SM   C2F10634   0.126   1.423  16.838  0.4865 -0.3333  0.2472
   8023SM   H2F10635   0.187   1.515  16.852 -0.7170  0.4169  0.6826
   8023SM   H2G10636   0.037   1.448  16.777  0.7019 -1.1146 -0.4153
   8023SM   C3F10637   0.195   1.323  16.747 -0.3767  0.1341  0.5763
   8023SM   H3F10638   0.130   1.235  16.726  0.7798 -0.4350 -0.8328
   8023SM   H3G10639   0.291   1.291  16.793  0.1281  1.3090  0.3637
   8023SM   C4F10640   0.239   1.376  16.607  0.4496  0.0555  0.1365
   8023SM   H4F10641   0.321   1.451  16.611 -0.0255  0.5297  1.4711
   8023SM   H4G10642   0.143   1.422  16.573 -0.3567 -0.8674  1.1004
   8023SM   C5F10643   0.295   1.271  16.512  0.1280 -0.0945  0.0602
   8023SM   H5F10644   0.228   1.187  16.483  1.1119 -0.9140  0.1240
   8023SM   H5G10645   0.377   1.210  16.555  0.1450 -2.1480 -2.6358
   8023SM   C6F10646   0.354   1.332  16.387 -0.1915  0.1779  0.3347
   8023SM   H6F10647   0.434   1.401  16.419  1.2643 -0.1639 -2.2261
   8023SM   H6G10648   0.278   1.401  16.344 -0.7318  0.3361  1.5011
   8023SM   C7F10649   0.418   1.238  16.278 -0.2620  0.0421  0.3955
   8023SM   H7F10650   0.494   1.165  16.314 -1.3495 -1.4380 -0.1667
   8023SM   H7G10651   0.471   1.303  16.205 -0.4659  1.3690  1.3938
   8023SM   C8F10652   0.321   1.155  16.202 -0.1231  0.5363  0.1852
   8023SM   H8F10653   0.251   1.221  16.148  0.9328  0.9836 -0.6700
   8023SM   H8G10654   0.266   1.089  16.273  0.3549 -0.9904 -0.7995
   8023SM   C9F10655   0.398   1.071  16.098  0.1243 -0.1386 -0.2931
   8023SM   H9F10656   0.328   0.987  16.082 -0.3562  0.0847  0.5696
   8023SM   H9G10657   0.494   1.031  16.138  0.4267 -0.5478 -1.3950
   8023SM  C10F10658   0.417   1.148  15.969 -0.5032 -0.0298  0.3676
   8023SM  H10F10659   0.478   1.240  15.984  0.2845 -0.7678  1.9770
   8023SM  H10G10660   0.314   1.182  15.947 -0.4015  0.4312  0.5892
   8023SM  C11F10661   0.477   1.060  15.862  0.0161 -0.2182 -0.1520
   8023SM  H11F10662   0.400   0.990  15.826  1.6273 -1.2482 -1.7455
   8023SM  H11G10663   0.556   0.991  15.899  0.5733  1.3179  1.7137
   8023SM  C12F10664   0.522   1.134  15.731  0.2253  0.2476  0.1067
   8023SM  H12F10665   0.562   1.230  15.771 -2.0673  1.1405  0.3861
   8023SM  H12G10666   0.430   1.163  15.676  0.1760  1.4025  0.7645
   8023SM  C13F10667   0.628   1.069  15.640  0.6700  0.2049 -0.0412
   8023SM  H13F10668   0.600   0.965  15.613 -2.0739  1.1660 -1.2546
   8023SM  H13G10669   0.723   1.062  15.698  1.2023  0.2048 -0.8981
   8023SM  C14F10670   0.644   1.144  15.512  0.1970  0.2842  0.0535
   8023SM  H14F10671   0.650   1.254  15.530  0.2601 -0.0150  2.1931
   8023SM  H14G10672   0.552   1.128  15.452 -0.4803  1.0002  0.8635
   8023SM  C15F10673   0.770   1.102  15.439 -0.5125  0.1888 -0.3144
   8023SM  H15F10674   0.759   0.995  15.412  0.8754 -0.1466  0.3932
   8023SM  H15G10675   0.860   1.109  15.503 -0.1948 -0.0481 -0.7331
   8023SM  C16F10676   0.789   1.176  15.304  0.7949  0.0188 -0.1103
   8023SM  H16F10677   0.891   1.151  15.268 -0.0135 -2.7092 -0.7364
   8023SM  H16G10678   0.777   1.285  15.323 -1.0953 -0.1460 -0.1537
   8023SM  C17F10679   0.677   1.150  15.196  0.1793  0.1272 -0.0892
   8023SM  H17F10680   0.579   1.177  15.240 -0.3077 -1.7858  0.0890
   8023SM  H17G10681   0.678   1.042  15.171 -2.0455  0.1325 -0.3572
   8023SM  C18F10682   0.706   1.234  15.068  0.7002  0.4896 -0.7286
   8023SM  H18F10683   0.699   1.340  15.100  0.9158  0.5847 -0.9984
   8023SM  H18G10684   0.629   1.209  14.992 -2.6216 -0.2805  2.5714
   8023SM  C19F10685   0.838   1.202  14.997 -0.1316 -0.4148  0.7423
   8023SM  H19F10686   0.839   1.094  14.969 -1.3924 -0.5218  1.0464
   8023SM  H19G10687   0.919   1.226  15.070 -0.1271 -1.1794  0.9974
   8023SM  C20F10688   0.869   1.295  14.873 -0.6333  0.1284  0.0284
   8023SM  H20F10689   0.847   1.400  14.899 -0.9885  0.1624 -0.4088
   8023SM  H20G10690   0.797   1.263  14.794  0.6576  1.3611 -1.7265
   8023SM  C21F10691   1.018   1.277  14.840  0.1042  0.3728 -0.6974
   8023SM  H21F10692   1.058   1.186  14.890 -0.4984  0.0119 -0.8687
   8023SM  H21G10693   1.075   1.364  14.879  0.0557 -0.9410  2.5828
   8023SM  C22F10694   1.032   1.283  14.683 -0.3839  0.3453 -0.5304
   8023SM  H22F10695   0.993   1.382  14.650  0.8125  0.6879 -0.9635
   8023SM  H22G10696   0.965   1.203  14.644  0.4385  0.2431 -1.8023
   8023SM  C23F10697   1.173   1.276  14.626 -0.0590 -0.0024  0.1064
   8023SM  H23F10698   1.238   1.362  14.653 -1.1156  0.3265  1.7733
   8023SM  H23G10699   1.169   1.258  14.517  3.0387  0.0880 -0.1222
   8023SM  H23H10700   1.218   1.183  14.666  0.4605  0.5553  0.8628
   8123SM     N10701   4.030   5.059  13.456  0.1639 -0.8524 -0.4134
   8123SM   C1510702   3.882   5.060  13.496 -0.2690  0.4869 -0.4874
   8123SM  H15A10703   3.871   5.019  13.595  0.2146 -0.4605 -0.8153
   8123SM  H15B10704   3.809   5.021  13.426 -0.8584  2.5901 -1.1319
   8123SM  H15C10705   3.850   5.163  13.508  1.5909  0.9155  1.3917
   8123SM   C1410706   4.036   5.109  13.317 -0.2122  0.0862 -0.0695
   8123SM  H14A10707   3.998   5.033  13.250 -1.1300  0.5170 -0.0515
   8123SM  H14B10708   4.138   5.132  13.291  0.1056 -2.6012 -1.5515
   8123SM  H14C10709   3.981   5.202  13.310 -0.6717 -0.1930 -0.2442
   8123SM   C1310710   4.081   5.162  13.555  0.6547 -0.2840  0.2855
   8123SM  H13A10711   4.087   5.108  13.649  0.2416 -1.7472 -0.4904
   8123SM  H13B10712   4.009   5.241  13.568 -0.4711 -1.2638  0.1793
   8123SM  H13C10713   4.177   5.201  13.526 -0.3859  1.2166 -1.3704
   8123SM   C1210714   4.102   4.927  13.468  0.2651  0.3745 -0.1443
   8123SM  H12A10715   4.064   4.863  13.390 -3.0642  1.3150  0.5786
   8123SM  H12B10716   4.081   4.887  13.566  0.7420 -2.4707 -1.1060
   8123SM   C1110717   4.257   4.928  13.468 -0.3805  0.5857  0.2378
   8123SM  H11A10718   4.307   4.832  13.493  1.1309  1.5528  1.1107
   8123SM  H11B10719   4.299   4.993  13.548  1.3798  0.5763 -0.6210
   8123SM     P10720   4.419   5.068  13.308 -0.3832 -0.2407  0.3072
   8123SM   O1310721   4.535   4.981  13.286 -0.1415  0.1608 -0.0498
   8123SM   O1410722   4.376   5.160  13.198  0.0259  0.8148 -0.1654
   8123SM   O1110723   4.443   5.148  13.434  0.2793 -0.3915  0.1050
   8123SM   O1210724   4.297   4.972  13.337  0.3777 -0.2079  0.7362
   8123SM   C1S10725   4.412   5.285  13.444  0.0700 -0.0600  0.0012
   8123SM   H1S10726   4.308   5.304  13.410  0.4603 -1.0586 -1.9112
   8123SM   H1T10727   4.486   5.343  13.384 -0.9142  1.1902 -0.0351
   8123SM    NF10728   4.393   5.457  13.619  0.1898 -0.0257 -0.3917
   8123SM   HNF10729   4.464   5.526  13.626 -0.0136  0.7164 -3.6385
   8123SM   C2S10730   4.431   5.317  13.595  0.1848 -0.1758  0.6117
   8123SM   H2S10731   4.356   5.254  13.647 -0.3018 -0.3187 -0.2451
   8123SM   C3S10732   4.569   5.278  13.663  0.6737 -0.5514  0.1295
   8123SM   H3S10733   4.636   5.365  13.655 -0.2032  0.0823 -0.4797
   8123SM    O310734   4.631   5.160  13.611  0.4504 -0.2006  0.4916
   8123SM   HO310735   4.590   5.147  13.526  1.0537 -0.7419  0.2801
   8123SM   C4S10736   4.541   5.274  13.813  0.2144  0.5679  0.0048
   8123SM   H4S10737   4.513   5.173  13.845  0.8029  0.8328  1.4194
   8123SM   C5S10738   4.544   5.375  13.904 -0.2974  0.4170  0.4496
   8123SM   H5S10739   4.588   5.472  13.878 -0.9429  0.3032 -1.2121
   8123SM   C6S10740   4.528   5.343  14.052  0.2665  0.1649  0.5461
   8123SM   H6S10741   4.544   5.237  14.081  1.9847  0.2973  0.1493
   8123SM   H6T10742   4.423   5.364  14.084 -0.2966 -1.9912  0.2859
   8123SM   C7S10743   4.628   5.416  14.132  0.1074 -0.2389  0.7144
   8123SM   H7S10744   4.641   5.519  14.094 -0.3799 -1.4546 -3.1391
   8123SM   H7T10745   4.720   5.356  14.114 -1.0053 -1.7837 -0.0235
   8123SM   C8S10746   4.606   5.416  14.282 -0.3289  0.6851  0.2107
   8123SM   H8S10747   4.587   5.310  14.310 -0.0443  0.4714 -0.4067
   8123SM   H8T10748   4.514   5.475  14.302 -1.0762 -1.0158  2.1232
   8123SM   C9S10749   4.723   5.481  14.361  0.2864 -0.1408  0.8249
   8123SM   H9S10750   4.747   5.579  14.314  0.8595 -2.2539 -3.8349
   8123SM   H9T10751   4.814   5.417  14.359  1.6472  1.5864  2.9480
   8123SM  C10S10752   4.688   5.507  14.507 -0.2919  0.1240  0.2685
   8123SM  H10S10753   4.664   5.410  14.555  0.9720 -0.8731 -1.0178
   8123SM  H10T10754   4.597   5.570  14.503  0.1798  0.7940 -0.5674
   8123SM  C11S10755   4.801   5.586  14.581  0.5694 -0.1705 -0.2890
   8123SM  H11S10756   4.770   5.626  14.680 -1.2366  0.5620 -1.0945
   8123SM  H11T10757   4.815   5.680  14.524 -1.2813 -0.9187 -2.1312
   8123SM  C12S10758   4.938   5.513  14.581 -0.7394 -0.8494 -0.0989
   8123SM  H12S10759   4.980   5.516  14.478 -2.4948 -0.2312 -0.8355
   8123SM  H12T10760   4.916   5.411  14.619 -0.5241 -0.3768  1.3607
   8123SM  C13S10761   5.037   5.586  14.680 -0.0669 -0.3576  0.1093
   8123SM  H13S10762   5.048   5.687  14.637  0.0209 -0.4508 -0.0870
   8123SM  H13T10763   5.130   5.525  14.675 -0.0350 -0.1934 -4.0307
   8123SM  C14S10764   4.985   5.588  14.824  0.6952 -0.0531 -0.5135
   8123SM  H14S10765   4.966   5.483  14.854  2.5511 -0.5331 -0.9258
   8123SM  H14T10766   4.901   5.662  14.826  1.5803  0.9699  0.2609
   8123SM  C15S10767   5.091   5.637  14.935  0.3568  0.6273 -0.0252
   8123SM  H15S10768   5.100   5.746  14.918 -0.2163  0.8599  1.0350
   8123SM  H15T10769   5.184   5.579  14.914 -0.5414 -0.3407 -1.5059
   8123SM  C16S10770   5.036   5.617  15.077 -0.0462 -0.2028 -0.4530
   8123SM  H16S10771   5.008   5.513  15.102 -0.1220  0.6268  3.5439
   8123SM  H16T10772   4.954   5.689  15.098  1.5225  1.0796  1.6740
   8123SM  C17S10773   5.133   5.658  15.193  0.2835  0.1933  0.6251
   8123SM  H17S10774   5.171   5.763  15.188  0.2467  0.1752 -0.1709
   8123SM  H17T10775   5.225   5.596  15.186  1.4496  1.6281  2.3302
   8123SM  C18S10776   5.071   5.636  15.332 -0.7349 -0.7483 -0.2728
   8123SM  H18S10777   4.982   5.700  15.353  0.3583  0.5036  0.6414
   8123SM  H18T10778   5.152   5.638  15.407 -0.3212 -0.5332 -0.7150
   8123SM  H18U10779   5.041   5.529  15.335  0.6492 -1.1360  0.1513
   8123SM   C1F10780   4.275   5.514  13.591  0.4206 -0.1472 -0.5643
   8123SM    OF10781   4.178   5.454  13.550  0.2167  0.2760 -0.0981
   8123SM   C2F10782   4.260   5.665  13.616  0.1762  0.0390  0.0376
   8123SM   H2F10783   4.173   5.691  13.551 -1.2813 -0.6756  1.6095
   8123SM   H2G10784   4.355   5.715  13.587 -0.0834  0.2116 -0.5495
   8123SM   C3F10785   4.208   5.699  13.755  0.5099 -0.5920  0.0477
   8123SM   H3F10786   4.104   5.659  13.765  0.5071 -0.9489 -1.1840
   8123SM   H3G10787   4.188   5.808  13.765  0.0916 -0.6311 -0.3143
   8123SM   C4F10788   4.293   5.657  13.877 -0.1811  0.5357 -0.0775
   8123SM   H4F10789   4.386   5.711  13.848 -0.3474  0.9743  0.2033
   8123SM   H4G10790   4.308   5.547  13.888 -1.4595  0.1528 -1.6917
   8123SM   C5F10791   4.239   5.696  14.015 -0.1192  0.4358  0.5396
   8123SM   H5F10792   4.152   5.634  14.048 -0.3081 -1.1591 -2.5434
   8123SM   H5G10793   4.198   5.799  14.008  2.0891  1.2568 -1.6765
   8123SM   C6F10794   4.345   5.703  14.123 -0.1947  0.2618 -0.7815
   8123SM   H6F10795   4.402   5.794  14.095 -0.3736  1.3049  1.9241
   8123SM   H6G10796   4.409   5.612  14.124  0.9369  0.9717  1.6191
   8123SM   C7F10797   4.287   5.741  14.263  0.0000 -0.2749  0.0006
   8123SM   H7F10798   4.237   5.647  14.293  0.3798  0.0358  1.7337
   8123SM   H7G10799   4.212   5.823  14.262  1.5074  1.1590 -0.3503
   8123SM   C8F10800   4.388   5.769  14.375  0.7847  0.1187  0.2917
   8123SM   H8F10801   4.442   5.863  14.352 -2.2863  1.8890 -0.2279
   8123SM   H8G10802   4.460   5.684  14.375  0.0501 -0.5323 -0.7732
   8123SM   C9F10803   4.316   5.803  14.504 -0.1882 -0.0801  0.3659
   8123SM   H9F10804   4.226   5.738  14.503 -0.7223  0.6337 -0.7442
   8123SM   H9G10805   4.285   5.908  14.485  1.5890  0.3025 -0.5752
   8123SM  C10F10806   4.388   5.784  14.634  0.2507 -0.0082  0.6125
   8123SM  H10F10807   4.438   5.685  14.622  1.3683  0.6051  0.1200
   8123SM  H10G10808   4.313   5.778  14.716 -1.7402 -1.2850 -1.1844
   8123SM  C11F10809   4.492   5.886  14.679  0.0202  0.0754 -0.4473
   8123SM  H11F10810   4.436   5.982  14.667 -1.5929 -1.1452 -3.7486
   8123SM  H11G10811   4.575   5.879  14.605 -1.4326 -0.7825 -2.0671
   8123SM  C12F10812   4.543   5.855  14.818  0.1850  0.3581 -0.5749
   8123SM  H12F10813   4.581   5.751  14.821  0.2736  0.3262 -1.9121
   8123SM  H12G10814   4.458   5.867  14.887 -0.5205 -1.5262 -1.0627
   8123SM  C13F10815   4.654   5.957  14.864 -0.6670  0.3515 -0.2528
   8123SM  H13F10816   4.734   5.939  14.789 -0.1584  2.2176 -0.2237
   8123SM  H13G10817   4.693   5.944  14.967  1.5961 -0.2095 -1.1045
   8123SM  C14F10818   4.628   6.109  14.845  0.2322  0.1466 -0.0947
   8123SM  H14F10819   4.638   6.139  14.738 -0.4371  3.4668  0.6588
   8123SM  H14G10820   4.712   6.162  14.894 -0.4472  1.2076 -0.0515
   8123SM  C15F10821   4.505   6.169  14.911  0.2040  0.2151 -0.3397
   8123SM  H15F10822   4.408   6.151  14.861  0.8521 -1.5248 -1.0506
   8123SM  H15G10823   4.518   6.280  14.912 -1.6044  0.4503  0.5504
   8123SM  C16F10824   4.483   6.121  15.055 -0.8573  0.0391 -0.1745
   8123SM  H16F10825   4.459   6.013  15.059 -1.5978  0.1912 -0.3868
   8123SM  H16G10826   4.392   6.165  15.101 -1.3723 -1.9679  0.8578
   8123SM  C17F10827   4.606   6.147  15.146 -0.5778 -0.1410 -0.6925
   8123SM  H17F10828   4.623   6.256  15.150 -4.3473  0.5299 -0.2529
   8123SM  H17G10829   4.698   6.095  15.110 -0.4858  0.1742 -0.9132
   8123SM  C18F10830   4.575   6.105  15.289  0.9936 -0.0891 -0.0570
   8123SM  H18F10831   4.528   6.005  15.290  0.1780  0.2848 -0.1945
   8123SM  H18G10832   4.493   6.172  15.323 -1.1082 -2.3587 -0.3914
   8123SM  C19F10833   4.689   6.140  15.384 -0.7780  0.3024  0.5235
   8123SM  H19F10834   4.719   6.246  15.371  0.4283  0.0306  1.0220
   8123SM  H19G10835   4.771   6.074  15.348 -0.8925  0.0077  0.8081
   8123SM  C20F10836   4.660   6.115  15.531  0.1237 -0.0724  0.5895
   8123SM  H20F10837   4.598   6.023  15.537 -0.1927  0.2058  1.9178
   8123SM  H20G10838   4.611   6.201  15.582 -2.5890 -3.0572  3.5623
   8123SM  C21F10839   4.789   6.087  15.608 -0.5540  0.0428  1.0054
   8123SM  H21F10840   4.777   6.101  15.717 -0.8349  1.0683  0.8527
   8123SM  H21G10841   4.845   6.176  15.573 -0.7059 -0.6725 -1.2761
   8123SM  C22F10842   4.865   5.959  15.593 -0.7782 -0.0000  0.2598
   8123SM  H22F10843   4.953   5.966  15.660 -1.6923 -2.7724  1.9080
   8123SM  H22G10844   4.902   5.943  15.490 -0.4751  0.3663  0.3080
   8123SM  C23F10845   4.793   5.833  15.644 -0.3221 -0.2680 -0.0003
   8123SM  H23F10846   4.721   5.802  15.565 -0.0587 -0.4620 -0.1658
   8123SM  H23G10847   4.750   5.861  15.743  2.2938  1.9958  0.6453
   8123SM  H23H10848   4.871   5.756  15.660  1.3340  1.3705  0.1933
   8223SM     N10849   3.389   5.717  13.428 -0.1178  0.2796  1.0376
   8223SM   C1510850   3.368   5.612  13.528  0.2653 -0.0135 -0.2527
   8223SM  H15A10851   3.270   5.621  13.573  0.6740 -0.2316  0.6994
   8223SM  H15B10852   3.448   5.603  13.600 -0.8749 -0.6017  0.9633
   8223SM  H15C10853   3.369   5.514  13.484 -0.1306  0.4314 -1.3030
   8223SM   C1410854   3.514   5.672  13.358  0.1721 -0.1807 -0.0252
   8223SM  H14A10855   3.591   5.676  13.433  0.6079  1.7592 -0.5186
   8223SM  H14B10856   3.540   5.738  13.276 -1.1952 -0.3400 -0.6290
   8223SM  H14C10857   3.510   5.573  13.315  1.0120 -0.8787  1.4501
   8223SM   C1310858   3.263   5.713  13.349 -0.0386  0.0340 -0.3986
   8223SM  H13A10859   3.268   5.777  13.262 -0.7547 -1.6336 -1.7261
   8223SM  H13B10860   3.172   5.742  13.400  1.3580  1.3851  1.4494
   8223SM  H13C10861   3.255   5.610  13.318  0.1854 -0.1170  0.0255
   8223SM   C1210862   3.408   5.853  13.488  0.7911  0.2758  0.1914
   8223SM  H12A10863   3.311   5.893  13.517 -1.0222 -0.7823 -3.7095
   8223SM  H12B10864   3.439   5.917  13.407  2.1972 -0.3175  0.2471
   8223SM   C1110865   3.504   5.878  13.602 -0.3437  0.6064 -0.2098
   8223SM  H11A10866   3.484   5.815  13.691  0.3425 -0.3271 -0.6962
   8223SM  H11B10867   3.499   5.982  13.639  1.1619  0.3881  0.7043
   8223SM     P10868   3.731   5.941  13.468 -0.4090  0.0030 -0.1472
   8223SM   O1310869   3.847   5.853  13.419  0.4920 -0.0083 -0.2779
   8223SM   O1410870   3.655   6.013  13.368  0.3095 -0.4661  0.7198
   8223SM   O1110871   3.777   6.044  13.568  0.3575 -0.3773  0.6050
   8223SM   O1210872   3.639   5.841  13.553 -0.3377  0.3651 -0.4632
   8223SM   C1S10873   3.822   6.022  13.703  0.0891  0.2676 -0.5854
   8223SM   H1S10874   3.758   5.944  13.750  0.2877  0.7895  0.5966
   8223SM   H1T10875   3.817   6.107  13.775  0.3658  0.9675 -1.3762
   8223SM    NF10876   4.006   5.985  13.863  0.3825 -0.1302  0.5434
   8223SM   HNF10877   4.063   6.061  13.895  0.0463  0.7829 -0.9558
   8223SM   C2S10878   3.973   5.991  13.719 -0.1937  0.0539  0.4505
   8223SM   H2S10879   4.000   5.893  13.674 -0.5292  0.7335 -1.2781
   8223SM   C3S10880   4.052   6.109  13.643 -0.3391 -0.3465  0.6190
   8223SM   H3S10881   4.029   6.196  13.708  3.2981  0.5981  0.8206
   8223SM    O310882   4.011   6.138  13.512  0.1959 -0.2595  0.2287
   8223SM   HO310883   3.928   6.090  13.508  0.7869 -1.5794  2.1694
   8223SM   C4S10884   4.206   6.092  13.643  0.1805 -0.4261  0.7134
   8223SM   H4S10885   4.250   6.136  13.733  0.3130  1.9289 -0.4235
   8223SM   C5S10886   4.287   6.035  13.555 -0.0047 -0.7900 -0.2243
   8223SM   H5S10887   4.231   5.981  13.477 -0.1389  0.2352 -0.8590
   8223SM   C6S10888   4.432   6.021  13.538 -0.5701  0.4360 -0.0758
   8223SM   H6S10889   4.464   6.037  13.432 -2.2983  1.6023 -0.4622
   8223SM   H6T10890   4.454   5.920  13.579 -1.2014 -0.4435 -1.8045
   8223SM   C7S10891   4.504   6.121  13.630 -0.2136  0.2086 -0.1409
   8223SM   H7S10892   4.480   6.098  13.736  0.2716 -1.8400 -0.4483
   8223SM   H7T10893   4.498   6.227  13.597  2.9092  0.4980 -0.1268
   8223SM   C8S10894   4.658   6.084  13.629  0.1970 -0.0094  0.2376
   8223SM   H8S10895   4.695   6.118  13.530  0.5745  3.1002  1.3333
   8223SM   H8T10896   4.666   5.974  13.618  1.6853  0.2091 -1.2447
   8223SM   C9S10897   4.744   6.138  13.738  0.0022 -0.5510 -1.0934
   8223SM   H9S10898   4.743   6.076  13.830 -4.1423 -0.1486 -0.6606
   8223SM   H9T10899   4.701   6.232  13.778 -0.2064 -0.9673 -0.3276
   8223SM  C10S10900   4.892   6.167  13.699  0.7202  0.5258 -0.3700
   8223SM  H10S10901   4.890   6.238  13.614  1.2802  0.5670 -0.3562
   8223SM  H10T10902   4.951   6.078  13.668  3.8262  2.2782  0.0306
   8223SM  C11S10903   4.968   6.225  13.820  0.3471 -0.1322  0.5199
   8223SM  H11S10904   4.942   6.330  13.846  2.4622  0.7666 -0.7426
   8223SM  H11T10905   5.074   6.240  13.791  0.5144 -2.5106 -0.2482
   8223SM  C12S10906   4.980   6.135  13.946  0.0483  0.4074  1.0650
   8223SM  H12S10907   5.026   6.042  13.905  0.5362  1.2327 -0.3210
   8223SM  H12T10908   4.881   6.117  13.994 -0.6106  2.1031  0.4415
   8223SM  C13S10909   5.082   6.178  14.055  0.4985 -1.2377  0.0010
   8223SM  H13S10910   5.060   6.109  14.139  1.7456 -1.7420 -0.0641
   8223SM  H13T10911   5.061   6.284  14.079 -1.9282 -1.4428 -0.9114
   8223SM  C14S10912   5.228   6.156  14.013 -0.3524 -0.2633 -0.1234
   8223SM  H14S10913   5.255   6.220  13.927 -1.4888  1.2887  0.6176
   8223SM  H14T10914   5.236   6.045  14.002 -1.6631 -0.3826 -0.0194
   8223SM  C15S10915   5.325   6.197  14.116 -0.5395 -0.3798  0.6339
   8223SM  H15S10916   5.313   6.150  14.216  0.2539  0.6857  1.2447
   8223SM  H15T10917   5.312   6.307  14.129 -2.2590 -0.6047  1.0148
   8223SM  C16S10918   5.464   6.158  14.063 -0.2890  0.1054 -0.2709
   8223SM  H16S10919   5.464   6.174  13.953  1.2001 -0.4692 -0.3810
   8223SM  H16T10920   5.472   6.048  14.076  1.7207  0.4228  1.7620
   8223SM  C17S10921   5.584   6.224  14.128 -0.2933 -0.6915  0.0476
   8223SM  H17S10922   5.595   6.210  14.238  2.4527  0.8571  0.0683
   8223SM  H17T10923   5.583   6.331  14.099 -0.1190 -0.0741  2.1373
   8223SM  C18S10924   5.714   6.174  14.067 -0.1779 -0.7213 -0.3226
   8223SM  H18S10925   5.803   6.222  14.111 -0.3825 -0.9114  0.3055
   8223SM  H18T10926   5.712   6.201  13.959 -1.8552  1.1634  0.1094
   8223SM  H18U10927   5.731   6.065  14.083  0.0628 -0.6034  0.2322
   8223SM   C1F10928   3.950   5.892  13.942  0.2643  0.2624 -0.4424
   8223SM    OF10929   3.902   5.789  13.898 -0.0361 -0.0453  0.1381
   8223SM   C2F10930   3.948   5.919  14.094  0.5375  0.0799  0.3418
   8223SM   H2F10931   3.894   6.015  14.110 -2.6773 -1.5308 -0.0717
   8223SM   H2G10932   4.053   5.934  14.129  0.1939  0.7156  1.1307
   8223SM   C3F10933   3.874   5.817  14.183 -0.2240 -0.1252 -0.0981
   8223SM   H3F10934   3.902   5.715  14.148 -0.5040 -0.1223 -0.3350
   8223SM   H3G10935   3.766   5.841  14.167 -0.0528  0.7592  0.0486
   8223SM   C4F10936   3.900   5.828  14.333 -0.5382  0.1791  0.1641
   8223SM   H4F10937   3.890   5.937  14.355 -0.9473  0.4290 -1.1645
   8223SM   H4G10938   4.005   5.794  14.344 -0.5111  0.4826  0.9420
   8223SM   C5F10939   3.815   5.729  14.401  0.6365 -0.8225  0.2161
   8223SM   H5F10940   3.822   5.625  14.361 -3.1901 -0.8196 -0.8882
   8223SM   H5G10941   3.709   5.755  14.382  0.0675 -1.6716  2.0410
   8223SM   C6F10942   3.843   5.737  14.551  0.5788  0.5249 -0.5146
   8223SM   H6F10943   3.852   5.843  14.583  1.2454 -0.5041  3.1680
   8223SM   H6G10944   3.940   5.685  14.563 -0.6243 -1.6471  0.4098
   8223SM   C7F10945   3.731   5.660  14.633 -0.0125  0.2229 -0.3073
   8223SM   H7F10946   3.775   5.651  14.735 -3.0692 -1.0741  1.0029
   8223SM   H7G10947   3.728   5.556  14.595 -0.5328 -0.6356  1.9240
   8223SM   C8F10948   3.593   5.729  14.656 -0.7394 -0.3805 -0.0645
   8223SM   H8F10949   3.558   5.790  14.570 -2.3908 -1.3576 -0.1290
   8223SM   H8G10950   3.610   5.801  14.739 -1.9102  1.5527 -1.4227
   8223SM   C9F10951   3.494   5.620  14.699 -0.3397  0.1780  0.2732
   8223SM   H9F10952   3.551   5.540  14.752  0.4937  0.2792 -0.4494
   8223SM   H9G10953   3.452   5.572  14.608 -0.9763  0.5508  0.3671
   8223SM  C10F10954   3.361   5.674  14.769 -0.1230  0.2796  0.7912
   8223SM  H10F10955   3.334   5.764  14.710 -1.8155 -0.8369 -0.2072
   8223SM  H10G10956   3.389   5.698  14.874  0.3373 -0.8995  0.9521
   8223SM  C11F10957   3.236   5.586  14.769  0.3064 -0.1894 -0.3347
   8223SM  H11F10958   3.278   5.497  14.820 -0.8427 -0.8176 -0.4705
   8223SM  H11G10959   3.206   5.550  14.669  1.4333 -2.9290  0.2406
   8223SM  C12F10960   3.116   5.633  14.855 -0.2490 -0.4708 -0.4723
   8223SM  H12F10961   3.064   5.720  14.809  1.0319  0.0587 -0.9681
   8223SM  H12G10962   3.146   5.659  14.959  2.3521 -1.7513 -0.8213
   8223SM  C13F10963   3.026   5.513  14.871  0.2615  0.0060 -0.3462
   8223SM  H13F10964   3.078   5.444  14.940  0.4453 -0.0718 -0.5602
   8223SM  H13G10965   3.016   5.473  14.768  0.9901  0.4743 -0.6052
   8223SM  C14F10966   2.887   5.556  14.917 -0.0199 -0.0073 -0.2337
   8223SM  H14F10967   2.838   5.456  14.919  0.1207 -0.0764  0.9705
   8223SM  H14G10968   2.827   5.607  14.838  1.4384  0.7954 -0.8498
   8223SM  C15F10969   2.861   5.628  15.050  0.0752 -0.0247 -0.5773
   8223SM  H15F10970   2.757   5.654  15.079  0.2520  1.1850 -0.9855
   8223SM  H15G10971   2.911   5.726  15.040 -2.8302  1.8534  1.6708
   8223SM  C16F10972   2.922   5.559  15.175 -0.3931  0.1324  0.9878
   8223SM  H16F10973   3.032   5.549  15.165 -0.7366 -1.6894 -2.3355
   8223SM  H16G10974   2.878   5.458  15.191  0.3245 -0.4623 -0.6527
   8223SM  C17F10975   2.897   5.655  15.298  0.4548  0.5182  0.1027
   8223SM  H17F10976   2.788   5.673  15.309  0.7660  1.5772  1.6811
   8223SM  H17G10977   2.943   5.755  15.288  1.5799 -0.0732 -0.7964
   8223SM  C18F10978   2.957   5.599  15.427  0.2034  0.0942  0.0624
   8223SM  H18F10979   3.066   5.602  15.405  0.0008  3.3337 -0.8982
   8223SM  H18G10980   2.922   5.494  15.433 -0.5795  0.0945 -2.9948
   8223SM  C19F10981   2.932   5.686  15.550 -0.4461  0.0358  0.8871
   8223SM  H19F10982   2.824   5.684  15.575 -0.6473 -0.5986 -0.0020
   8223SM  H19G10983   2.958   5.793  15.531 -1.8378 -0.0396 -2.0345
   8223SM  C20F10984   3.011   5.640  15.668 -0.1488  0.4643 -0.9626
   8223SM  H20F10985   2.968   5.703  15.749 -0.3326 -1.6492  0.6675
   8223SM  H20G10986   3.118   5.656  15.642 -0.1658 -0.2453 -1.4820
   8223SM  C21F10987   2.976   5.501  15.722 -0.1324 -0.1729 -0.0910
   8223SM  H21F10988   3.038   5.436  15.657 -0.8685 -0.7961 -0.1813
   8223SM  H21G10989   2.871   5.471  15.703 -0.8998  2.5360 -0.4889
   8223SM  C22F10990   3.011   5.468  15.867 -0.5181  0.0375 -0.1001
   8223SM  H22F10991   3.111   5.505  15.899 -1.2614  2.3752 -0.2666
   8223SM  H22G10992   2.995   5.359  15.873 -0.1953  0.0377  0.9987
   8223SM  C23F10993   2.912   5.530  15.966  0.4205  0.5923  0.4036
   8223SM  H23F10994   2.958   5.529  16.068 -0.0062 -1.0905  0.6094
   8223SM  H23G10995   2.816   5.475  15.973  1.0269 -0.5434 -0.0653
   8223SM  H23H10996   2.887   5.634  15.936 -0.6433  0.0189 -0.7423
   8323SM     N10997   4.730   5.603  12.847 -0.0845  0.6367 -0.2933
   8323SM   C1510998   4.590   5.569  12.887  0.3341 -0.4613 -0.3180
   8323SM  H15A10999   4.536   5.505  12.819  0.6685  0.3211 -1.3502
   8323SM  H15B11000   4.532   5.658  12.907  1.5378  1.1018 -3.0629
   8323SM  H15C11001   4.597   5.508  12.976 -1.9189 -0.9208 -0.4036
   8323SM   C1411002   4.805   5.472  12.854  0.0504  0.3738 -0.6275
   8323SM  H14A11003   4.742   5.397  12.810  0.0673 -0.2069  0.3010
   8323SM  H14B11004   4.819   5.436  12.955 -0.6644 -0.2523 -0.7426
   8323SM  H14C11005   4.904   5.485  12.813  1.0473 -1.1271  1.1329
   8323SM   C1311006   4.715   5.651  12.706  0.0391  0.6153 -0.6188
   8323SM  H13A11007   4.682   5.754  12.697 -0.3533  0.5220 -0.3090
   8323SM  H13B11008   4.651   5.590  12.644  0.1161  0.7200 -0.8011
   8323SM  H13C11009   4.809   5.632  12.656  0.1588 -1.4377  0.2839
   8323SM   C1211010   4.794   5.704  12.934 -0.7188 -0.8361 -0.0070
   8323SM  H12A11011   4.731   5.791  12.946  1.0131  0.1572  2.9197
   8323SM  H12B11012   4.878   5.736  12.874  0.1218  1.0561  2.0524
   8323SM   C1111013   4.840   5.671  13.074 -0.1138 -0.0328  0.4100
   8323SM  H11A11014   4.897   5.746  13.133  0.5802  0.4730 -0.8652
   8323SM  H11B11015   4.917   5.591  13.070  2.0450  1.9820 -0.9949
   8323SM     P11016   4.629   5.708  13.222 -0.1452  0.2487  0.6756
   8323SM   O1311017   4.636   5.847  13.165 -0.3199  0.1819 -0.3609
   8323SM   O1411018   4.497   5.647  13.219 -0.2309  0.1364 -0.2118
   8323SM   O1111019   4.690   5.715  13.373  0.2896 -0.0810  0.6142
   8323SM   O1211020   4.733   5.607  13.149  0.0618 -0.0145 -0.4118
   8323SM   C1S11021   4.812   5.655  13.413  0.2981 -0.1549 -0.1180
   8323SM   H1S11022   4.891   5.670  13.337 -0.0175  2.7320  0.0468
   8323SM   H1T11023   4.797   5.545  13.422 -0.2735 -0.0266  0.6292
   8323SM    NF11024   5.005   5.684  13.566  0.7143  0.1249 -0.5261
   8323SM   HNF11025   5.033   5.618  13.635  0.3169  0.4610 -0.0360
   8323SM   C2S11026   4.861   5.710  13.545  0.1015  0.3430 -1.3643
   8323SM   H2S11027   4.860   5.821  13.550  1.9988  0.3348  0.2598
   8323SM   C3S11028   4.769   5.652  13.657  0.1200 -0.0817 -0.6484
   8323SM   H3S11029   4.796   5.545  13.661  2.0738  0.4144  0.9697
   8323SM    O311030   4.627   5.654  13.630  0.5272  0.0150  0.0723
   8323SM   HO311031   4.625   5.689  13.540  0.9919 -0.1343  0.0006
   8323SM   C4S11032   4.799   5.693  13.798  0.2777 -0.8052 -0.7247
   8323SM   H4S11033   4.885   5.632  13.827  0.4816  0.1952  0.9191
   8323SM   C5S11034   4.735   5.780  13.879 -0.1594  0.2607  0.2676
   8323SM   H5S11035   4.657   5.839  13.829 -0.1937  0.8421  0.9992
   8323SM   C6S11036   4.749   5.815  14.026  1.0634  0.4429  0.6329
   8323SM   H6S11037   4.659   5.779  14.081  0.7104 -1.9221 -1.3318
   8323SM   H6T11038   4.736   5.925  14.028  2.4261  0.6245  0.2967
   8323SM   C7S11039   4.878   5.770  14.089  0.4700  0.0098  0.3647
   8323SM   H7S11040   4.963   5.776  14.018 -0.4038  1.9543 -0.5966
   8323SM   H7T11041   4.882   5.664  14.121  0.6013  0.6387  2.5797
   8323SM   C8S11042   4.918   5.839  14.224 -0.0161  0.7248  0.6370
   8323SM   H8S11043   4.833   5.846  14.295 -0.2021 -0.5276  0.5529
   8323SM   H8T11044   4.948   5.940  14.188 -1.2636  0.3666 -1.5778
   8323SM   C9S11045   5.034   5.768  14.289 -0.6309 -0.3077 -0.1749
   8323SM   H9S11046   5.057   5.679  14.227  1.9916 -0.5482  1.0196
   8323SM   H9T11047   5.016   5.731  14.392  0.0556 -0.5778 -0.1454
   8323SM  C10S11048   5.157   5.862  14.284  0.4480  0.9577 -0.1627
   8323SM  H10S11049   5.130   5.968  14.304 -2.4411  0.1160  0.9676
   8323SM  H10T11050   5.190   5.863  14.177  0.9951  0.7228  0.0023
   8323SM  C11S11051   5.289   5.822  14.361  0.5969 -0.3840  0.2414
   8323SM  H11S11052   5.360   5.907  14.358 -1.3036  1.4031  2.3381
   8323SM  H11T11053   5.332   5.739  14.301 -0.2033 -0.3761 -0.3617
   8323SM  C12S11054   5.273   5.792  14.511 -0.1107  0.3186  1.2227
   8323SM  H12S11055   5.240   5.686  14.523  0.7694 -0.0687  0.3552
   8323SM  H12T11056   5.181   5.847  14.541 -0.8815 -1.5956  2.6090
   8323SM  C13S11057   5.388   5.833  14.600 -0.1104  0.0401 -0.3686
   8323SM  H13S11058   5.390   5.943  14.609 -0.5682  0.1720 -1.6988
   8323SM  H13T11059   5.483   5.786  14.567 -0.4482 -1.5339  0.7505
   8323SM  C14S11060   5.351   5.798  14.749 -0.0687 -1.0138  0.1423
   8323SM  H14S11061   5.314   5.694  14.735 -0.2779 -0.7248 -1.6467
   8323SM  H14T11062   5.266   5.850  14.798  0.9379  0.4872  0.3667
   8323SM  C15S11063   5.472   5.806  14.841 -0.0121  0.0830 -0.0987
   8323SM  H15S11064   5.508   5.911  14.840  0.2600  0.1493  3.1504
   8323SM  H15T11065   5.557   5.742  14.809  0.6446  0.4977  0.7515
   8323SM  C16S11066   5.446   5.771  14.991 -0.3558  0.0743 -0.6067
   8323SM  H16S11067   5.431   5.661  14.992 -2.2493  0.2575  2.4369
   8323SM  H16T11068   5.345   5.810  15.012 -0.3036 -0.4287  0.6849
   8323SM  C17S11069   5.544   5.819  15.091 -0.0023 -0.4580 -0.4384
   8323SM  H17S11070   5.519   5.770  15.187  2.2975  0.3855  0.6569
   8323SM  H17T11071   5.544   5.930  15.100 -0.0073 -0.3700 -1.4034
   8323SM  C18S11072   5.689   5.781  15.052 -0.6122  0.6079 -0.6041
   8323SM  H18S11073   5.765   5.799  15.131 -0.3788  0.0364 -0.6967
   8323SM  H18T11074   5.718   5.845  14.966 -1.2983  0.1050 -1.2142
   8323SM  H18U11075   5.696   5.677  15.015 -1.0965  0.9981 -1.8638
   8323SM   C1F11076   5.089   5.756  13.500 -0.3018 -0.1962  0.4888
   8323SM    OF11077   5.047   5.836  13.418  0.2466 -0.2411  0.5577
   8323SM   C2F11078   5.232   5.728  13.522 -0.6397  0.0731 -0.1572
   8323SM   H2F11079   5.290   5.718  13.428 -1.1194 -0.2888 -0.4171
   8323SM   H2G11080   5.237   5.634  13.581  1.0084  0.8343  0.9881
   8323SM   C3F11081   5.297   5.851  13.598 -0.3145 -0.1668 -0.2822
   8323SM   H3F11082   5.299   5.940  13.531  1.1576 -0.0734 -0.1488
   8323SM   H3G11083   5.405   5.843  13.621 -0.5637  1.2873  1.7144
   8323SM   C4F11084   5.232   5.892  13.736  0.0330  0.1067 -0.0300
   8323SM   H4F11085   5.129   5.932  13.721  0.2764  0.1386 -1.7764
   8323SM   H4G11086   5.286   5.974  13.788  1.2289 -1.0263  0.5534
   8323SM   C5F11087   5.233   5.788  13.847  0.1058 -0.2960  0.8942
   8323SM   H5F11088   5.186   5.695  13.809 -0.6563  0.7992 -0.9833
   8323SM   H5G11089   5.187   5.829  13.939 -2.2060 -2.4724  0.8246
   8323SM   C6F11090   5.377   5.752  13.887  0.4743  0.9041 -0.6272
   8323SM   H6F11091   5.440   5.835  13.925  0.2276  0.0289  1.8639
   8323SM   H6G11092   5.429   5.699  13.804 -0.9254 -2.2911  0.3756
   8323SM   C7F11093   5.372   5.640  13.991 -0.3017  0.4368 -0.2981
   8323SM   H7F11094   5.297   5.562  13.967 -2.5594  2.4049 -0.0578
   8323SM   H7G11095   5.342   5.688  14.086  1.0275  1.4601 -0.3549
   8323SM   C8F11096   5.516   5.573  14.009  0.3103  0.0617  0.4890
   8323SM   H8F11097   5.539   5.534  13.907 -0.4451  1.9290 -0.4293
   8323SM   H8G11098   5.504   5.498  14.090 -2.8823  1.2378  1.2667
   8323SM   C9F11099   5.637   5.662  14.032  0.6719 -0.1162 -0.1676
   8323SM   H9F11100   5.629   5.738  13.952  0.8118  0.4771  0.3712
   8323SM   H9G11101   5.731   5.605  14.017  1.1266  0.1297  1.5725
   8323SM  C10F11102   5.627   5.734  14.176 -0.4813 -0.4609  0.3448
   8323SM  H10F11103   5.525   5.775  14.185 -1.2915 -2.2985  0.1466
   8323SM  H10G11104   5.697   5.820  14.178 -1.8588  0.7846 -1.6136
   8323SM  C11F11105   5.651   5.646  14.295 -0.1582  0.8081  0.1969
   8323SM  H11F11106   5.614   5.544  14.271 -0.0101  0.8807 -0.3432
   8323SM  H11G11107   5.593   5.683  14.383 -0.4368 -0.2185  0.4601
   8323SM  C12F11108   5.798   5.611  14.321  0.6544 -0.8406 -0.4127
   8323SM  H12F11109   5.841   5.714  14.321 -1.0610  0.0009  2.8504
   8323SM  H12G11110   5.847   5.538  14.253 -0.5041 -1.4346 -0.6183
   8323SM  C13F11111   5.817   5.561  14.469 -0.1784 -0.1795 -0.5444
   8323SM  H13F11112   5.925   5.536  14.480  0.4534  2.6115  0.4029
   8323SM  H13G11113   5.749   5.474  14.481 -1.8733  1.4164  2.7817
   8323SM  C14F11114   5.788   5.670  14.578  0.1230  0.2793 -0.0468
   8323SM  H14F11115   5.836   5.643  14.674  1.3814 -3.3045 -1.5013
   8323SM  H14G11116   5.679   5.655  14.596  0.0481 -1.5978 -1.7213
   8323SM  C15F11117   5.819   5.817  14.536 -0.5179 -0.0467  0.2674
   8323SM  H15F11118   5.761   5.843  14.445  2.7741 -0.2702 -2.1144
   8323SM  H15G11119   5.926   5.808  14.506 -0.6050 -1.1839  0.2660
   8323SM  C16F11120   5.808   5.914  14.656  0.0971 -0.7209 -0.2690
   8323SM  H16F11121   5.886   5.887  14.730 -0.8564  4.0798  2.9332
   8323SM  H16G11122   5.705   5.906  14.698  0.8018  1.6114  2.1858
   8323SM  C17F11123   5.834   6.060  14.608 -0.1996 -0.7688  0.2527
   8323SM  H17F11124   5.785   6.088  14.513  2.2534 -0.5475 -1.0296
   8323SM  H17G11125   5.941   6.058  14.578 -0.5345  2.1920 -1.5036
   8323SM  C18F11126   5.798   6.155  14.725 -0.4859 -0.0153 -0.5796
   8323SM  H18F11127   5.862   6.245  14.729 -1.9950  1.0495  0.9375
   8323SM  H18G11128   5.811   6.103  14.822 -0.1660 -0.1721 -0.7069
   8323SM  C19F11129   5.649   6.198  14.733 -0.2130  0.0942  0.5033
   8323SM  H19F11130   5.589   6.105  14.718  0.9123 -0.6116  0.2111
   8323SM  H19G11131   5.620   6.250  14.640  0.9151  0.1889  0.1953
   8323SM  C20F11132   5.614   6.266  14.865 -0.1742  0.0990  0.0103
   8323SM  H20F11133   5.633   6.189  14.943  2.7311  0.6763 -0.0472
   8323SM  H20G11134   5.503   6.275  14.861 -0.1486  0.1672 -0.8659
   8323SM  C21F11135   5.692   6.390  14.903  0.0682 -0.1444 -0.1032
   8323SM  H21F11136   5.681   6.462  14.819 -1.8771  0.4162  0.5659
   8323SM  H21G11137   5.802   6.376  14.912  0.6124  1.0545 -3.4578
   8323SM  C22F11138   5.637   6.459  15.028 -0.2672  0.3084 -0.2204
   8323SM  H22F11139   5.530   6.487  15.014 -0.4252  0.8413  1.7344
   8323SM  H22G11140   5.693   6.552  15.048 -1.1731  0.6943  0.6360
   8323SM  C23F11141   5.663   6.364  15.151 -0.0153 -0.1044  0.0103
   8323SM  H23F11142   5.664   6.424  15.244  0.0680  1.6717 -1.1041
   8323SM  H23G11143   5.749   6.295  15.132  0.1232 -0.1574  0.7802
   8323SM  H23H11144   5.587   6.288  15.179  0.4176 -1.0295 -1.2038
   8423SM     N11145   5.081   2.608  13.065 -0.4369 -0.3149 -0.0761
   8423SM   C1511146   5.223   2.558  13.062  0.6007 -0.2309 -0.8765
   8423SM  H15A11147   5.289   2.639  13.035 -0.8080  1.4340  0.4211
   8423SM  H15B11148   5.244   2.483  12.986  0.1399 -1.8022  0.4727
   8423SM  H15C11149   5.254   2.524  13.160 -0.0019  0.2600 -0.5103
   8423SM   C1411150   5.026   2.603  12.926  0.3867  0.1422  0.7215
   8423SM  H14A11151   5.008   2.502  12.890 -0.6807  1.1501 -1.8049
   8423SM  H14B11152   5.089   2.655  12.857  0.2243 -0.6525 -0.0430
   8423SM  H14C11153   4.926   2.644  12.937  0.4563  0.2200  1.0645
   8423SM   C1311154   5.008   2.522  13.167 -0.1593 -0.0193 -0.0551
   8423SM  H13A11155   5.054   2.537  13.264 -0.7318  2.2571 -0.0682
   8423SM  H13B11156   5.016   2.418  13.139 -1.3708  0.3190 -1.7482
   8423SM  H13C11157   4.906   2.554  13.178 -0.2621 -0.1837 -0.5338
   8423SM   C1211158   5.089   2.751  13.118 -0.0776 -0.8301  0.0110
   8423SM  H12A11159   5.157   2.811  13.059  0.8622 -0.9473  0.9318
   8423SM  H12B11160   5.142   2.752  13.212  0.2656  1.6065 -0.1429
   8423SM   C1111161   4.956   2.830  13.131  0.3358  0.2014 -0.7277
   8423SM  H11A11162   4.983   2.923  13.186  0.4083  0.1513 -0.6779
   8423SM  H11B11163   4.899   2.783  13.213  0.8048  1.6525  0.4741
   8423SM     P11164   4.840   3.001  12.994 -0.0574  0.1793  0.6514
   8423SM   O1311165   4.952   3.093  12.965 -0.1372 -0.2544  0.0657
   8423SM   O1411166   4.725   3.003  12.900  0.3447 -0.0465 -0.1490
   8423SM   O1111167   4.788   3.034  13.141  0.0261 -0.3061  0.5440
   8423SM   O1211168   4.880   2.850  13.011 -0.2152  0.4282  0.3072
   8423SM   C1S11169   4.668   2.970  13.189 -0.1710  0.7725  0.7472
   8423SM   H1S11170   4.661   2.863  13.161  1.1194  0.3498  1.9146
   8423SM   H1T11171   4.582   3.016  13.136 -1.4775 -2.1934  0.1067
   8423SM    NF11172   4.552   2.885  13.392 -0.5713  0.2110  0.3505
   8423SM   HNF11173   4.469   2.931  13.423  0.2471  2.4758 -0.6438
   8423SM   C2S11174   4.660   2.961  13.343 -0.4305 -0.6514 -0.1920
   8423SM   H2S11175   4.752   2.909  13.378 -1.4437 -1.0061  2.0987
   8423SM   C3S11176   4.664   3.104  13.406 -0.4733  0.2641 -0.3201
   8423SM   H3S11177   4.587   3.177  13.373 -0.4380  1.2486  1.6181
   8423SM    O311178   4.781   3.194  13.379  0.2391  0.1559 -0.5633
   8423SM   HO311179   4.831   3.145  13.313  1.2138 -0.9636  0.9478
   8423SM   C4S11180   4.623   3.105  13.553 -1.2199 -0.1079 -0.6799
   8423SM   H4S11181   4.516   3.083  13.570 -0.8833 -0.9586  0.4362
   8423SM   C5S11182   4.707   3.103  13.658 -0.2982 -0.6508  0.5074
   8423SM   H5S11183   4.817   3.091  13.653 -0.5621 -2.9690 -0.9104
   8423SM   C6S11184   4.666   3.091  13.799 -0.2407 -0.3497  0.3050
   8423SM   H6S11185   4.697   3.174  13.865  1.0351  0.6999 -1.5354
   8423SM   H6T11186   4.705   2.998  13.846  1.0291  0.5351  1.0476
   8423SM   C7S11187   4.511   3.066  13.834  0.3932  0.3786 -0.9695
   8423SM   H7S11188   4.472   2.978  13.780 -0.4391 -0.2327  0.5595
   8423SM   H7T11189   4.466   3.160  13.796  0.9581  2.0679  2.1233
   8423SM   C8S11190   4.485   3.068  13.986 -0.4832  0.3262  0.7326
   8423SM   H8S11191   4.552   2.987  14.020 -0.5173 -1.1322 -2.3907
   8423SM   H8T11192   4.387   3.022  14.008 -0.4837 -0.5168 -0.9376
   8423SM   C9S11193   4.485   3.205  14.050 -0.0960  1.0328 -0.1417
   8423SM   H9S11194   4.404   3.270  14.012 -1.2731  1.7425  3.2484
   8423SM   H9T11195   4.585   3.246  14.022  0.1292 -0.5716 -1.9326
   8423SM  C10S11196   4.481   3.203  14.203 -0.7049 -0.5216 -0.2407
   8423SM  H10S11197   4.488   3.310  14.235  0.5830 -0.3206 -1.0973
   8423SM  H10T11198   4.564   3.139  14.239 -1.1073 -0.6912  0.3959
   8423SM  C11S11199   4.357   3.151  14.273 -0.7905  0.3669  1.0134
   8423SM  H11S11200   4.335   3.046  14.242  2.5289  0.0612 -0.7988
   8423SM  H11T11201   4.270   3.216  14.249 -1.0956 -0.9152 -1.7862
   8423SM  C12S11202   4.378   3.138  14.426  0.1784 -0.2302  0.9967
   8423SM  H12S11203   4.464   3.071  14.446  0.9038  0.4618  0.2789
   8423SM  H12T11204   4.285   3.093  14.465  0.6739 -2.0664  0.1342
   8423SM  C13S11205   4.400   3.273  14.501  0.3332 -0.4289 -0.2005
   8423SM  H13S11206   4.318   3.345  14.480 -0.6758 -1.5153 -0.0805
   8423SM  H13T11207   4.496   3.322  14.475  0.4038  1.0803  2.5284
   8423SM  C14S11208   4.395   3.255  14.653 -0.3975  0.8453 -0.0717
   8423SM  H14S11209   4.482   3.190  14.673 -0.3701  0.7564 -0.4719
   8423SM  H14T11210   4.302   3.202  14.682  0.8518 -2.7191 -1.9797
   8423SM  C15S11211   4.405   3.384  14.736 -1.0539 -0.3712 -0.2402
   8423SM  H15S11212   4.498   3.431  14.699 -0.4518 -2.6224 -1.8235
   8423SM  H15T11213   4.427   3.360  14.842  1.8755  1.4128 -0.3252
   8423SM  C16S11214   4.283   3.472  14.729  0.3682 -0.0548  0.9010
   8423SM  H16S11215   4.193   3.406  14.726 -0.7784  1.4807 -0.1856
   8423SM  H16T11216   4.273   3.531  14.635  1.0607  0.7505  1.3246
   8423SM  C17S11217   4.272   3.572  14.845 -0.1757 -0.1120 -0.2654
   8423SM  H17S11218   4.338   3.659  14.826  2.0373 -1.7682 -0.5729
   8423SM  H17T11219   4.304   3.524  14.940 -0.7241  0.4763  0.2265
   8423SM  C18S11220   4.133   3.625  14.857  0.0569 -0.0020 -0.3782
   8423SM  H18S11221   4.059   3.543  14.865 -0.7533  0.6878 -0.5675
   8423SM  H18T11222   4.114   3.685  14.765  1.6531  0.1039 -0.6638
   8423SM  H18U11223   4.123   3.688  14.948  0.9470 -2.4807  1.5338
   8423SM   C1F11224   4.542   2.746  13.364 -0.5441 -0.0006  0.6240
   8423SM    OF11225   4.645   2.680  13.337 -0.1170  0.1115  0.4672
   8423SM   C2F11226   4.407   2.693  13.392 -0.8216 -0.1886  0.1796
   8423SM   H2F11227   4.394   2.623  13.306  0.7758 -0.6007  0.2494
   8423SM   H2G11228   4.335   2.777  13.381  0.8943  1.3365  0.2153
   8423SM   C3F11229   4.402   2.615  13.525 -0.4724  0.2281  0.3718
   8423SM   H3F11230   4.477   2.533  13.521  0.0955  0.7689 -0.5973
   8423SM   H3G11231   4.305   2.562  13.534 -0.0854 -0.2725  1.7562
   8423SM   C4F11232   4.429   2.698  13.652 -0.0339  0.3255  0.4015
   8423SM   H4F11233   4.380   2.798  13.649  1.6817  1.1885 -0.2336
   8423SM   H4G11234   4.532   2.741  13.653  0.5958 -0.9672 -1.5984
   8423SM   C5F11235   4.381   2.623  13.775 -0.0730  0.4723 -0.1458
   8423SM   H5F11236   4.445   2.533  13.789 -0.8760  0.0793  1.1156
   8423SM   H5G11237   4.278   2.592  13.751 -0.2314  1.0614 -0.2522
   8423SM   C6F11238   4.369   2.715  13.898 -0.3523  0.1784  0.4750
   8423SM   H6F11239   4.304   2.803  13.879  1.6192  1.1960 -2.0469
   8423SM   H6G11240   4.469   2.755  13.922 -0.0963 -0.8536  1.2035
   8423SM   C7F11241   4.311   2.633  14.017  0.1119  0.0895 -0.3719
   8423SM   H7F11242   4.384   2.555  14.048  0.4510  1.1231  1.6227
   8423SM   H7G11243   4.216   2.578  14.002  0.2036 -0.1736  0.0097
   8423SM   C8F11244   4.281   2.736  14.128  0.5810 -0.4644 -0.4552
   8423SM   H8F11245   4.177   2.770  14.108  0.6972 -0.8533 -1.7945
   8423SM   H8G11246   4.345   2.827  14.127 -1.5597  1.1295  0.0218
   8423SM   C9F11247   4.291   2.679  14.269  0.1139  0.2058  0.2051
   8423SM   H9F11248   4.391   2.630  14.265 -0.2074 -0.7848  2.5558
   8423SM   H9G11249   4.207   2.607  14.285 -0.0451  0.2710 -0.3389
   8423SM  C10F11250   4.307   2.772  14.388 -0.0288 -0.8484 -0.4841
   8423SM  H10F11251   4.218   2.838  14.398  1.1817  0.6676  0.8288
   8423SM  H10G11252   4.389   2.843  14.363  1.6491 -2.5421  0.0051
   8423SM  C11F11253   4.336   2.707  14.524 -0.5717 -0.8975 -0.0275
   8423SM  H11F11254   4.355   2.806  14.571  0.5009 -0.0177 -2.1453
   8423SM  H11G11255   4.437   2.663  14.510 -0.5326 -1.4781  1.8694
   8423SM  C12F11256   4.235   2.600  14.559 -0.2183 -0.7636 -0.0183
   8423SM  H12F11257   4.236   2.515  14.486  0.2544 -1.2697  0.5676
   8423SM  H12G11258   4.133   2.643  14.564  0.5698  1.0314  1.9995
   8423SM  C13F11259   4.271   2.533  14.698 -0.0313 -0.0839  0.3085
   8423SM  H13F11260   4.371   2.487  14.688 -0.4799 -1.0015 -0.1220
   8423SM  H13G11261   4.193   2.456  14.721 -1.0950  1.6513  3.0883
   8423SM  C14F11262   4.264   2.628  14.813 -0.4090 -0.2418  0.2973
   8423SM  H14F11263   4.164   2.676  14.821  0.1939  1.0415  0.4040
   8423SM  H14G11264   4.335   2.713  14.799  1.1864 -1.6006 -0.2471
   8423SM  C15F11265   4.288   2.562  14.956 -0.0808  0.1710 -0.4933
   8423SM  H15F11266   4.224   2.476  14.982  0.8647  0.0046  1.5131
   8423SM  H15G11267   4.246   2.632  15.031  0.4639 -0.3819  0.3530
   8423SM  C16F11268   4.432   2.518  14.966 -0.4385 -0.3830 -0.3883
   8423SM  H16F11269   4.487   2.608  14.932 -0.3602 -1.5641 -3.7737
   8423SM  H16G11270   4.445   2.439  14.889 -1.6659 -0.3496 -0.6452
   8423SM  C17F11271   4.465   2.470  15.108  0.4611  0.1001  0.0583
   8423SM  H17F11272   4.432   2.365  15.121  2.5491 -0.7092 -0.7364
   8423SM  H17G11273   4.403   2.518  15.187  0.5713 -1.7205  1.3154
   8423SM  C18F11274   4.615   2.468  15.138  0.0531 -0.2230  0.6346
   8423SM  H18F11275   4.654   2.571  15.143  0.1287 -0.1274 -1.2473
   8423SM  H18G11276   4.675   2.419  15.058 -0.0451 -1.1607  1.1174
   8423SM  C19F11277   4.646   2.405  15.271 -0.5684  0.4662 -0.0575
   8423SM  H19F11278   4.605   2.302  15.271 -1.6096  0.8236 -2.1196
   8423SM  H19G11279   4.587   2.458  15.348 -1.2145 -0.4804  0.1265
   8423SM  C20F11280   4.802   2.402  15.300 -0.0453 -0.9869 -1.0174
   8423SM  H20F11281   4.852   2.499  15.280 -0.1744 -0.3566  1.3681
   8423SM  H20G11282   4.857   2.321  15.247  2.4470 -0.5013  0.6376
   8423SM  C21F11283   4.842   2.397  15.451  0.5491 -0.0553 -0.5802
   8423SM  H21F11284   4.825   2.296  15.493  0.4573  0.1765 -0.0519
   8423SM  H21G11285   4.778   2.471  15.505 -2.6186 -1.5534 -2.0194
   8423SM  C22F11286   4.994   2.414  15.475  0.6130  0.2829 -0.2564
   8423SM  H22F11287   5.025   2.512  15.433  3.6912 -0.8668 -0.9249
   8423SM  H22G11288   5.052   2.334  15.425 -0.8537 -0.8412 -0.2423
   8423SM  C23F11289   5.031   2.430  15.622 -0.3671 -0.2357  0.5041
   8423SM  H23F11290   5.130   2.476  15.639 -0.5938  0.8787 -1.0297
   8423SM  H23G11291   5.038   2.328  15.667 -0.6266 -0.2220  0.5816
   8423SM  H23H11292   4.949   2.484  15.675 -0.6683  1.1050 -1.2323
   8523SM     N11293   6.153   5.579  12.929 -0.0722 -0.9055 -0.6793
   8523SM   C1511294   6.003   5.579  12.926  0.0535  0.1635  0.3077
   8523SM  H15A11295   5.964   5.479  12.921 -0.1861  0.2033  1.1868
   8523SM  H15B11296   5.971   5.632  12.838  0.8707  2.8292  1.5038
   8523SM  H15C11297   5.960   5.632  13.010 -0.8584  1.0218 -0.6712
   8523SM   C1411298   6.210   5.559  12.789  0.3272  0.4921 -0.5476
   8523SM  H14A11299   6.157   5.484  12.733 -1.1157  1.8685 -1.1068
   8523SM  H14B11300   6.312   5.526  12.796  0.6268  1.5538  0.2875
   8523SM  H14C11301   6.206   5.648  12.729  1.4011  2.5891  2.2716
   8523SM   C1311302   6.189   5.714  12.975 -0.4611 -0.2875 -0.4283
   8523SM  H13A11303   6.292   5.743  12.958 -0.2223  0.1932  1.6128
   8523SM  H13B11304   6.150   5.743  13.072  1.2002  1.7597 -0.3015
   8523SM  H13C11305   6.137   5.785  12.912 -2.7961 -0.9907  0.5889
   8523SM   C1211306   6.207   5.483  13.028  0.2831 -0.5759  0.2919
   8523SM  H12A11307   6.210   5.527  13.127  1.3229  2.4440 -0.9547
   8523SM  H12B11308   6.306   5.464  12.990 -0.2555 -2.6792 -0.2061
   8523SM   C1111309   6.144   5.339  13.031 -0.1206  0.0441 -0.2189
   8523SM  H11A11310   6.042   5.362  13.067 -0.9471  1.9590 -3.3337
   8523SM  H11B11311   6.193   5.273  13.105 -0.0690  1.0666  0.6884
   8523SM     P11312   6.021   5.186  12.861 -0.0762 -0.1642  0.3881
   8523SM   O1311313   5.902   5.263  12.884 -0.4776 -0.2313 -0.0608
   8523SM   O1411314   6.047   5.129  12.728  0.0931 -0.3209  0.0574
   8523SM   O1111315   6.028   5.077  12.974 -0.3052  0.0642 -0.0107
   8523SM   O1211316   6.141   5.276  12.902  0.0916 -0.2317 -0.3651
   8523SM   C1S11317   6.153   5.015  13.009  0.7578 -0.6594  0.8863
   8523SM   H1S11318   6.235   5.088  13.025 -1.5675  2.3619 -0.1675
   8523SM   H1T11319   6.185   4.946  12.928 -2.9711 -2.3695  0.6947
   8523SM    NF11320   6.267   4.873  13.171  0.7611 -0.0721  0.2281
   8523SM   HNF11321   6.275   4.774  13.155  1.1587 -0.1175  0.6884
   8523SM   C2S11322   6.140   4.929  13.138  0.0629 -0.0021  0.1479
   8523SM   H2S11323   6.101   5.001  13.213 -0.5217 -0.2473  0.0934
   8523SM   C3S11324   6.033   4.823  13.102 -0.4749  0.0813 -0.0840
   8523SM   H3S11325   6.064   4.772  13.008  3.2775  0.6654  0.6848
   8523SM    O311326   5.903   4.879  13.081  0.2511  0.4140 -0.1170
   8523SM   HO311327   5.917   4.959  13.031 -2.5282  1.0112 -0.0528
   8523SM   C4S11328   6.027   4.713  13.206 -0.1041 -0.4060 -0.4917
   8523SM   H4S11329   6.000   4.748  13.307 -0.5713 -0.5573 -0.5590
   8523SM   C5S11330   6.043   4.580  13.189  0.2952 -0.4178 -0.3173
   8523SM   H5S11331   6.056   4.543  13.086 -1.5808 -1.0357 -0.3621
   8523SM   C6S11332   6.030   4.469  13.287 -0.2619  0.2680 -0.3064
   8523SM   H6S11333   6.086   4.377  13.261  1.4957  1.6407 -1.6866
   8523SM   H6T11334   5.926   4.430  13.287 -0.7095  1.3570 -1.8372
   8523SM   C7S11335   6.081   4.511  13.425 -0.4901 -0.1952  0.5085
   8523SM   H7S11336   6.035   4.601  13.472  3.2176  3.3248 -1.8236
   8523SM   H7T11337   6.189   4.537  13.420 -0.2398 -0.5929  2.9745
   8523SM   C8S11338   6.084   4.393  13.518 -0.2206 -0.3201 -0.2226
   8523SM   H8S11339   6.084   4.297  13.463  1.8385  1.1691 -3.0273
   8523SM   H8T11340   5.991   4.395  13.579 -0.8181  2.0103 -1.1018
   8523SM   C9S11341   6.210   4.398  13.604  0.1951 -0.3369 -0.4992
   8523SM   H9S11342   6.301   4.384  13.541  0.2802 -0.5150 -0.3371
   8523SM   H9T11343   6.205   4.312  13.674 -1.9634  0.5922  0.5662
   8523SM  C10S11344   6.224   4.522  13.702 -0.1327  0.8755  0.7687
   8523SM  H10S11345   6.123   4.549  13.741  0.9041 -0.5820  5.0637
   8523SM  H10T11346   6.274   4.607  13.651  3.0680  0.6264  3.1336
   8523SM  C11S11347   6.307   4.484  13.829 -0.3314  0.4651 -0.0009
   8523SM  H11S11348   6.408   4.452  13.795 -0.2400  0.5208  0.2133
   8523SM  H11T11349   6.259   4.400  13.883  4.0221 -3.0309 -0.9793
   8523SM  C12S11350   6.303   4.591  13.940  0.6018  0.1144  0.0969
   8523SM  H12S11351   6.198   4.624  13.958  0.4122  1.7400 -3.1302
   8523SM  H12T11352   6.342   4.687  13.901  0.0610  1.5348  2.8037
   8523SM  C13S11353   6.366   4.553  14.077 -0.3728  0.1741 -0.4382
   8523SM  H13S11354   6.474   4.531  14.062 -0.7693 -2.9808  0.6353
   8523SM  H13T11355   6.308   4.465  14.111 -1.5040  0.3961 -1.7242
   8523SM  C14S11356   6.346   4.657  14.188  0.9754 -0.2065  0.0034
   8523SM  H14S11357   6.238   4.649  14.215  0.6048 -2.0986 -1.8063
   8523SM  H14T11358   6.364   4.761  14.153 -1.1948  1.0253  2.1964
   8523SM  C15S11359   6.427   4.632  14.319 -0.3640  0.1871 -0.5634
   8523SM  H15S11360   6.532   4.654  14.287 -0.6424  1.7116 -0.5025
   8523SM  H15T11361   6.414   4.526  14.351  0.5810 -0.2140 -1.4567
   8523SM  C16S11362   6.399   4.721  14.448 -0.6965 -0.1857  0.3156
   8523SM  H16S11363   6.485   4.791  14.446 -0.1441 -0.8722 -1.8425
   8523SM  H16T11364   6.396   4.660  14.541  1.1988  0.7842  1.0760
   8523SM  C17S11365   6.272   4.795  14.448  0.3841  0.1335 -0.4136
   8523SM  H17S11366   6.194   4.728  14.407  0.9233 -1.2607  0.7258
   8523SM  H17T11367   6.273   4.876  14.372  0.9430  0.4349 -0.0915
   8523SM  C18S11368   6.218   4.854  14.577 -0.1347  0.0989 -0.1265
   8523SM  H18S11369   6.124   4.914  14.566 -0.3065 -0.1170  0.1381
   8523SM  H18T11370   6.301   4.902  14.633  1.1918 -1.7915 -0.3752
   8523SM  H18U11371   6.203   4.769  14.647  0.8365 -0.8856 -1.0955
   8523SM   C1F11372   6.369   4.943  13.226 -0.5679 -0.2224 -0.5039
   8523SM    OF11373   6.347   5.059  13.262 -0.1264 -0.2758 -0.2228
   8523SM   C2F11374   6.495   4.874  13.263  0.6408  0.6544  0.2708
   8523SM   H2F11375   6.575   4.950  13.274  2.3987 -1.0885  0.0067
   8523SM   H2G11376   6.523   4.817  13.171  0.7837 -1.3272  1.4825
   8523SM   C3F11377   6.488   4.785  13.381 -0.6775  0.2245  1.3702
   8523SM   H3F11378   6.394   4.728  13.390 -1.1203  0.7425  0.2730
   8523SM   H3G11379   6.482   4.859  13.464  0.8865  1.3647  0.5256
   8523SM   C4F11380   6.616   4.702  13.403  0.2957  0.4034 -0.2292
   8523SM   H4F11381   6.702   4.765  13.370 -0.3447  1.0542 -0.6999
   8523SM   H4G11382   6.607   4.616  13.333 -0.3026  0.4974 -0.2742
   8523SM   C5F11383   6.627   4.651  13.551  0.0946  0.2412  0.1282
   8523SM   H5F11384   6.713   4.580  13.558 -0.6325 -0.8760 -1.7027
   8523SM   H5G11385   6.533   4.596  13.571  0.7525 -0.6657  0.8504
   8523SM   C6F11386   6.641   4.756  13.664 -0.2212 -0.0221  0.5170
   8523SM   H6F11387   6.549   4.818  13.672 -0.0869  0.6117 -2.1273
   8523SM   H6G11388   6.723   4.825  13.635 -0.2801 -1.1113 -2.6204
   8523SM   C7F11389   6.672   4.693  13.799  0.3911  0.3221 -0.2699
   8523SM   H7F11390   6.773   4.646  13.789 -0.9337 -2.4229 -1.8776
   8523SM   H7G11391   6.599   4.614  13.826  0.4209  0.4531  0.2007
   8523SM   C8F11392   6.662   4.795  13.912 -0.2051  0.3581  1.2798
   8523SM   H8F11393   6.554   4.815  13.928 -0.0215  2.6836  0.0381
   8523SM   H8G11394   6.710   4.895  13.903 -0.6895  0.7946  3.0744
   8523SM   C9F11395   6.706   4.740  14.049  0.9919 -0.0598  0.2151
   8523SM   H9F11396   6.702   4.629  14.046 -0.2496 -0.0143 -0.2830
   8523SM   H9G11397   6.630   4.758  14.128  0.7985  0.7703 -0.1411
   8523SM  C10F11398   6.846   4.786  14.092 -0.2423  0.2794  0.3862
   8523SM  H10F11399   6.905   4.763  14.000 -0.5108 -0.1861  0.3287
   8523SM  H10G11400   6.881   4.729  14.180 -0.4330  0.0254  0.2985
   8523SM  C11F11401   6.853   4.937  14.129  0.2796 -0.1169  0.7856
   8523SM  H11F11402   6.782   4.948  14.214 -0.6089  0.4199  0.0005
   8523SM  H11G11403   6.827   4.996  14.039  1.5502  3.1957  2.4114
   8523SM  C12F11404   6.997   4.984  14.163  0.0051  0.7539 -0.0762
   8523SM  H12F11405   6.992   5.095  14.171  3.0192  1.1432 -1.9269
   8523SM  H12G11406   7.068   4.949  14.085 -1.0228  2.3353 -1.7950
   8523SM  C13F11407   7.066   4.933  14.295 -0.0712 -0.7477  0.0143
   8523SM  H13F11408   7.077   4.823  14.294  0.1586 -0.7712  2.2325
   8523SM  H13G11409   7.006   4.953  14.386 -0.0315 -0.7214  0.0348
   8523SM  C14F11410   7.203   4.997  14.336 -0.0385 -0.0908 -0.5658
   8523SM  H14F11411   7.225   4.939  14.428 -0.4914 -0.3129 -0.5956
   8523SM  H14G11412   7.181   5.100  14.373  1.2055 -0.7885  2.4050
   8523SM  C15F11413   7.310   4.979  14.230  0.2497 -0.1052  0.2115
   8523SM  H15F11414   7.293   5.043  14.141  2.4288  1.8423  1.0968
   8523SM  H15G11415   7.311   4.870  14.209  1.7138 -0.2229  0.8225
   8523SM  C16F11416   7.452   5.021  14.289 -0.4558  0.0040 -0.1135
   8523SM  H16F11417   7.468   4.964  14.383 -2.4597  1.6072  1.2982
   8523SM  H16G11418   7.455   5.130  14.312 -0.2782 -0.1955  0.8799
   8523SM  C17F11419   7.580   4.990  14.203 -0.4695 -0.0868  0.6823
   8523SM  H17F11420   7.562   5.042  14.106 -0.4667 -0.1467  0.6495
   8523SM  H17G11421   7.602   4.882  14.195 -1.5283 -0.5824  3.2672
   8523SM  C18F11422   7.703   5.067  14.257 -0.9137 -0.4081  0.3085
   8523SM  H18F11423   7.687   5.177  14.269  2.8595  0.3877 -0.4976
   8523SM  H18G11424   7.777   5.065  14.174 -2.2573 -0.3529 -0.9181
   8523SM  C19F11425   7.785   5.022  14.385 -0.5891 -0.5693  0.4237
   8523SM  H19F11426   7.877   5.084  14.390 -0.0550 -1.3568  0.7421
   8523SM  H19G11427   7.814   4.918  14.355  2.1509  0.6270 -1.5300
   8523SM  C20F11428   7.726   5.036  14.522 -0.5481 -0.1380 -0.5632
   8523SM  H20F11429   7.805   5.006  14.594 -0.3455  1.2849 -0.1438
   8523SM  H20G11430   7.644   4.962  14.532  0.3643 -1.2582 -1.1789
   8523SM  C21F11431   7.677   5.179  14.556 -0.1477  0.3633 -0.2701
   8523SM  H21F11432   7.597   5.205  14.483  1.1388  1.8887 -1.2007
   8523SM  H21G11433   7.755   5.256  14.537 -2.9141  3.5688  0.3704
   8523SM  C22F11434   7.626   5.194  14.699 -0.0704 -0.1502 -0.3400
   8523SM  H22F11435   7.701   5.176  14.779  0.6955 -1.8589 -1.3918
   8523SM  H22G11436   7.547   5.123  14.731  0.7948 -0.6960  0.6550
   8523SM  C23F11437   7.576   5.340  14.738 -0.0632 -0.4093  0.9643
   8523SM  H23F11438   7.485   5.371  14.683  0.0754 -1.2495  0.2331
   8523SM  H23G11439   7.656   5.413  14.714 -1.7144  2.4326  3.4454
   8523SM  H23H11440   7.551   5.346  14.846  0.8672 -0.0488  1.1704
   8623SM     N11441   4.202   2.060  12.976  0.1653  0.4791 -0.0617
   8623SM   C1511442   4.258   2.047  13.111  0.3303 -0.2815 -0.4327
   8623SM  H15A11443   4.210   2.124  13.169  2.1422  1.4071 -1.0617
   8623SM  H15B11444   4.364   2.067  13.114 -0.1547  2.6845  1.8076
   8623SM  H15C11445   4.228   1.950  13.148 -1.8625  0.8614  1.0019
   8623SM   C1411446   4.047   2.063  12.979  0.2973  0.2524 -1.2337
   8623SM  H14A11447   4.010   1.968  13.014  2.6954 -0.4220 -0.2879
   8623SM  H14B11448   4.006   2.070  12.879  0.8659 -1.3326 -1.6098
   8623SM  H14C11449   4.008   2.134  13.050  2.0240 -0.4349  0.4851
   8623SM   C1311450   4.246   2.179  12.905 -0.1199 -0.5146  0.4878
   8623SM  H13A11451   4.350   2.166  12.879  0.1077  0.4981  0.8542
   8623SM  H13B11452   4.245   2.264  12.971 -0.4310 -1.6399  2.0001
   8623SM  H13C11453   4.184   2.202  12.820 -2.8686 -1.4557  2.0933
   8623SM   C1211454   4.244   1.942  12.884 -0.0229  0.0596  0.1142
   8623SM  H12A11455   4.193   1.957  12.790  0.5950  0.4173 -0.1730
   8623SM  H12B11456   4.203   1.850  12.924 -0.4203  0.0666 -0.2707
   8623SM   C1111457   4.398   1.925  12.861  0.1237  0.7042  0.5060
   8623SM  H11A11458   4.451   2.011  12.814  0.6905 -0.8317 -1.8519
   8623SM  H11B11459   4.406   1.851  12.779  2.0639  0.7270  0.6259
   8623SM     P11460   4.430   1.712  13.021  0.1943 -0.1057 -0.1563
   8623SM   O1311461   4.309   1.659  12.955 -0.1137  0.0169  0.2924
   8623SM   O1411462   4.555   1.633  13.015  0.3361 -0.1156  0.2340
   8623SM   O1111463   4.398   1.738  13.175  0.1662 -0.1752  0.3870
   8623SM   O1211464   4.464   1.866  12.969  0.1758  0.1259  0.4324
   8623SM   C1S11465   4.501   1.801  13.259 -0.2025  0.3981 -0.0126
   8623SM   H1S11466   4.515   1.908  13.230  2.0277  0.0104 -0.5554
   8623SM   H1T11467   4.598   1.749  13.256 -0.3104  0.2248 -1.5741
   8623SM    NF11468   4.544   1.899  13.485  0.1324 -0.3179  0.5727
   8623SM   HNF11469   4.616   1.858  13.541  0.9484  1.8854  1.2478
   8623SM   C2S11470   4.454   1.814  13.409  0.5349 -0.0780  0.5007
   8623SM   H2S11471   4.357   1.868  13.402  0.8321  0.3094 -0.8313
   8623SM   C3S11472   4.420   1.674  13.477  0.1269  0.3660  0.2439
   8623SM   H3S11473   4.516   1.617  13.469 -0.5039 -0.7091  0.1353
   8623SM    O311474   4.321   1.604  13.412  0.4454 -0.5744  0.7109
   8623SM   HO311475   4.304   1.652  13.331 -1.3780 -3.4864 -0.7896
   8623SM   C4S11476   4.382   1.697  13.620 -0.2402 -0.3299 -0.3310
   8623SM   H4S11477   4.468   1.682  13.687  0.6051 -0.1870 -1.3607
   8623SM   C5S11478   4.258   1.723  13.663 -0.3499 -0.1983 -0.4709
   8623SM   H5S11479   4.172   1.717  13.595  0.5013  0.3637 -1.6327
   8623SM   C6S11480   4.222   1.749  13.804 -0.3052  0.1624 -0.2517
   8623SM   H6S11481   4.159   1.664  13.838  1.1694 -1.5703 -1.6421
   8623SM   H6T11482   4.158   1.840  13.799  0.8152  1.1222  1.6470
   8623SM   C7S11483   4.338   1.765  13.908  0.4569 -0.6580  0.8917
   8623SM   H7S11484   4.395   1.852  13.870 -2.3662  0.9978  0.1376
   8623SM   H7T11485   4.400   1.673  13.902 -0.2297 -1.0694 -0.1573
   8623SM   C8S11486   4.289   1.813  14.051 -0.8846  0.4777 -0.5539
   8623SM   H8S11487   4.236   1.728  14.099  0.6265 -1.5081 -2.2136
   8623SM   H8T11488   4.223   1.901  14.041  0.2006  1.1448 -2.2755
   8623SM   C9S11489   4.407   1.863  14.135 -0.5489  0.9322  0.0414
   8623SM   H9S11490   4.468   1.935  14.075  1.8060 -0.6074  0.4555
   8623SM   H9T11491   4.467   1.773  14.160 -3.5489 -0.2095  4.0451
   8623SM  C10S11492   4.379   1.918  14.277 -0.1812 -0.8881 -0.0911
   8623SM  H10S11493   4.294   1.988  14.264 -0.6110 -1.5140 -0.7960
   8623SM  H10T11494   4.476   1.969  14.295  0.5530 -1.3756 -2.2358
   8623SM  C11S11495   4.352   1.803  14.378  0.4144 -0.2697  0.5616
   8623SM  H11S11496   4.438   1.788  14.446 -0.1860 -0.6844  1.2519
   8623SM  H11T11497   4.329   1.708  14.326  0.1101  0.0449  0.1052
   8623SM  C12S11498   4.229   1.841  14.461 -0.4815 -0.3405 -0.9677
   8623SM  H12S11499   4.215   1.760  14.536  1.8852  0.0855  0.0600
   8623SM  H12T11500   4.136   1.845  14.402 -0.4876  2.9541 -0.9502
   8623SM  C13S11501   4.255   1.971  14.538  0.0314  0.5233  0.3398
   8623SM  H13S11502   4.158   2.008  14.579 -0.2907 -1.1354  1.1486
   8623SM  H13T11503   4.297   2.052  14.475  2.3137 -1.0466 -0.2992
   8623SM  C14S11504   4.347   1.950  14.661  0.6830  0.1630  0.0825
   8623SM  H14S11505   4.445   1.910  14.628  1.8446  3.4327 -0.8000
   8623SM  H14T11506   4.301   1.882  14.735  1.4068 -1.2691 -0.7455
   8623SM  C15S11507   4.378   2.080  14.733  0.5730 -0.2658 -0.1913
   8623SM  H15S11508   4.409   2.165  14.669 -0.5084 -0.0335 -0.4246
   8623SM  H15T11509   4.466   2.053  14.795  0.7146 -3.1048 -1.4601
   8623SM  C16S11510   4.262   2.142  14.808 -0.1546  0.6700 -0.0970
   8623SM  H16S11511   4.179   2.172  14.740 -0.5453  1.6783  0.8041
   8623SM  H16T11512   4.295   2.231  14.865 -0.5165  1.6989 -1.4354
   8623SM  C17S11513   4.196   2.047  14.907 -0.0028 -0.0481 -0.0181
   8623SM  H17S11514   4.275   2.011  14.976  0.3811 -0.3752 -0.6179
   8623SM  H17T11515   4.146   1.963  14.854 -1.8824  1.4696 -0.7740
   8623SM  C18S11516   4.082   2.109  14.990 -0.0687  0.7901  0.1212
   8623SM  H18S11517   4.030   2.037  15.057 -0.5186  0.6122 -0.4163
   8623SM  H18T11518   3.998   2.148  14.930 -1.7206 -1.7008  0.6592
   8623SM  H18U11519   4.130   2.193  15.045  2.5917 -0.4225 -0.2053
   8623SM   C1F11520   4.550   2.033  13.475 -0.1420 -0.1586  0.0616
   8623SM    OF11521   4.490   2.098  13.392 -0.2396 -0.0995 -0.4886
   8623SM   C2F11522   4.632   2.104  13.578  1.3000  0.2944  0.2918
   8623SM   H2F11523   4.719   2.149  13.526 -0.9585  2.4268 -1.9165
   8623SM   H2G11524   4.652   2.030  13.659  2.5473  1.2190  0.8449
   8623SM   C3F11525   4.555   2.222  13.634 -0.4149 -1.1704  0.3015
   8623SM   H3F11526   4.464   2.191  13.689 -0.2924  0.1339  1.2813
   8623SM   H3G11527   4.530   2.296  13.554 -1.1247  0.8843  2.3204
   8623SM   C4F11528   4.634   2.291  13.746 -0.9147  0.1885 -0.2039
   8623SM   H4F11529   4.625   2.400  13.729 -1.4008  0.1681 -0.1029
   8623SM   H4G11530   4.740   2.258  13.754 -0.3534  2.2761  2.3899
   8623SM   C5F11531   4.570   2.249  13.881 -0.1028 -0.2037 -0.4959
   8623SM   H5F11532   4.548   2.141  13.896  1.7466 -0.4353  1.0152
   8623SM   H5G11533   4.474   2.305  13.882 -1.1244 -1.8992  0.4571
   8623SM   C6F11534   4.651   2.289  14.005 -0.5205  0.0783 -0.6141
   8623SM   H6F11535   4.678   2.395  13.982 -0.6035 -0.2790 -2.5415
   8623SM   H6G11536   4.746   2.233  14.006 -1.0489 -0.8365 -0.8080
   8623SM   C7F11537   4.578   2.274  14.132  0.0799  0.2738 -0.5202
   8623SM   H7F11538   4.592   2.168  14.165  2.7568  0.9188  0.6906
   8623SM   H7G11539   4.471   2.299  14.117  0.0048  0.2802 -0.0107
   8623SM   C8F11540   4.632   2.354  14.248  0.2758 -0.7684 -0.0245
   8623SM   H8F11541   4.626   2.464  14.234  0.4954 -0.5393  1.5259
   8623SM   H8G11542   4.737   2.328  14.272  0.3789  0.8643  1.4675
   8623SM   C9F11543   4.540   2.332  14.367 -0.2234 -0.2949 -0.3069
   8623SM   H9F11544   4.507   2.226  14.361 -0.5946 -0.2139  0.2393
   8623SM   H9G11545   4.457   2.405  14.357  1.1162  1.3816  0.2388
   8623SM  C10F11546   4.612   2.359  14.499  0.3606 -0.3019  0.7429
   8623SM  H10F11547   4.540   2.385  14.579 -1.0102 -0.2802 -0.4605
   8623SM  H10G11548   4.669   2.454  14.491 -0.7416  0.2410 -1.8001
   8623SM  C11F11549   4.703   2.247  14.547 -0.1334  0.1611  0.2764
   8623SM  H11F11550   4.805   2.256  14.504 -0.5449  0.1031 -0.7529
   8623SM  H11G11551   4.664   2.146  14.523  2.3556 -1.1120  1.1815
   8623SM  C12F11552   4.725   2.262  14.699 -0.3293  0.0076 -0.0834
   8623SM  H12F11553   4.626   2.246  14.747 -0.3175  1.6403  0.5563
   8623SM  H12G11554   4.773   2.353  14.740 -0.3473 -0.4928  1.0675
   8623SM  C13F11555   4.815   2.140  14.741  0.0114 -0.2884  0.5461
   8623SM  H13F11556   4.914   2.152  14.692 -0.8095  0.6090 -0.9473
   8623SM  H13G11557   4.765   2.048  14.703  0.8453 -0.2186 -0.7849
   8623SM  C14F11558   4.826   2.131  14.899  0.0447 -0.1523  0.6153
   8623SM  H14F11559   4.855   2.233  14.934  1.2849 -0.6549  1.1243
   8623SM  H14G11560   4.900   2.050  14.916 -0.4969 -1.3781 -2.2557
   8623SM  C15F11561   4.697   2.083  14.964 -0.2056  0.2327 -0.2726
   8623SM  H15F11562   4.667   1.985  14.920 -0.9941 -0.5203  1.7801
   8623SM  H15G11563   4.616   2.159  14.956 -1.0021 -0.7327 -1.9290
   8623SM  C16F11564   4.724   2.052  15.110  0.0619 -0.2700  0.2330
   8623SM  H16F11565   4.769   2.139  15.161  0.1127  1.4516 -2.5146
   8623SM  H16G11566   4.794   1.965  15.111 -0.2488 -0.5372 -0.2654
   8623SM  C17F11567   4.594   2.012  15.179  0.3508  0.2923 -0.2056
   8623SM  H17F11568   4.505   2.073  15.156 -0.9684 -2.1383 -2.0679
   8623SM  H17G11569   4.599   2.005  15.289 -0.7913 -0.5071 -0.1857
   8623SM  C18F11570   4.537   1.874  15.137 -0.2199  0.7183  0.2750
   8623SM  H18F11571   4.615   1.798  15.155 -1.0778  0.0730  1.4288
   8623SM  H18G11572   4.521   1.868  15.027 -4.2161  1.6096  0.6354
   8623SM  C19F11573   4.404   1.840  15.206 -0.2784  0.4029 -1.0602
   8623SM  H19F11574   4.365   1.753  15.149 -2.5960  1.8426 -1.8370
   8623SM  H19G11575   4.334   1.926  15.193 -0.8967  0.0791  0.0261
   8623SM  C20F11576   4.424   1.811  15.354 -0.6184 -0.2191 -0.0834
   8623SM  H20F11577   4.466   1.898  15.409  3.0657 -0.0188 -2.7765
   8623SM  H20G11578   4.479   1.715  15.360  1.0210  0.3085 -3.5685
   8623SM  C21F11579   4.289   1.782  15.425  0.1428 -0.2900 -0.1557
   8623SM  H21F11580   4.244   1.699  15.368  1.0494 -0.2144 -1.0212
   8623SM  H21G11581   4.228   1.875  15.415  1.6549  0.6771 -0.8417
   8623SM  C22F11582   4.298   1.740  15.576  0.0077  0.0203 -0.3568
   8623SM  H22F11583   4.362   1.649  15.570 -1.9967 -1.4855  0.1754
   8623SM  H22G11584   4.203   1.709  15.624 -0.3192  1.8814  0.2580
   8623SM  C23F11585   4.363   1.835  15.670 -0.3033  0.4313 -0.3099
   8623SM  H23F11586   4.382   1.784  15.767  1.5212  0.8773 -0.3954
   8623SM  H23G11587   4.296   1.922  15.689  0.5156  0.8886  0.6048
   8623SM  H23H11588   4.464   1.856  15.629  0.6933 -1.2075  1.1683
   8723SM     N11589   5.712   3.201  13.056  0.5079 -0.0102 -0.0205
   8723SM   C1511590   5.750   3.176  12.914 -0.4828  0.0057 -0.0815
   8723SM  H15A11591   5.677   3.102  12.885 -0.8342  0.7737 -1.2496
   8723SM  H15B11592   5.849   3.134  12.911 -0.8394 -0.8493 -0.2257
   8723SM  H15C11593   5.735   3.264  12.853 -3.9462 -1.4336 -1.6195
   8723SM   C1411594   5.796   3.312  13.101  0.7380 -1.0346 -1.0419
   8723SM  H14A11595   5.760   3.351  13.195  0.8689 -2.8970 -0.1782
   8723SM  H14B11596   5.806   3.388  13.025  1.5757 -0.7047 -0.6202
   8723SM  H14C11597   5.895   3.275  13.120  0.5916 -1.0111 -0.2011
   8723SM   C1311598   5.562   3.241  13.073 -0.6498 -0.0279  0.7769
   8723SM  H13A11599   5.499   3.153  13.078 -1.4344  0.1110 -3.2378
   8723SM  H13B11600   5.525   3.294  12.987  0.1191 -1.4084 -0.4707
   8723SM  H13C11601   5.551   3.294  13.166  2.0464  0.8168  0.7065
   8723SM   C1211602   5.730   3.081  13.141  0.0633  0.1191  0.5793
   8723SM  H12A11603   5.678   3.108  13.231 -1.6786 -0.4452 -0.2131
   8723SM  H12B11604   5.832   3.060  13.169  0.0472 -0.4254  0.2412
   8723SM   C1111605   5.658   2.944  13.095  0.1520 -0.7442 -0.7395
   8723SM  H11A11606   5.672   2.863  13.170 -1.3147 -1.7855 -1.5421
   8723SM  H11B11607   5.704   2.915  12.998 -2.2683 -0.3179 -2.0770
   8723SM     P11608   5.409   2.929  13.162  0.9039  0.7385  0.0447
   8723SM   O1311609   5.290   2.996  13.108 -0.7795  0.5339 -0.3830
   8723SM   O1411610   5.398   2.783  13.201 -0.3767  0.4097 -0.5071
   8723SM   O1111611   5.465   3.004  13.285 -0.3804  0.1969 -0.0274
   8723SM   O1211612   5.522   2.955  13.062  0.1424  0.1808  0.0474
   8723SM   C1S11613   5.382   3.044  13.390  0.3060  0.2403  0.4603
   8723SM   H1S11614   5.282   2.996  13.389  0.2393  0.3858 -0.2771
   8723SM   H1T11615   5.368   3.154  13.385 -0.5808  0.2014  1.6638
   8723SM    NF11616   5.333   3.028  13.628 -0.2326 -0.0442  0.8461
   8723SM   HNF11617   5.316   3.125  13.644 -0.2787  0.2404 -0.7225
   8723SM   C2S11618   5.438   3.001  13.530  0.4863 -0.4428  0.8603
   8723SM   H2S11619   5.474   2.896  13.526  1.8451  0.0485 -1.9570
   8723SM   C3S11620   5.569   3.090  13.549 -0.0515 -0.0549 -0.2546
   8723SM   H3S11621   5.546   3.196  13.525  0.1455 -0.2999 -1.6239
   8723SM    O311622   5.670   3.051  13.454  0.2418  0.2005 -0.6140
   8723SM   HO311623   5.621   3.009  13.384  0.6434  2.4678 -2.3656
   8723SM   C4S11624   5.616   3.083  13.695 -0.1886 -0.1927 -0.2127
   8723SM   H4S11625   5.557   3.149  13.761  0.7165  1.0792 -0.6238
   8723SM   C5S11626   5.701   3.001  13.747  0.2350  0.6367  0.1462
   8723SM   H5S11627   5.744   2.925  13.680 -1.5522 -1.0036  0.7476
   8723SM   C6S11628   5.747   2.994  13.892  0.1334  1.0343 -0.4567
   8723SM   H6S11629   5.852   3.030  13.889 -0.4576  2.8701 -0.2594
   8723SM   H6T11630   5.747   2.891  13.933  1.7192  0.5696 -1.5314
   8723SM   C7S11631   5.692   3.099  13.988  0.2313 -0.1777 -0.3684
   8723SM   H7S11632   5.587   3.071  14.013  0.2339 -0.9089 -1.1632
   8723SM   H7T11633   5.684   3.200  13.944 -0.2266 -0.2401 -0.4357
   8723SM   C8S11634   5.776   3.105  14.125  0.4635 -1.7839 -0.1700
   8723SM   H8S11635   5.879   3.137  14.096  0.2537 -0.7711  0.1611
   8723SM   H8T11636   5.780   3.011  14.184 -2.3097 -1.6328  0.3767
   8723SM   C9S11637   5.719   3.211  14.225 -0.1949 -0.2474  0.3211
   8723SM   H9S11638   5.614   3.192  14.257 -0.4160 -0.5217 -0.5370
   8723SM   H9T11639   5.722   3.316  14.186 -1.1311  0.4406  1.9752
   8723SM  C10S11640   5.794   3.199  14.359  0.1149  0.8992  0.5008
   8723SM  H10S11641   5.779   3.099  14.405 -2.5600  1.0781  0.1699
   8723SM  H10T11642   5.745   3.268  14.430 -1.5209  1.0097 -0.6875
   8723SM  C11S11643   5.939   3.237  14.337  0.4011  0.9028 -0.6002
   8723SM  H11S11644   5.939   3.345  14.312 -1.5611  1.5181  1.7030
   8723SM  H11T11645   5.990   3.198  14.246  0.4564  1.5553 -0.8554
   8723SM  C12S11646   6.039   3.232  14.459  0.2439 -0.1727  0.1456
   8723SM  H12S11647   6.060   3.127  14.490  0.6089 -0.3941 -0.8392
   8723SM  H12T11648   5.985   3.286  14.540  2.7035 -2.0941  3.3174
   8723SM  C13S11649   6.172   3.302  14.433  0.4447 -0.6747 -0.1573
   8723SM  H13S11650   6.223   3.308  14.531 -1.9752  1.6099  1.1093
   8723SM  H13T11651   6.169   3.408  14.401 -1.3081 -0.2880  1.1141
   8723SM  C14S11652   6.271   3.218  14.345 -0.3882 -0.1029  0.9726
   8723SM  H14S11653   6.212   3.200  14.253  1.4002 -0.5415 -0.1323
   8723SM  H14T11654   6.291   3.120  14.392  1.7054 -1.4620 -2.3376
   8723SM  C15S11655   6.404   3.290  14.310 -0.4232  0.3193 -0.3649
   8723SM  H15S11656   6.452   3.293  14.410 -1.4233 -2.6059  0.3018
   8723SM  H15T11657   6.375   3.389  14.267 -1.1851 -0.0908 -0.8157
   8723SM  C16S11658   6.483   3.203  14.208  0.0172 -0.2673  0.4540
   8723SM  H16S11659   6.490   3.099  14.247  1.1642 -0.5471 -0.4625
   8723SM  H16T11660   6.590   3.231  14.217  0.0654 -1.0215  3.3664
   8723SM  C17S11661   6.420   3.212  14.067  0.2310 -0.2805  0.2234
   8723SM  H17S11662   6.431   3.316  14.031  1.7372 -0.8201 -1.0328
   8723SM  H17T11663   6.313   3.185  14.076  0.4487 -1.1474  0.3649
   8723SM  C18S11664   6.489   3.118  13.968  0.4207 -0.2440  0.3725
   8723SM  H18S11665   6.590   3.158  13.946 -0.0587  0.8418  0.0506
   8723SM  H18T11666   6.443   3.118  13.867  1.8617 -1.0712 -0.3184
   8723SM  H18U11667   6.491   3.014  14.008 -1.1456 -1.6481 -2.8357
   8723SM   C1F11668   5.247   2.939  13.662  0.8532 -0.2673 -0.1984
   8723SM    OF11669   5.239   2.832  13.603 -0.0659  0.0640  0.1849
   8723SM   C2F11670   5.138   2.981  13.763  0.0865  0.3673  0.3862
   8723SM   H2F11671   5.131   2.898  13.836 -1.0709 -0.8146 -1.0179
   8723SM   H2G11672   5.036   2.981  13.721 -0.5139  1.5128  1.7674
   8723SM   C3F11673   5.161   3.111  13.830  0.1571 -0.0718 -0.6480
   8723SM   H3F11674   5.158   3.187  13.748 -0.2261 -1.1354 -1.6421
   8723SM   H3G11675   5.260   3.110  13.881  0.2367  0.4766 -0.7843
   8723SM   C4F11676   5.047   3.137  13.933 -0.2404  0.2711 -0.0110
   8723SM   H4F11677   5.065   3.069  14.019 -0.2574  1.6106  1.1058
   8723SM   H4G11678   4.949   3.116  13.886 -0.2226  1.9237 -0.8497
   8723SM   C5F11679   5.065   3.276  13.987  0.4157  0.3215 -0.5119
   8723SM   H5F11680   5.059   3.359  13.913 -0.7465  1.7546  1.0986
   8723SM   H5G11681   5.158   3.297  14.044 -0.3149  0.3592  0.7227
   8723SM   C6F11682   4.951   3.303  14.088 -0.3792  0.0205 -0.1508
   8723SM   H6F11683   4.852   3.311  14.039 -0.2448 -0.2249 -0.4632
   8723SM   H6G11684   4.953   3.400  14.143 -0.1122 -1.0083  1.7735
   8723SM   C7F11685   4.941   3.192  14.203 -0.8046  0.2307  0.4289
   8723SM   H7F11686   5.043   3.165  14.237  0.1524  0.1911 -2.2773
   8723SM   H7G11687   4.893   3.103  14.157  1.9307 -1.0127 -0.2255
   8723SM   C8F11688   4.865   3.247  14.331  0.2837 -0.4146  0.0696
   8723SM   H8F11689   4.817   3.171  14.396 -0.7169  1.9455  2.2718
   8723SM   H8G11690   4.777   3.306  14.299  1.5635  2.0121  0.7672
   8723SM   C9F11691   4.960   3.336  14.417  1.4251  0.7590 -0.4747
   8723SM   H9F11692   5.001   3.418  14.355  0.1022  2.1970  0.4723
   8723SM   H9G11693   5.049   3.271  14.437  1.6194  0.3367 -2.5516
   8723SM  C10F11694   4.896   3.391  14.545 -0.5151  0.1761 -0.0704
   8723SM  H10F11695   4.800   3.429  14.506 -0.6681  1.2274  1.2314
   8723SM  H10G11696   4.958   3.478  14.577  1.7697 -1.2176 -0.4471
   8723SM  C11F11697   4.869   3.291  14.657 -0.3317 -0.6111  0.2513
   8723SM  H11F11698   4.960   3.228  14.656 -0.5583 -0.9639  1.1455
   8723SM  H11G11699   4.777   3.235  14.633 -0.6919 -0.6412  1.6145
   8723SM  C12F11700   4.836   3.365  14.788 -0.1504  0.4286  1.2589
   8723SM  H12F11701   4.763   3.445  14.760  0.4213  0.6805  0.4324
   8723SM  H12G11702   4.920   3.425  14.827  1.1975 -0.1478 -0.6175
   8723SM  C13F11703   4.768   3.277  14.893 -0.3224  0.3049  0.1888
   8723SM  H13F11704   4.815   3.176  14.891 -1.4769 -0.2351 -0.5592
   8723SM  H13G11705   4.671   3.255  14.845 -0.9480  0.8777  1.1543
   8723SM  C14F11706   4.742   3.340  15.034 -0.9399 -0.7203  0.3543
   8723SM  H14F11707   4.834   3.341  15.097 -0.8224 -0.5479  0.1833
   8723SM  H14G11708   4.678   3.279  15.102 -1.0418  0.9890  1.8831
   8723SM  C15F11709   4.703   3.489  15.022 -0.1303 -0.4200 -0.6177
   8723SM  H15F11710   4.615   3.503  14.956 -0.4146 -1.0839 -0.3904
   8723SM  H15G11711   4.792   3.547  14.990 -0.4476  0.9725  0.8726
   8723SM  C16F11712   4.671   3.543  15.168 -0.1880 -0.0237 -0.1166
   8723SM  H16F11713   4.747   3.504  15.239  0.5882  0.3498 -0.7197
   8723SM  H16G11714   4.571   3.496  15.181  0.7622 -2.5430 -1.2053
   8723SM  C17F11715   4.642   3.698  15.176 -0.2260 -0.0626  0.5363
   8723SM  H17F11716   4.601   3.735  15.272  0.8656  3.6537 -0.2845
   8723SM  H17G11717   4.565   3.722  15.100  0.1016 -0.3511  0.1078
   8723SM  C18F11718   4.775   3.780  15.158  1.0114  0.6092 -0.3215
   8723SM  H18F11719   4.799   3.764  15.050 -0.2053 -1.1697 -0.3814
   8723SM  H18G11720   4.856   3.746  15.226  0.2704 -1.2888 -0.3169
   8723SM  C19F11721   4.741   3.932  15.177 -1.4298  0.2242 -0.5339
   8723SM  H19F11722   4.707   3.943  15.282  1.8859  0.2239  0.6521
   8723SM  H19G11723   4.657   3.970  15.116 -2.0223  0.2173  0.2545
   8723SM  C20F11724   4.872   4.013  15.160 -0.2286 -0.2591  0.2495
   8723SM  H20F11725   4.908   4.024  15.055  0.9928  2.4584  0.8639
   8723SM  H20G11726   4.960   3.961  15.204 -0.2544 -0.4464  0.0828
   8723SM  C21F11727   4.856   4.153  15.201 -0.2792 -0.7232 -0.1406
   8723SM  H21F11728   4.949   4.215  15.195  0.1585 -1.4337 -1.0733
   8723SM  H21G11729   4.817   4.159  15.305 -1.3590  0.5251 -0.5848
   8723SM  C22F11730   4.765   4.234  15.110  0.1965 -0.1613  0.3216
   8723SM  H22F11731   4.662   4.193  15.111 -0.1372  0.5632 -0.9685
   8723SM  H22G11732   4.796   4.225  15.003  1.1572 -1.4094  0.6881
   8723SM  C23F11733   4.761   4.387  15.146  0.3905  0.4652 -0.0770
   8723SM  H23F11734   4.860   4.432  15.126  0.2100 -0.2262 -2.9323
   8723SM  H23G11735   4.740   4.384  15.255 -1.1403 -1.6875 -0.3599
   8723SM  H23H11736   4.687   4.440  15.082 -1.1748 -1.7764 -0.2332
   8823SM     N11737   2.536   4.425  13.259 -0.1107 -0.1990  0.0635
   8823SM   C1511738   2.404   4.352  13.225 -0.5614 -0.3199  0.2715
   8823SM  H15A11739   2.331   4.425  13.257  2.2686  1.5728  3.0070
   8823SM  H15B11740   2.378   4.265  13.283 -2.2294  0.9960  1.6122
   8823SM  H15C11741   2.402   4.327  13.120  1.1698 -1.3738  0.4504
   8823SM   C1411742   2.644   4.354  13.186 -0.8489 -0.3383 -0.4307
   8823SM  H14A11743   2.633   4.362  13.079 -0.7916 -0.9902 -0.4928
   8823SM  H14B11744   2.652   4.249  13.210  2.2698  0.1336  1.0279
   8823SM  H14C11745   2.746   4.387  13.197 -0.0629 -2.6384 -0.1568
   8823SM   C1311746   2.526   4.566  13.204 -0.7933  0.2503 -0.8143
   8823SM  H13A11747   2.442   4.615  13.251 -0.3471 -1.1265  1.5488
   8823SM  H13B11748   2.519   4.573  13.096 -0.9820 -1.7997 -0.9623
   8823SM  H13C11749   2.617   4.623  13.216 -1.8550  1.8061  0.3055
   8823SM   C1211750   2.555   4.429  13.410 -0.8642 -0.1976  0.5280
   8823SM  H12A11751   2.476   4.479  13.464 -1.5683 -1.0943  0.3457
   8823SM  H12B11752   2.643   4.489  13.429 -1.2389  0.8456 -0.8642
   8823SM   C1111753   2.575   4.290  13.479 -0.2854  0.3852  0.2059
   8823SM  H11A11754   2.494   4.223  13.445  0.1675 -1.0816  1.8960
   8823SM  H11B11755   2.561   4.313  13.587  1.4936  0.7208  0.3952
   8823SM     P11756   2.753   4.096  13.508 -0.1317  0.1075  0.6846
   8823SM   O1311757   2.806   4.019  13.392  0.3745  0.5347  0.1659
   8823SM   O1411758   2.853   4.119  13.617  0.5890 -0.1117  0.0087
   8823SM   O1111759   2.622   4.034  13.569  0.4098  0.2244 -0.3778
   8823SM   O1211760   2.702   4.240  13.447 -0.4734  0.7449  0.2953
   8823SM   C1S11761   2.621   3.905  13.624  0.3830  0.4431  0.0634
   8823SM   H1S11762   2.725   3.866  13.631  0.1823  0.2634  3.4752
   8823SM   H1T11763   2.561   3.833  13.563 -1.0955 -0.4621  2.4611
   8823SM    NF11764   2.588   3.764  13.833 -0.5829  0.0519  0.4405
   8823SM   HNF11765   2.512   3.700  13.839  1.2753 -2.1710  1.6255
   8823SM   C2S11766   2.568   3.898  13.768 -0.1961  0.3864 -0.4357
   8823SM   H2S11767   2.640   3.967  13.817 -0.1779  1.0817 -1.4120
   8823SM   C3S11768   2.426   3.953  13.773 -0.2658  0.7320 -0.1641
   8823SM   H3S11769   2.360   3.869  13.741  0.6296  0.6786 -1.9895
   8823SM    O311770   2.405   4.069  13.699  0.3243 -0.7713 -0.0307
   8823SM   HO311771   2.483   4.072  13.644  1.2950  0.4483  1.3258
   8823SM   C4S11772   2.390   3.971  13.918 -0.7962  0.5078  0.3273
   8823SM   H4S11773   2.351   3.877  13.959  0.0703  0.2554  0.5906
   8823SM   C5S11774   2.397   4.077  13.992 -0.1771 -0.8135 -0.4747
   8823SM   H5S11775   2.415   4.173  13.942  0.8843 -0.4761  0.5164
   8823SM   C6S11776   2.349   4.079  14.133 -0.8300 -0.1359 -0.3140
   8823SM   H6S11777   2.322   3.977  14.167 -0.9835  0.3755  1.1918
   8823SM   H6T11778   2.259   4.145  14.136 -0.5718  0.1931  1.6716
   8823SM   C7S11779   2.469   4.116  14.221 -0.2428  0.4073  0.0268
   8823SM   H7S11780   2.517   4.206  14.176 -0.1930 -0.6822 -2.2146
   8823SM   H7T11781   2.548   4.040  14.208  0.0679  0.4804  1.3273
   8823SM   C8S11782   2.430   4.126  14.369 -0.3395  0.1256  0.3528
   8823SM   H8S11783   2.342   4.189  14.392 -0.5219  0.1969 -0.4862
   8823SM   H8T11784   2.506   4.190  14.418 -0.9646 -0.6584  2.4696
   8823SM   C9S11785   2.412   3.994  14.444  0.1447  0.6006 -0.1102
   8823SM   H9S11786   2.506   3.936  14.451 -0.6155 -0.6298  0.3455
   8823SM   H9T11787   2.342   3.921  14.397 -0.6554  1.4823 -0.3336
   8823SM  C10S11788   2.367   4.026  14.589  0.8193 -0.2213  0.4495
   8823SM  H10S11789   2.258   4.045  14.583  1.1325  1.7487  0.5556
   8823SM  H10T11790   2.431   4.112  14.616  1.6646 -0.3628 -0.9602
   8823SM  C11S11791   2.382   3.911  14.694 -0.0743  0.4569  0.3284
   8823SM  H11S11792   2.487   3.879  14.709 -0.1586  0.7047  1.5514
   8823SM  H11T11793   2.329   3.824  14.649 -0.3398  1.3819 -1.2251
   8823SM  C12S11794   2.326   3.939  14.837  0.5319  0.2276  0.0175
   8823SM  H12S11795   2.221   3.903  14.840  0.8776 -0.8527  3.6972
   8823SM  H12T11796   2.337   4.045  14.869  5.5098 -0.4240  1.1914
   8823SM  C13S11797   2.397   3.853  14.939 -0.3188  0.0047  0.0215
   8823SM  H13S11798   2.508   3.858  14.937 -0.3733  1.9881 -0.6456
   8823SM  H13T11799   2.368   3.746  14.927  0.0096 -0.0113 -0.6740
   8823SM  C14S11800   2.356   3.901  15.082  0.4727  0.4927 -0.8187
   8823SM  H14S11801   2.396   4.003  15.100 -0.6873  0.5418  1.9826
   8823SM  H14T11802   2.406   3.834  15.156  0.1399 -0.3590 -1.3520
   8823SM  C15S11803   2.205   3.908  15.108  0.3529  0.2504  0.6371
   8823SM  H15S11804   2.167   3.820  15.053  0.6178 -0.3099  1.3339
   8823SM  H15T11805   2.151   4.000  15.076  2.0525  1.4667  1.0835
   8823SM  C16S11806   2.173   3.886  15.259 -1.0850  0.3135 -0.5335
   8823SM  H16S11807   2.233   3.796  15.285  0.9808  1.9467  0.6290
   8823SM  H16T11808   2.065   3.863  15.271 -0.9724  1.2192  3.5442
   8823SM  C17S11809   2.201   4.005  15.349 -0.0115 -0.4970  0.0190
   8823SM  H17S11810   2.309   4.029  15.343 -0.6940  2.9039 -0.6800
   8823SM  H17T11811   2.175   3.986  15.455  0.6480 -0.7765  0.1314
   8823SM  C18S11812   2.125   4.133  15.307  0.6648 -0.0386 -0.1322
   8823SM  H18S11813   2.137   4.222  15.373 -1.8658 -0.2222  0.6754
   8823SM  H18T11814   2.015   4.120  15.302  0.3255  2.5654 -1.0665
   8823SM  H18U11815   2.160   4.154  15.204  1.2495  4.1566  0.7681
   8823SM   C1F11816   2.705   3.708  13.850  0.4346 -0.1380  0.4695
   8823SM    OF11817   2.807   3.758  13.809 -0.1174  0.2546  0.1327
   8823SM   C2F11818   2.701   3.582  13.927 -0.3221  0.3856  0.6593
   8823SM   H2F11819   2.805   3.561  13.960  0.2731  0.6960 -0.8978
   8823SM   H2G11820   2.670   3.502  13.856 -0.3422  1.1033 -0.1603
   8823SM   C3F11821   2.604   3.588  14.049  0.9774  0.8044 -0.5329
   8823SM   H3F11822   2.616   3.491  14.101 -1.0604  0.4892 -0.5576
   8823SM   H3G11823   2.498   3.582  14.014  0.7273 -1.3077  0.4285
   8823SM   C4F11824   2.634   3.708  14.148  0.5376  0.9118 -0.4414
   8823SM   H4F11825   2.613   3.802  14.092  1.6334  2.6271  1.8298
   8823SM   H4G11826   2.741   3.705  14.180 -0.1680 -1.8864  2.1401
   8823SM   C5F11827   2.539   3.714  14.265  0.5277  0.0064 -1.2356
   8823SM   H5F11828   2.439   3.757  14.240 -0.8621 -1.1909  1.7659
   8823SM   H5G11829   2.584   3.784  14.339 -1.1146  0.2984 -0.4661
   8823SM   C6F11830   2.521   3.573  14.332  0.2500 -0.5061  0.3475
   8823SM   H6F11831   2.621   3.525  14.344  2.0261  3.2861  2.3672
   8823SM   H6G11832   2.458   3.507  14.269  0.6210 -0.6175  0.0848
   8823SM   C7F11833   2.474   3.588  14.476  0.4605 -0.0546 -0.3812
   8823SM   H7F11834   2.378   3.643  14.482 -0.3260 -1.4873  2.1403
   8823SM   H7G11835   2.551   3.637  14.540  0.4850 -1.9304  1.1165
   8823SM   C8F11836   2.445   3.457  14.553  0.5867 -0.3106  0.1587
   8823SM   H8F11837   2.538   3.398  14.565  0.7031 -0.2441 -0.3857
   8823SM   H8G11838   2.381   3.412  14.473 -1.6699  2.5972  0.1584
   8823SM   C9F11839   2.356   3.466  14.681 -0.2375  0.5371 -0.3291
   8823SM   H9F11840   2.275   3.531  14.640  2.5045  2.4516 -3.1412
   8823SM   H9G11841   2.416   3.526  14.752  0.4264  1.7216 -1.8526
   8823SM  C10F11842   2.312   3.331  14.743  0.2493 -0.1216 -0.0348
   8823SM  H10F11843   2.403   3.268  14.753  0.0662 -0.1443  2.0238
   8823SM  H10G11844   2.254   3.278  14.665  0.3415  2.3622 -1.9170
   8823SM  C11F11845   2.229   3.356  14.870 -0.3259 -0.1282  0.2581
   8823SM  H11F11846   2.172   3.446  14.840  0.3331  0.0478 -0.4833
   8823SM  H11G11847   2.297   3.393  14.950  1.2668  2.1159 -1.9805
   8823SM  C12F11848   2.137   3.238  14.900  0.5468 -0.2199  0.5545
   8823SM  H12F11849   2.194   3.144  14.887 -0.6149 -0.7877 -0.7757
   8823SM  H12G11850   2.057   3.229  14.823  0.2752 -1.6335  0.9731
   8823SM  C13F11851   2.075   3.237  15.038  0.0039 -0.4715 -0.4097
   8823SM  H13F11852   2.026   3.336  15.052 -0.3282 -0.8461  1.3981
   8823SM  H13G11853   2.151   3.248  15.119 -0.6523  0.5233  0.0891
   8823SM  C14F11854   1.979   3.120  15.063  0.3013  0.6179  0.0958
   8823SM  H14F11855   2.036   3.028  15.090 -0.0649  0.8795  1.8672
   8823SM  H14G11856   1.917   3.098  14.974 -1.3226  0.0793  1.3229
   8823SM  C15F11857   1.884   3.156  15.181  0.2757 -0.4139 -0.4839
   8823SM  H15F11858   1.841   3.257  15.166  2.6161  0.4168 -2.1679
   8823SM  H15G11859   1.941   3.164  15.276  0.2399 -1.1736 -0.3911
   8823SM  C16F11860   1.762   3.070  15.196  0.4752  0.9221 -0.0330
   8823SM  H16F11861   1.770   2.980  15.131 -0.1816  0.5839  0.3371
   8823SM  H16G11862   1.674   3.129  15.163 -0.7631 -0.8693 -0.1240
   8823SM  C17F11863   1.738   3.036  15.350  0.1574 -0.1825  0.6421
   8823SM  H17F11864   1.650   2.972  15.368 -1.0792  1.7085  1.6105
   8823SM  H17G11865   1.720   3.129  15.409  2.7659 -0.4986  2.1136
   8823SM  C18F11866   1.860   2.970  15.417  0.3633 -0.2879 -0.3077
   8823SM  H18F11867   1.946   3.040  15.421 -1.0679  1.4685  2.5305
   8823SM  H18G11868   1.890   2.884  15.353 -1.0852 -1.2091  0.2027
   8823SM  C19F11869   1.836   2.941  15.569  0.4843  0.3869  0.3855
   8823SM  H19F11870   1.769   2.852  15.578 -0.7471  1.1744 -0.6108
   8823SM  H19G11871   1.785   3.029  15.614 -0.1457  0.6329 -0.7693
   8823SM  C20F11872   1.959   2.910  15.659 -0.4728 -0.0584  0.5986
   8823SM  H20F11873   1.988   3.008  15.704 -0.5014  1.1445 -1.8473
   8823SM  H20G11874   2.041   2.864  15.599 -1.8420  2.4829 -3.6246
   8823SM  C21F11875   1.927   2.818  15.785 -0.2444  0.6372  0.3341
   8823SM  H21F11876   1.893   2.720  15.746  2.2340 -0.1222 -0.0768
   8823SM  H21G11877   1.833   2.860  15.827 -2.1673 -1.2683 -1.7481
   8823SM  C22F11878   2.045   2.808  15.879 -0.1150 -0.1889 -0.0456
   8823SM  H22F11879   2.046   2.904  15.935 -2.3412 -0.1908  0.0541
   8823SM  H22G11880   2.138   2.809  15.818  0.6841 -1.8603  1.0582
   8823SM  C23F11881   2.046   2.683  15.960 -0.2360  0.2091 -0.2483
   8823SM  H23F11882   1.947   2.668  16.009 -0.8432  0.1156 -1.4666
   8823SM  H23G11883   2.128   2.664  16.032  0.3273  0.6439 -0.7689
   8823SM  H23H11884   2.058   2.599  15.889 -0.2803  0.6184 -0.7449
   8923SM     N11885   6.459   2.591  13.042 -0.2825  1.1006 -0.2662
   8923SM   C1511886   6.442   2.696  12.943 -1.1647 -0.4690  0.4895
   8923SM  H15A11887   6.439   2.789  12.997 -2.2881 -2.1511  3.5981
   8923SM  H15B11888   6.349   2.682  12.891 -2.0189  2.2873  1.1506
   8923SM  H15C11889   6.522   2.699  12.870 -2.0703  2.2566 -0.5178
   8923SM   C1411890   6.448   2.463  12.976  0.2148  0.4025 -0.2216
   8923SM  H14A11891   6.468   2.383  13.045 -0.3571  0.2460 -0.2306
   8923SM  H14B11892   6.518   2.444  12.896 -2.2851  0.3097 -2.5600
   8923SM  H14C11893   6.350   2.443  12.934  1.2700 -0.9427 -2.2133
   8923SM   C1311894   6.600   2.594  13.099 -0.3846 -0.2967  0.1897
   8923SM  H13A11895   6.676   2.603  13.023 -0.9670  0.5149 -0.3108
   8923SM  H13B11896   6.616   2.504  13.157  0.4211  0.0299  0.4918
   8923SM  H13C11897   6.609   2.677  13.168 -0.1311 -0.4881  0.3909
   8923SM   C1211898   6.346   2.610  13.147 -0.3043  0.5333  0.3765
   8923SM  H12A11899   6.347   2.526  13.215 -1.7630  0.5690  0.4758
   8923SM  H12B11900   6.250   2.590  13.103 -0.7100 -1.1843  1.9110
   8923SM   C1111901   6.352   2.745  13.237  0.5329  0.7630  0.0465
   8923SM  H11A11902   6.270   2.721  13.309  1.3189  2.7237  1.6808
   8923SM  H11B11903   6.330   2.819  13.157 -3.5355 -0.5460 -0.3019
   8923SM     P11904   6.493   2.823  13.446  0.1204 -0.4060  1.0257
   8923SM   O1311905   6.628   2.778  13.505  0.5609  0.1136  0.5458
   8923SM   O1411906   6.475   2.967  13.414 -0.3335  0.5374 -0.5706
   8923SM   O1111907   6.383   2.766  13.543  0.4882  0.1274  0.5471
   8923SM   O1211908   6.479   2.762  13.301 -0.1677  0.2891 -0.0866
   8923SM   C1S11909   6.356   2.638  13.599  0.3445 -0.1740  0.4538
   8923SM   H1S11910   6.432   2.565  13.564  0.9731  1.0682 -0.9067
   8923SM   H1T11911   6.259   2.599  13.561  0.6608 -0.9099  0.3845
   8923SM    NF11912   6.353   2.499  13.795 -0.6936 -0.0107  0.5848
   8923SM   HNF11913   6.272   2.446  13.772 -0.7114  0.1676  0.2361
   8923SM   C2S11914   6.354   2.640  13.752  0.6410 -0.7663 -0.0620
   8923SM   H2S11915   6.439   2.700  13.792 -1.9605  2.8879  0.4699
   8923SM   C3S11916   6.216   2.714  13.781 -0.5972  0.3551  0.8920
   8923SM   H3S11917   6.138   2.643  13.747  1.3701 -1.6510  0.3257
   8923SM    O311918   6.200   2.832  13.695  0.1206  0.0457 -0.2065
   8923SM   HO311919   6.280   2.842  13.642  0.8740 -1.6009  0.5444
   8923SM   C4S11920   6.206   2.752  13.924  0.3774  0.3570 -0.5051
   8923SM   H4S11921   6.248   2.683  13.999 -2.1407 -0.9022 -0.1384
   8923SM   C5S11922   6.190   2.878  13.978  0.1690 -0.1385 -0.2370
   8923SM   H5S11923   6.186   2.968  13.913  0.1297  1.0421  1.3438
   8923SM   C6S11924   6.194   2.918  14.121 -0.2915 -0.3315  0.0460
   8923SM   H6S11925   6.134   3.010  14.138 -1.4890 -1.2576  1.1780
   8923SM   H6T11926   6.295   2.953  14.147  0.0074 -0.0981 -1.3515
   8923SM   C7S11927   6.152   2.814  14.236  0.4983 -0.5545 -0.2561
   8923SM   H7S11928   6.235   2.741  14.241  1.0744  0.0716 -0.5725
   8923SM   H7T11929   6.056   2.769  14.200 -0.3687 -1.6518  3.0512
   8923SM   C8S11930   6.129   2.881  14.373 -0.4311  0.2137  0.2103
   8923SM   H8S11931   6.068   2.972  14.354  2.0511  1.5774 -1.9133
   8923SM   H8T11932   6.220   2.928  14.416 -0.4360 -0.4820  1.0301
   8923SM   C9S11933   6.071   2.791  14.481  0.0375  0.3614  0.3511
   8923SM   H9S11934   6.120   2.694  14.462 -1.2306 -0.5000  1.3582
   8923SM   H9T11935   5.964   2.769  14.463  0.0212 -0.5281  1.4577
   8923SM  C10S11936   6.091   2.843  14.625  0.2419 -0.0681  0.5599
   8923SM  H10S11937   6.035   2.938  14.629  0.6370  0.3078 -1.5898
   8923SM  H10T11938   6.198   2.863  14.645  0.7505  0.0817 -1.8982
   8923SM  C11S11939   6.052   2.742  14.730  1.0280  0.5993  0.4606
   8923SM  H11S11940   6.112   2.652  14.706  0.4918  0.5770 -0.8798
   8923SM  H11T11941   5.948   2.710  14.712  1.2315  0.4179 -0.4626
   8923SM  C12S11942   6.044   2.815  14.863 -0.3774  0.1916 -0.3536
   8923SM  H12S11943   5.978   2.904  14.856  1.0534  1.2374 -1.1099
   8923SM  H12T11944   6.143   2.851  14.899 -1.1979  0.1169  2.1863
   8923SM  C13S11945   5.988   2.718  14.978  0.2875 -0.6047  0.2468
   8923SM  H13S11946   6.032   2.618  14.954 -2.0841 -1.5702 -0.4362
   8923SM  H13T11947   5.877   2.715  14.977  0.2140 -0.3354  2.4495
   8923SM  C14S11948   6.024   2.754  15.124 -0.2021  0.1685 -0.2381
   8923SM  H14S11949   5.988   2.851  15.165  0.7285  0.0916  0.7987
   8923SM  H14T11950   6.134   2.768  15.129  0.1123 -2.0409 -0.2985
   8923SM  C15S11951   5.981   2.641  15.216  0.4299  0.1412  0.4041
   8923SM  H15S11952   6.027   2.647  15.317  0.3563  1.1263  0.3900
   8923SM  H15T11953   6.031   2.553  15.172  2.7790  0.8523  1.5243
   8923SM  C16S11954   5.831   2.625  15.237 -0.1796 -0.9234  0.1057
   8923SM  H16S11955   5.779   2.670  15.150  1.9486 -1.9272 -1.7840
   8923SM  H16T11956   5.789   2.676  15.326  1.4813 -1.9755  1.5692
   8923SM  C17S11957   5.795   2.480  15.231  0.0513  0.0771  0.0229
   8923SM  H17S11958   5.849   2.428  15.312 -0.6029 -0.0440  0.3882
   8923SM  H17T11959   5.827   2.442  15.132  1.3992  1.0155  0.0692
   8923SM  C18S11960   5.643   2.439  15.243 -0.3618  0.1902  0.1735
   8923SM  H18S11961   5.650   2.329  15.257  1.9014  0.3757  1.0084
   8923SM  H18T11962   5.590   2.460  15.148  0.6451 -3.5756 -1.3931
   8923SM  H18U11963   5.594   2.481  15.334 -0.6866  0.1355  0.0246
   8923SM   C1F11964   6.472   2.437  13.801 -0.3030  0.5242  0.1205
   8923SM    OF11965   6.575   2.486  13.763  0.0824  0.1598 -0.1324
   8923SM   C2F11966   6.469   2.300  13.843  0.1651 -0.4583  0.2181
   8923SM   H2F11967   6.571   2.271  13.877  0.1173 -3.8433 -1.9970
   8923SM   H2G11968   6.439   2.233  13.760  0.0347  1.0966 -1.0488
   8923SM   C3F11969   6.375   2.270  13.963  0.4696  0.2321 -0.1061
   8923SM   H3F11970   6.385   2.162  13.989 -2.3405 -0.1727 -0.4287
   8923SM   H3G11971   6.270   2.288  13.933 -0.1326 -0.8774  1.2219
   8923SM   C4F11972   6.410   2.347  14.088  0.0949  0.1630  0.3128
   8923SM   H4F11973   6.366   2.448  14.068  0.0038  0.1057  0.2225
   8923SM   H4G11974   6.519   2.356  14.107  0.4463 -0.9523 -1.0256
   8923SM   C5F11975   6.347   2.282  14.207 -0.3027  0.4359 -0.5465
   8923SM   H5F11976   6.386   2.180  14.225 -3.1597 -0.4822  1.0426
   8923SM   H5G11977   6.239   2.281  14.179 -0.3905 -3.0034 -0.4243
   8923SM   C6F11978   6.362   2.373  14.331 -0.5045  0.2823  0.3370
   8923SM   H6F11979   6.317   2.305  14.407  1.8244  0.6110  2.1234
   8923SM   H6G11980   6.289   2.455  14.319 -0.1091  0.6791  0.6058
   8923SM   C7F11981   6.493   2.429  14.382  0.2822  1.0274  0.8399
   8923SM   H7F11982   6.464   2.455  14.486  0.3067  2.3692  0.5244
   8923SM   H7G11983   6.525   2.519  14.325  2.9463 -0.7650 -0.7158
   8923SM   C8F11984   6.613   2.335  14.392  0.4577  0.8164  0.5576
   8923SM   H8F11985   6.661   2.320  14.292  1.6428  0.2149  1.1936
   8923SM   H8G11986   6.572   2.238  14.429 -0.3502  1.1214  0.4898
   8923SM   C9F11987   6.705   2.380  14.500  0.2875 -0.1488 -0.2453
   8923SM   H9F11988   6.681   2.343  14.603  3.6442 -1.7876  0.0804
   8923SM   H9G11989   6.692   2.490  14.502 -1.7334 -0.3475  0.7908
   8923SM  C10F11990   6.850   2.338  14.469 -0.5316  0.0588  0.7329
   8923SM  H10F11991   6.876   2.373  14.366  2.4312 -1.4290  0.8882
   8923SM  H10G11992   6.873   2.230  14.465  3.2691  0.7195 -2.8836
   8923SM  C11F11993   6.952   2.411  14.559 -0.7208 -0.3380  0.1899
   8923SM  H11F11994   6.925   2.518  14.550 -2.6643 -0.5907  2.2703
   8923SM  H11G11995   7.056   2.401  14.520 -0.9177 -1.2809 -0.1175
   8923SM  C12F11996   6.948   2.368  14.703 -0.3217 -0.3627 -0.3115
   8923SM  H12F11997   6.976   2.265  14.730  1.6711  0.5280  1.2599
   8923SM  H12G11998   6.844   2.377  14.743  0.2718 -0.3957  1.2998
   8923SM  C13F11999   7.040   2.464  14.789  0.0586 -0.1073 -0.1086
   8923SM  H13F12000   6.992   2.564  14.784 -2.3155 -1.2412 -2.4106
   8923SM  H13G12001   7.139   2.476  14.739 -0.1302 -3.2068 -1.4188
   8923SM  C14F12002   7.056   2.414  14.932 -0.2494 -0.3759  0.4109
   8923SM  H14F12003   7.103   2.495  14.992 -0.3499 -0.5642  0.7462
   8923SM  H14G12004   7.123   2.325  14.927 -1.9059 -1.5859 -1.8178
   8923SM  C15F12005   6.930   2.374  14.993 -0.2185  0.3800 -0.5984
   8923SM  H15F12006   6.892   2.287  14.935 -0.3295  1.1464 -1.7072
   8923SM  H15G12007   6.851   2.451  14.990 -1.3630 -0.7952 -2.3037
   8923SM  C16F12008   6.948   2.331  15.139  0.6555  0.4562 -0.5136
   8923SM  H16F12009   6.983   2.407  15.211 -1.6020 -1.4925  2.9304
   8923SM  H16G12010   7.019   2.246  15.142 -0.1091 -0.1635  0.8415
   8923SM  C17F12011   6.811   2.278  15.194 -0.4137  0.7785  0.3871
   8923SM  H17F12012   6.763   2.213  15.117  1.2826  0.5266 -0.5067
   8923SM  H17G12013   6.742   2.360  15.224 -1.3522 -0.2610  1.1738
   8923SM  C18F12014   6.830   2.201  15.326  0.1919  0.5281  0.2166
   8923SM  H18F12015   6.898   2.250  15.400  1.7287 -0.6983 -0.3278
   8923SM  H18G12016   6.887   2.112  15.293  2.4508  2.8217 -2.6645
   8923SM  C19F12017   6.699   2.165  15.400 -0.0311 -0.2440 -0.1294
   8923SM  H19F12018   6.653   2.071  15.361 -1.0721  0.3737 -0.4329
   8923SM  H19G12019   6.633   2.254  15.396  0.1176 -0.1512 -0.5839
   8923SM  C20F12020   6.719   2.140  15.552  0.3864 -0.2814 -0.6229
   8923SM  H20F12021   6.760   2.232  15.599  0.0332 -1.0957  1.3623
   8923SM  H20G12022   6.799   2.063  15.555  1.3728  0.7434  1.2935
   8923SM  C21F12023   6.596   2.079  15.624 -0.4984 -0.3743 -0.7303
   8923SM  H21F12024   6.640   2.059  15.724 -0.4662  0.5858 -0.5451
   8923SM  H21G12025   6.583   1.976  15.583  0.9813 -0.5664 -0.7789
   8923SM  C22F12026   6.464   2.165  15.618 -0.0974  0.4625 -0.2452
   8923SM  H22F12027   6.405   2.127  15.531  1.6810 -2.1547 -0.4135
   8923SM  H22G12028   6.495   2.271  15.623 -0.4173  0.5781 -0.6452
   8923SM  C23F12029   6.381   2.138  15.749 -0.8858 -0.1080  0.0474
   8923SM  H23F12030   6.360   2.031  15.766  2.0718 -0.5819  1.4801
   8923SM  H23G12031   6.290   2.202  15.745 -1.7725 -1.2080  1.5362
   8923SM  H23H12032   6.434   2.170  15.842  0.2655  0.9347 -0.9319
   9023SM     N12033   6.233   3.392  12.911  0.3439  0.5096  0.0263
   9023SM   C1512034   6.125   3.320  12.831  0.0036  0.0050  0.5090
   9023SM  H15A12035   6.033   3.363  12.868  0.2301  1.2687 -0.3178
   9023SM  H15B12036   6.148   3.217  12.853  2.5420 -0.1965 -2.3981
   9023SM  H15C12037   6.130   3.335  12.724  0.1842 -2.4012  0.1296
   9023SM   C1412038   6.361   3.315  12.900 -0.4149 -0.3512  0.6280
   9023SM  H14A12039   6.358   3.215  12.942  0.3317 -1.3663 -1.5964
   9023SM  H14B12040   6.439   3.369  12.950 -0.7302 -0.7711  1.5980
   9023SM  H14C12041   6.384   3.313  12.795 -0.1889  0.6011  0.6516
   9023SM   C1312042   6.262   3.524  12.834 -0.0076  0.1033 -0.2235
   9023SM  H13A12043   6.332   3.585  12.890 -0.0201  1.3591 -1.5221
   9023SM  H13B12044   6.172   3.583  12.827 -0.4938 -0.6353 -0.3098
   9023SM  H13C12045   6.298   3.506  12.734 -1.7648 -1.7894 -0.5752
   9023SM   C1212046   6.186   3.422  13.050 -0.1411  0.0996 -0.2243
   9023SM  H12A12047   6.089   3.469  13.041  0.2197  0.6297 -1.5189
   9023SM  H12B12048   6.253   3.494  13.094 -0.2505  0.3935 -0.5354
   9023SM   C1112049   6.162   3.291  13.140  0.4638 -0.9760  0.6570
   9023SM  H11A12050   6.133   3.325  13.242  0.7328 -1.4164  0.8801
   9023SM  H11B12051   6.265   3.252  13.145  0.5273 -0.8211  0.5647
   9023SM     P12052   6.115   3.040  13.061  0.2893 -0.3139  0.3748
   9023SM   O1312053   6.028   2.985  12.956  0.3828 -0.3992 -0.1807
   9023SM   O1412054   6.262   3.023  13.043  0.1298  0.2250  0.3939
   9023SM   O1112055   6.074   2.975  13.193 -0.2379  0.6271  0.0514
   9023SM   O1212056   6.075   3.188  13.094  0.1533 -0.2754 -0.1515
   9023SM   C1S12057   6.119   3.009  13.329  0.0504  0.2510 -0.0299
   9023SM   H1S12058   6.119   3.119  13.345 -3.3540  0.0715  2.2728
   9023SM   H1T12059   6.216   2.960  13.349 -0.2372 -0.6395 -0.7699
   9023SM    NF12060   6.021   3.027  13.561 -0.5970 -0.1928  0.0303
   9023SM   HNF12061   6.038   2.953  13.627  0.3953  1.3262  1.5723
   9023SM   C2S12062   6.007   2.970  13.426  0.0261 -0.0127 -1.0476
   9023SM   H2S12063   5.916   3.020  13.386 -0.8670 -0.7062  0.0678
   9023SM   C3S12064   5.992   2.812  13.418 -0.3119 -0.0321 -0.1673
   9023SM   H3S12065   6.090   2.773  13.451 -1.0173 -2.4970 -0.8131
   9023SM    O312066   5.974   2.752  13.286  0.2338 -0.1321  0.2179
   9023SM   HO312067   5.999   2.828  13.233  0.0797 -0.1563  0.1082
   9023SM   C4S12068   5.886   2.771  13.513 -0.1441 -0.3816 -1.0416
   9023SM   H4S12069   5.797   2.834  13.502 -0.0122  0.6796  2.6600
   9023SM   C5S12070   5.895   2.670  13.603  0.7729 -0.7649 -0.5212
   9023SM   H5S12071   5.975   2.595  13.599 -0.3323 -1.9127 -3.4735
   9023SM   C6S12072   5.763   2.634  13.676 -0.7685 -0.2764 -0.0040
   9023SM   H6S12073   5.768   2.690  13.772  0.8005 -1.6123  0.7372
   9023SM   H6T12074   5.759   2.526  13.703 -1.7833 -0.1337  0.4884
   9023SM   C7S12075   5.628   2.670  13.611  0.0919  1.0177 -0.8717
   9023SM   H7S12076   5.616   2.633  13.507 -1.2235  3.0803 -1.5112
   9023SM   H7T12077   5.613   2.780  13.617  1.6740  1.3197 -1.7831
   9023SM   C8S12078   5.512   2.613  13.703  0.2909 -0.2964  0.9398
   9023SM   H8S12079   5.530   2.503  13.709  0.4004 -0.5010 -1.8585
   9023SM   H8T12080   5.415   2.638  13.655  0.1966  0.2788  1.4180
   9023SM   C9S12081   5.512   2.665  13.843  0.1185 -0.6656  0.2512
   9023SM   H9S12082   5.509   2.776  13.848 -1.8566 -0.5132 -2.2095
   9023SM   H9T12083   5.601   2.638  13.904 -0.2074  1.4877  1.8183
   9023SM  C10S12084   5.387   2.618  13.918 -0.3975  0.4404 -0.3566
   9023SM  H10S12085   5.370   2.508  13.922 -2.9120  0.5845 -2.9542
   9023SM  H10T12086   5.305   2.664  13.859  0.6766  2.4116 -0.3874
   9023SM  C11S12087   5.374   2.675  14.066 -0.8864 -0.1205  0.2776
   9023SM  H11S12088   5.441   2.609  14.125 -1.5449  0.2108  1.4402
   9023SM  H11T12089   5.277   2.649  14.115 -1.9231  2.2079 -0.3830
   9023SM  C12S12090   5.384   2.823  14.087 -0.3472 -1.0994 -0.1436
   9023SM  H12S12091   5.301   2.870  14.030  0.3673  0.1567 -0.2053
   9023SM  H12T12092   5.484   2.852  14.049  0.7832 -1.6368  2.2406
   9023SM  C13S12093   5.364   2.856  14.237 -0.1189  0.0470  0.9924
   9023SM  H13S12094   5.431   2.788  14.294 -1.3201 -3.4646 -1.4432
   9023SM  H13T12095   5.259   2.829  14.261 -1.1018  2.8924  0.3449
   9023SM  C14S12096   5.387   3.008  14.266  0.1967  0.2138  0.1797
   9023SM  H14S12097   5.394   3.058  14.168 -1.1353 -2.6477 -1.5244
   9023SM  H14T12098   5.488   3.014  14.311  1.2693 -2.1866 -1.6644
   9023SM  C15S12099   5.289   3.068  14.362 -0.5788  0.3169 -0.0080
   9023SM  H15S12100   5.190   3.056  14.314 -0.7997  1.2865  0.1918
   9023SM  H15T12101   5.304   3.177  14.380  0.4813  0.5802 -2.1710
   9023SM  C16S12102   5.279   2.995  14.499 -0.0034  0.6559  0.0419
   9023SM  H16S12103   5.382   2.988  14.540  0.6882 -3.3258 -1.8631
   9023SM  H16T12104   5.239   2.891  14.485  1.4684  0.2364 -1.3695
   9023SM  C17S12105   5.184   3.068  14.596  0.1778 -0.5515  0.2510
   9023SM  H17S12106   5.088   3.089  14.543  0.2182  0.5687  0.5872
   9023SM  H17T12107   5.229   3.166  14.621  1.5528 -1.0978 -0.0328
   9023SM  C18S12108   5.144   2.993  14.718 -0.3181 -0.8680 -0.7882
   9023SM  H18S12109   5.071   3.042  14.786  0.7735 -0.8999  0.4401
   9023SM  H18T12110   5.238   2.960  14.766 -0.4220 -1.2117 -0.8203
   9023SM  H18U12111   5.092   2.901  14.683  0.0415 -0.8780 -1.3028
   9023SM   C1F12112   6.042   3.161  13.586  0.0599 -0.7086  0.4293
   9023SM    OF12113   6.020   3.244  13.498 -0.0197 -0.5854  0.2978
   9023SM   C2F12114   6.093   3.198  13.718 -0.4400 -0.1423  0.4098
   9023SM   H2F12115   6.203   3.188  13.711 -0.5351 -1.0129  0.0758
   9023SM   H2G12116   6.050   3.127  13.793  0.5057 -3.1621 -1.7160
   9023SM   C3F12117   6.062   3.342  13.751 -0.1746 -0.3448  0.1218
   9023SM   H3F12118   5.953   3.360  13.755 -0.7431 -3.1001 -0.7214
   9023SM   H3G12119   6.106   3.412  13.676  0.8711 -1.1385 -0.0311
   9023SM   C4F12120   6.114   3.365  13.896 -0.2015  0.5009  0.3047
   9023SM   H4F12121   6.224   3.356  13.895 -0.2856 -0.6752  0.0341
   9023SM   H4G12122   6.084   3.278  13.959 -1.4929 -0.5276 -1.6288
   9023SM   C5F12123   6.086   3.505  13.967 -0.0783 -0.2314 -0.0498
   9023SM   H5F12124   6.139   3.581  13.906 -0.0976  0.1763  0.4329
   9023SM   H5G12125   6.127   3.496  14.070  3.8444 -0.5692 -1.4475
   9023SM   C6F12126   5.942   3.552  13.972 -0.4544 -0.0075 -0.6299
   9023SM   H6F12127   5.880   3.478  14.027  0.9708 -0.6928  0.1028
   9023SM   H6G12128   5.910   3.556  13.866  1.8188 -1.5834 -1.4296
   9023SM   C7F12129   5.923   3.690  14.042 -0.2081  0.6821  0.0436
   9023SM   H7F12130   5.971   3.771  13.983 -0.5273  0.1153 -1.0208
   9023SM   H7G12131   5.980   3.689  14.137  2.6300  0.0658 -1.5198
   9023SM   C8F12132   5.776   3.722  14.070 -0.2744 -0.3090  0.1912
   9023SM   H8F12133   5.732   3.637  14.125  1.5825 -0.0150  2.2479
   9023SM   H8G12134   5.728   3.729  13.969  0.0988 -0.5605 -0.0040
   9023SM   C9F12135   5.753   3.851  14.153  0.5195  0.0120 -0.0400
   9023SM   H9F12136   5.650   3.892  14.149  0.6150  0.2070 -0.5460
   9023SM   H9G12137   5.829   3.926  14.121  2.5170 -1.1095  1.7760
   9023SM  C10F12138   5.789   3.828  14.303 -0.3774 -0.7246 -0.3309
   9023SM  H10F12139   5.793   3.928  14.351  1.3249 -1.1136  0.3939
   9023SM  H10G12140   5.887   3.779  14.289  0.1644  0.4328 -0.6672
   9023SM  C11F12141   5.682   3.745  14.382 -0.2444  0.4373  0.6500
   9023SM  H11F12142   5.666   3.649  14.329 -0.3383  0.6220  0.3428
   9023SM  H11G12143   5.587   3.794  14.411  0.3863  0.1641  3.5408
   9023SM  C12F12144   5.741   3.704  14.519 -0.2584 -0.1459  0.3265
   9023SM  H12F12145   5.667   3.729  14.598 -3.2173 -1.2240 -1.9348
   9023SM  H12G12146   5.838   3.758  14.520 -0.6631  0.6821 -1.0926
   9023SM  C13F12147   5.767   3.552  14.540 -0.2220  1.3398 -0.4392
   9023SM  H13F12148   5.861   3.528  14.487 -1.1444 -2.5382 -0.6047
   9023SM  H13G12149   5.681   3.497  14.494  0.9849 -1.1363  0.1122
   9023SM  C14F12150   5.775   3.515  14.691 -0.8333  0.0476 -0.0901
   9023SM  H14F12151   5.826   3.416  14.695  0.5094  0.7398  1.6069
   9023SM  H14G12152   5.678   3.496  14.742 -0.9125  0.2222 -0.1758
   9023SM  C15F12153   5.861   3.613  14.784 -0.0835 -0.3581 -0.4114
   9023SM  H15F12154   5.883   3.707  14.729  1.2983 -0.4637 -0.0631
   9023SM  H15G12155   5.958   3.566  14.811 -0.8911 -1.8245  0.0245
   9023SM  C16F12156   5.778   3.659  14.906 -0.5345 -0.4119 -0.1401
   9023SM  H16F12157   5.834   3.736  14.963 -0.8340  0.8316 -1.4895
   9023SM  H16G12158   5.760   3.570  14.971  0.9998 -1.0601 -0.5687
   9023SM  C17F12159   5.640   3.716  14.881 -0.7459  0.4706 -0.3705
   9023SM  H17F12160   5.575   3.633  14.844  1.2612 -1.5003  0.3081
   9023SM  H17G12161   5.656   3.809  14.823  0.3298 -0.3033 -1.3670
   9023SM  C18F12162   5.581   3.766  15.014  0.5394  0.0818 -0.0820
   9023SM  H18F12163   5.658   3.824  15.069  0.4736  0.4768 -0.4010
   9023SM  H18G12164   5.552   3.675  15.069 -1.2502 -0.9332 -2.5590
   9023SM  C19F12165   5.453   3.851  14.987 -0.4973  0.2374  0.9802
   9023SM  H19F12166   5.402   3.804  14.900  1.6371 -0.2476 -0.0824
   9023SM  H19G12167   5.490   3.949  14.950 -3.0478  1.1343  0.5590
   9023SM  C20F12168   5.357   3.857  15.113  0.3825 -0.1769 -0.4787
   9023SM  H20F12169   5.321   3.757  15.145  2.2777 -0.1935  1.8894
   9023SM  H20G12170   5.273   3.919  15.074  0.0877  1.2954  2.2527
   9023SM  C21F12171   5.423   3.929  15.235 -0.6768  0.5278  0.1102
   9023SM  H21F12172   5.529   3.897  15.244 -0.5516  1.3359  1.8375
   9023SM  H21G12173   5.370   3.889  15.324 -0.5420  0.3700  0.1211
   9023SM  C22F12174   5.433   4.082  15.231 -0.2566 -0.5490 -0.0519
   9023SM  H22F12175   5.336   4.133  15.215  0.0979  1.2243  2.7104
   9023SM  H22G12176   5.511   4.103  15.154  0.2161 -2.6439 -0.2011
   9023SM  C23F12177   5.485   4.143  15.370 -0.1250 -0.2107 -0.0445
   9023SM  H23F12178   5.528   4.240  15.337  1.5037  0.0071  2.4269
   9023SM  H23G12179   5.559   4.076  15.419 -2.1996 -4.0548 -1.7840
   9023SM  H23H12180   5.398   4.159  15.438 -1.3669  0.4479 -1.7066
   9123SM     N12181   7.554   5.846  13.187 -0.6259 -0.0045  0.3046
   9123SM   C1512182   7.614   5.925  13.076 -0.0369  0.2809 -0.2510
   9123SM  H15A12183   7.537   5.944  13.002  0.6032 -0.4086 -1.1116
   9123SM  H15B12184   7.690   5.873  13.019 -0.1467 -2.4896  1.8814
   9123SM  H15C12185   7.659   6.018  13.108  0.4949 -0.2216  0.5025
   9123SM   C1412186   7.508   5.714  13.144  0.5590  0.3429 -0.4859
   9123SM  H14A12187   7.591   5.656  13.107  0.5757 -1.0066  1.5558
   9123SM  H14B12188   7.435   5.721  13.064 -0.0165  1.9000  0.1350
   9123SM  H14C12189   7.468   5.661  13.229 -1.1686  0.6759 -1.0625
   9123SM   C1312190   7.665   5.840  13.293 -0.2947 -0.7960  0.3513
   9123SM  H13A12191   7.761   5.800  13.263  0.3284 -0.2930  1.5879
   9123SM  H13B12192   7.639   5.779  13.378  0.7431  1.5136  2.4358
   9123SM  H13C12193   7.687   5.940  13.327  1.1815 -0.2096 -2.0574
   9123SM   C1212194   7.435   5.932  13.239  0.5049 -0.0313 -0.2571
   9123SM  H12A12195   7.362   5.933  13.160 -1.8458 -0.9755  1.7566
   9123SM  H12B12196   7.462   6.036  13.249 -0.1858  0.3036 -1.5845
   9123SM   C1112197   7.367   5.888  13.367 -0.4656  0.0714  0.2735
   9123SM  H11A12198   7.305   5.967  13.414  0.4781  1.2502 -0.4346
   9123SM  H11B12199   7.446   5.872  13.444 -2.5027 -0.2490  2.4353
   9123SM     P12200   7.148   5.779  13.297  0.0029  0.6096 -0.2405
   9123SM   O1312201   7.151   5.849  13.169  0.0956 -0.4535  0.0691
   9123SM   O1412202   7.092   5.643  13.287  0.3618 -0.0058 -0.3352
   9123SM   O1112203   7.072   5.869  13.400  0.3437 -0.0405  0.1373
   9123SM   O1212204   7.292   5.767  13.345 -0.1166 -0.1035 -0.2478
   9123SM   C1S12205   6.992   5.805  13.503 -0.0191  0.3032  0.1143
   9123SM   H1S12206   7.016   5.697  13.518  0.7104  0.4258 -0.0899
   9123SM   H1T12207   6.884   5.822  13.488  0.1119  1.4279  0.3165
   9123SM    NF12208   6.966   5.784  13.752  0.1802 -0.1361 -0.1110
   9123SM   HNF12209   6.877   5.804  13.793  0.9804 -0.0199  1.7065
   9123SM   C2S12210   7.013   5.871  13.649 -0.4408 -0.5808  1.0807
   9123SM   H2S12211   7.121   5.891  13.667  0.4561 -1.5719 -2.5014
   9123SM   C3S12212   6.938   6.006  13.643  0.4588  0.4900  0.1429
   9123SM   H3S12213   6.827   5.998  13.644  0.4339  0.8258  0.2958
   9123SM    O312214   6.953   6.082  13.521  0.2184 -0.1686  0.0096
   9123SM   HO312215   7.011   6.028  13.467  1.8251  0.7910  0.6947
   9123SM   C4S12216   6.997   6.084  13.761 -0.0111 -0.7118 -0.0627
   9123SM   H4S12217   7.107   6.086  13.751 -0.0454  0.2948 -0.3603
   9123SM   C5S12218   6.939   6.163  13.860 -0.2640 -0.4536 -0.1675
   9123SM   H5S12219   6.830   6.171  13.847 -0.2965 -2.7996 -1.8640
   9123SM   C6S12220   7.009   6.249  13.967 -0.1582  0.1103  0.0412
   9123SM   H6S12221   6.994   6.359  13.953 -1.4007 -0.2256 -1.5631
   9123SM   H6T12222   7.115   6.218  13.966 -0.1094 -0.1697  3.4645
   9123SM   C7S12223   6.941   6.215  14.107 -0.2638  0.1349  0.1901
   9123SM   H7S12224   6.943   6.105  14.122 -2.9095 -0.0963 -0.6147
   9123SM   H7T12225   6.836   6.252  14.108 -0.0606  0.8131 -0.7349
   9123SM   C8S12226   7.004   6.276  14.232  0.4484  0.1260 -0.4102
   9123SM   H8S12227   6.989   6.386  14.238 -1.8199 -0.2066  3.6750
   9123SM   H8T12228   7.112   6.254  14.237  0.5967  0.7582 -0.7581
   9123SM   C9S12229   6.920   6.229  14.350 -0.2819 -0.0227 -0.4620
   9123SM   H9S12230   6.921   6.119  14.333  1.9152  0.1547 -1.9516
   9123SM   H9T12231   6.812   6.253  14.351 -0.8343 -2.2294  0.5931
   9123SM  C10S12232   6.980   6.262  14.485  0.6762  0.9398 -0.5985
   9123SM  H10S12233   6.981   6.372  14.493  2.2301  0.9229 -0.1614
   9123SM  H10T12234   7.081   6.216  14.475 -0.3474 -1.7669  0.6120
   9123SM  C11S12235   6.907   6.188  14.593 -0.3517  0.5449 -0.0477
   9123SM  H11S12236   6.871   6.085  14.572  0.4201 -0.3186  2.4012
   9123SM  H11T12237   6.824   6.255  14.623  0.0877  0.7914  0.6528
   9123SM  C12S12238   7.002   6.174  14.709  0.1568 -0.0969 -0.3025
   9123SM  H12S12239   7.033   6.276  14.737  0.6245 -0.7735  1.8273
   9123SM  H12T12240   7.089   6.108  14.688 -0.0762 -0.5259  0.0578
   9123SM  C13S12241   6.925   6.137  14.842 -0.0020  0.2391 -1.1630
   9123SM  H13S12242   6.889   6.032  14.835  0.4474 -0.1576  1.3776
   9123SM  H13T12243   6.833   6.199  14.856  0.5199  1.0944 -1.4503
   9123SM  C14S12244   7.017   6.160  14.964 -0.5962 -0.3282 -0.4928
   9123SM  H14S12245   7.077   6.249  14.938 -0.2819 -0.2897  0.3494
   9123SM  H14T12246   7.080   6.070  14.954  1.0710  0.7079  0.3070
   9123SM  C15S12247   6.948   6.146  15.095  0.0695  0.3893  0.5743
   9123SM  H15S12248   6.864   6.217  15.108 -1.6879 -1.1862 -1.5036
   9123SM  H15T12249   7.022   6.155  15.178  1.2921 -1.8604 -0.1875
   9123SM  C16S12250   6.878   6.008  15.111 -0.0337 -0.1027  0.0386
   9123SM  H16S12251   6.943   5.920  15.094  0.5456  0.3940 -0.3215
   9123SM  H16T12252   6.791   6.005  15.041 -2.4010  0.8236  2.7519
   9123SM  C17S12253   6.804   5.993  15.246  0.0939  0.0174 -0.0167
   9123SM  H17S12254   6.724   6.070  15.255 -1.7517 -1.9885  2.0770
   9123SM  H17T12255   6.869   6.007  15.335 -0.1525 -1.1604  0.3691
   9123SM  C18S12256   6.728   5.858  15.259 -0.0877 -0.1031 -0.1372
   9123SM  H18S12257   6.642   5.844  15.190 -0.1140 -0.1273 -0.0985
   9123SM  H18T12258   6.689   5.854  15.363  0.4324  0.4909  0.0901
   9123SM  H18U12259   6.806   5.779  15.260  2.3816  2.2052  1.1383
   9123SM   C1F12260   7.030   5.666  13.776 -0.4684 -0.8431  0.0454
   9123SM    OF12261   7.143   5.649  13.726  0.2163  0.7827  0.6540
   9123SM   C2F12262   6.949   5.561  13.845 -0.7388  0.3754  0.4387
   9123SM   H2F12263   6.956   5.478  13.771 -0.0539 -0.6867  1.6548
   9123SM   H2G12264   6.844   5.591  13.863 -1.0576  0.0637 -0.7436
   9123SM   C3F12265   7.010   5.496  13.973 -0.1510 -0.2007  0.2000
   9123SM   H3F12266   7.119   5.486  13.955 -0.2020  0.2836 -0.4201
   9123SM   H3G12267   6.963   5.397  13.990  0.2471 -0.4797 -0.3241
   9123SM   C4F12268   6.995   5.575  14.100  0.9437 -0.1785 -0.4418
   9123SM   H4F12269   6.901   5.538  14.146  0.7062 -0.2535 -0.9725
   9123SM   H4G12270   6.974   5.681  14.077  0.9282 -0.4675 -1.9052
   9123SM   C5F12271   7.104   5.562  14.209 -0.0618  0.2353 -0.6576
   9123SM   H5F12272   7.067   5.638  14.281  0.1573 -0.3507  0.0814
   9123SM   H5G12273   7.197   5.601  14.162  0.2324 -0.0365 -0.3015
   9123SM   C6F12274   7.123   5.423  14.268  0.2233  0.4593 -0.6626
   9123SM   H6F12275   7.174   5.367  14.186 -0.7497 -0.7347 -0.4680
   9123SM   H6G12276   7.023   5.383  14.292 -0.3875  1.9191 -0.6572
   9123SM   C7F12277   7.207   5.426  14.398 -0.6345  0.3410  0.4263
   9123SM   H7F12278   7.299   5.486  14.382  0.7870 -1.6732  0.6733
   9123SM   H7G12279   7.237   5.322  14.423 -0.3386  0.5942  1.1613
   9123SM   C8F12280   7.144   5.484  14.526  0.7934  0.3258  0.0350
   9123SM   H8F12281   7.043   5.442  14.546  0.2524  1.2584 -0.6159
   9123SM   H8G12282   7.109   5.583  14.489 -2.1217 -0.0543  1.4442
   9123SM   C9F12283   7.241   5.489  14.647  0.5422 -0.1093 -0.2093
   9123SM   H9F12284   7.336   5.535  14.612  0.4399  0.1748 -0.1205
   9123SM   H9G12285   7.271   5.393  14.694  0.0689 -0.5172 -0.7263
   9123SM  C10F12286   7.181   5.584  14.763 -1.0022  0.1493 -0.1474
   9123SM  H10F12287   7.110   5.530  14.830 -1.9983 -1.2884 -2.2479
   9123SM  H10G12288   7.126   5.662  14.706 -1.6792  0.4000  0.8191
   9123SM  C11F12289   7.289   5.662  14.840 -0.0665 -0.4146 -0.6036
   9123SM  H11F12290   7.362   5.686  14.759  1.0578 -0.2846  0.4250
   9123SM  H11G12291   7.344   5.600  14.913  1.6134  0.4093 -1.1230
   9123SM  C12F12292   7.235   5.792  14.911 -0.0748  0.0720  0.4328
   9123SM  H12F12293   7.154   5.772  14.984 -1.6257  0.4076 -1.1384
   9123SM  H12G12294   7.180   5.858  14.840 -2.5002  0.0428  2.1728
   9123SM  C13F12295   7.346   5.881  14.984 -0.2298 -0.0427  1.2122
   9123SM  H13F12296   7.288   5.968  15.020 -3.1808 -1.3767 -0.0094
   9123SM  H13G12297   7.421   5.918  14.911  0.7581  1.1854  2.7739
   9123SM  C14F12298   7.412   5.804  15.092 -0.4199  0.4879  0.0516
   9123SM  H14F12299   7.463   5.720  15.039 -1.0130  1.1049 -1.5522
   9123SM  H14G12300   7.333   5.768  15.161  0.7168  1.0014  1.6869
   9123SM  C15F12301   7.512   5.890  15.172 -0.7625  0.2578  0.2680
   9123SM  H15F12302   7.541   5.833  15.263 -0.0444  2.1199  1.2640
   9123SM  H15G12303   7.466   5.979  15.219 -1.6555  1.6336 -2.9326
   9123SM  C16F12304   7.627   5.940  15.092  0.1887  0.5687 -0.2424
   9123SM  H16F12305   7.609   6.035  15.038  0.1912  0.4206 -0.5069
   9123SM  H16G12306   7.664   5.873  15.011 -0.5302 -1.3482  0.9567
   9123SM  C17F12307   7.750   5.971  15.187 -0.0338  1.0755 -0.1557
   9123SM  H17F12308   7.738   5.902  15.273 -0.2095 -0.1840 -1.1547
   9123SM  H17G12309   7.717   6.070  15.223 -1.9288  1.0108 -1.5124
   9123SM  C18F12310   7.893   5.970  15.135  0.3530 -0.0193  0.7927
   9123SM  H18F12311   7.915   6.072  15.097 -2.3843 -0.1715 -1.4701
   9123SM  H18G12312   7.890   5.904  15.047 -0.1475  1.8056 -0.6314
   9123SM  C19F12313   7.995   5.925  15.238  0.6716  0.3088 -0.1716
   9123SM  H19F12314   8.088   5.894  15.184  0.3359  0.9004 -1.1133
   9123SM  H19G12315   7.961   5.828  15.282 -0.6461  0.3528 -1.0467
   9123SM  C20F12316   8.010   6.026  15.353 -0.2201  0.2628 -0.4763
   9123SM  H20F12317   7.906   6.036  15.391 -0.1197 -0.5012  0.0297
   9123SM  H20G12318   8.041   6.128  15.323  0.3090 -0.5088 -2.7512
   9123SM  C21F12319   8.102   5.977  15.455 -0.1585  0.6991 -0.9143
   9123SM  H21F12320   8.197   5.953  15.402 -0.1224 -1.9995  0.2334
   9123SM  H21G12321   8.051   5.885  15.490  2.2771 -0.0467  0.9308
   9123SM  C22F12322   8.125   6.077  15.574  0.6433 -0.0956 -0.2777
   9123SM  H22F12323   8.174   6.166  15.531  0.2015  0.1233 -0.3384
   9123SM  H22G12324   8.188   6.032  15.653 -0.4905 -0.3408  0.5224
   9123SM  C23F12325   7.990   6.123  15.635  0.4028 -0.0415  0.2869
   9123SM  H23F12326   7.917   6.040  15.647  2.3162 -1.8758 -0.1253
   9123SM  H23G12327   7.946   6.204  15.574  0.5260 -0.5022 -0.4317
   9123SM  H23H12328   8.009   6.168  15.735 -0.1850  0.0000  0.3829
   9223SM     N12329   4.814   2.050  12.974 -0.3889 -0.2732 -0.2160
   9223SM   C1512330   4.781   2.112  12.838 -0.2933  0.1357  0.1538
   9223SM  H15A12331   4.868   2.118  12.774 -0.1831 -2.9167 -0.1636
   9223SM  H15B12332   4.724   2.201  12.857  0.3128  0.1423  2.1610
   9223SM  H15C12333   4.715   2.037  12.797  1.6730 -0.1954 -2.6559
   9223SM   C1412334   4.685   2.012  13.029  0.0890  0.8528  0.3092
   9223SM  H14A12335   4.611   2.090  13.033 -1.7524 -0.9019  2.1670
   9223SM  H14B12336   4.688   1.967  13.127 -1.1587 -4.0747 -1.6292
   9223SM  H14C12337   4.646   1.930  12.971  0.1084  0.3481  0.9957
   9223SM   C1312338   4.903   1.931  12.947  0.0282  0.5456 -0.0717
   9223SM  H13A12339   4.871   1.853  12.879 -2.5141  0.3149  1.2775
   9223SM  H13B12340   4.927   1.881  13.040 -1.3144  1.3756  0.7569
   9223SM  H13C12341   4.996   1.968  12.907 -0.9726  0.7786 -2.3324
   9223SM   C1212342   4.892   2.150  13.059  0.1302  0.1091 -0.3740
   9223SM  H12A12343   4.837   2.243  13.061  2.1201  1.3595 -0.3549
   9223SM  H12B12344   4.987   2.185  13.020 -0.7846  1.4599 -1.4828
   9223SM   C1112345   4.915   2.113  13.210 -0.0511  0.0049  0.4094
   9223SM  H11A12346   4.821   2.084  13.261 -0.7936  0.0478 -0.8907
   9223SM  H11B12347   4.948   2.206  13.260  1.9601 -0.2715 -0.2783
   9223SM     P12348   5.162   2.047  13.202 -0.5389  0.5509  0.2149
   9223SM   O1312349   5.234   1.940  13.133  0.4521  0.1617 -0.5161
   9223SM   O1412350   5.172   2.172  13.129 -0.6675  0.4292  0.5999
   9223SM   O1112351   5.219   2.051  13.348 -0.3853 -0.2853  0.7678
   9223SM   O1212352   5.012   2.007  13.220  0.2573  0.5928  0.0216
   9223SM   C1S12353   5.195   2.158  13.444  0.7237  0.2034  0.1366
   9223SM   H1S12354   5.167   2.255  13.398 -1.7266  0.4892  2.0443
   9223SM   H1T12355   5.283   2.169  13.511 -0.7411 -1.3880  2.4439
   9223SM    NF12356   5.031   2.252  13.611  0.3536  0.6014  0.6167
   9223SM   HNF12357   5.037   2.247  13.711  0.1073 -0.7757  0.5752
   9223SM   C2S12358   5.068   2.132  13.531  0.1314  0.0206 -0.0534
   9223SM   H2S12359   4.979   2.106  13.471 -0.7876  0.5603  1.0414
   9223SM   C3S12360   5.095   2.010  13.627  0.1870  0.3224 -0.4861
   9223SM   H3S12361   5.177   2.050  13.690  0.9220  0.3551 -1.4383
   9223SM    O312362   5.140   1.891  13.562  0.1342 -0.4394  0.2597
   9223SM   HO312363   5.142   1.918  13.469 -0.2411 -1.1616  0.0333
   9223SM   C4S12364   4.984   1.975  13.724 -0.3812  0.4242  0.4788
   9223SM   H4S12365   4.888   1.945  13.680 -0.7098  1.7008  0.2770
   9223SM   C5S12366   4.992   1.971  13.857 -0.6238 -0.8084  0.2757
   9223SM   H5S12367   5.087   1.994  13.907 -1.8594  0.3492  2.2266
   9223SM   C6S12368   4.875   1.945  13.938 -0.1647  0.8272 -0.0522
   9223SM   H6S12369   4.811   1.862  13.900 -0.0572  1.2168 -1.1355
   9223SM   H6T12370   4.815   2.037  13.957 -0.9143  0.4382 -0.4737
   9223SM   C7S12371   4.918   1.900  14.086  0.2809 -0.0392  0.0275
   9223SM   H7S12372   4.998   1.964  14.127  0.5997  0.4311 -1.2696
   9223SM   H7T12373   4.941   1.791  14.083  0.2585 -0.0703  0.8146
   9223SM   C8S12374   4.809   1.910  14.189  0.7363 -0.1047 -0.2850
   9223SM   H8S12375   4.719   1.854  14.157  0.9861 -1.9546  2.0024
   9223SM   H8T12376   4.780   2.016  14.205  2.5271  0.1526  1.6359
   9223SM   C9S12377   4.852   1.851  14.324 -0.2554  0.2678 -0.8953
   9223SM   H9S12378   4.943   1.901  14.365 -1.2241 -0.4293  2.4349
   9223SM   H9T12379   4.880   1.744  14.317 -2.1736 -0.3437  0.0789
   9223SM  C10S12380   4.747   1.846  14.443  0.6820  0.0108  0.0657
   9223SM  H10S12381   4.653   1.825  14.389 -0.9180  2.6232  1.6059
   9223SM  H10T12382   4.725   1.950  14.474 -0.7155  0.8455 -3.2876
   9223SM  C11S12383   4.792   1.762  14.564  0.8284  0.3371 -0.2692
   9223SM  H11S12384   4.891   1.798  14.600 -0.2027  2.1549  0.8911
   9223SM  H11T12385   4.809   1.658  14.531  0.3624  0.3805 -0.6607
   9223SM  C12S12386   4.687   1.754  14.681  0.0045  0.0163  0.3007
   9223SM  H12S12387   4.595   1.709  14.637 -0.8997  0.3981  1.7249
   9223SM  H12T12388   4.663   1.859  14.709 -0.5277 -0.1734  0.5639
   9223SM  C13S12389   4.733   1.662  14.798  0.3570  0.1987  0.8212
   9223SM  H13S12390   4.766   1.561  14.763 -1.9183  0.0853 -1.2269
   9223SM  H13T12391   4.644   1.632  14.857  0.5686 -0.0117  1.0362
   9223SM  C14S12392   4.833   1.741  14.884  0.0411 -0.0181 -0.3224
   9223SM  H14S12393   4.793   1.835  14.929 -1.3901 -0.3563 -0.8364
   9223SM  H14T12394   4.928   1.772  14.835  1.5063 -1.4407  1.4633
   9223SM  C15S12395   4.875   1.645  14.993  1.0272 -0.0258  0.2959
   9223SM  H15S12396   4.931   1.558  14.952 -0.0625 -1.1921  1.2123
   9223SM  H15T12397   4.789   1.609  15.053  0.6946  1.6497  0.8702
   9223SM  C16S12398   4.983   1.712  15.077  1.1033 -0.5358  0.3276
   9223SM  H16S12399   4.934   1.806  15.109 -0.7368 -2.0789  2.3256
   9223SM  H16T12400   5.066   1.733  15.006  0.7953  0.9972  0.3882
   9223SM  C17S12401   5.019   1.634  15.201  0.4413 -0.0926 -0.7714
   9223SM  H17S12402   5.033   1.528  15.169  0.6627  0.0082 -1.0108
   9223SM  H17T12403   4.940   1.635  15.278  0.5952  1.0501 -0.6165
   9223SM  C18S12404   5.153   1.693  15.266 -0.7518  0.0247 -0.1746
   9223SM  H18S12405   5.237   1.677  15.195 -1.2896 -0.6619 -0.6783
   9223SM  H18T12406   5.175   1.636  15.358 -0.5981 -0.6864 -0.6490
   9223SM  H18U12407   5.150   1.803  15.282  2.3596  0.4312 -1.5804
   9223SM   C1F12408   4.979   2.359  13.559 -0.5525  0.3792  1.3793
   9223SM    OF12409   4.941   2.355  13.441  0.0923 -0.6823 -0.7566
   9223SM   C2F12410   4.972   2.487  13.634  0.2052 -0.2825 -0.2428
   9223SM   H2F12411   5.073   2.527  13.656  0.2180 -0.5978  0.2698
   9223SM   H2G12412   4.946   2.451  13.735  1.3570 -0.8282 -0.1159
   9223SM   C3F12413   4.868   2.587  13.578 -0.8170  0.2194  0.4564
   9223SM   H3F12414   4.768   2.540  13.571 -0.4675 -0.7133  1.4544
   9223SM   H3G12415   4.889   2.614  13.473 -0.4783  3.6270  1.2651
   9223SM   C4F12416   4.862   2.721  13.655  0.4919 -0.1150  0.0655
   9223SM   H4F12417   4.797   2.795  13.603 -0.5687 -0.6861  0.5673
   9223SM   H4G12418   4.965   2.763  13.666  0.8616 -1.0626  0.3410
   9223SM   C5F12419   4.805   2.699  13.794  0.4901  0.1602  0.6592
   9223SM   H5F12420   4.797   2.590  13.814 -0.4822 -0.1550 -1.2118
   9223SM   H5G12421   4.702   2.740  13.794 -0.6397 -2.4045 -0.9600
   9223SM   C6F12422   4.881   2.759  13.908  0.2514 -0.2902 -0.1773
   9223SM   H6F12423   4.880   2.867  13.882  1.9609 -0.2189 -0.0725
   9223SM   H6G12424   4.984   2.716  13.903 -0.1119 -1.2634  0.4342
   9223SM   C7F12425   4.831   2.729  14.057 -0.7809  0.3097 -0.1378
   9223SM   H7F12426   4.843   2.620  14.072 -1.2598  0.3319  0.4509
   9223SM   H7G12427   4.727   2.769  14.053 -0.8747  0.2958  1.5571
   9223SM   C8F12428   4.922   2.803  14.156  0.5354 -0.6293 -0.3588
   9223SM   H8F12429   4.921   2.913  14.142  2.7546 -0.6064 -0.6803
   9223SM   H8G12430   5.023   2.764  14.133 -0.2425 -2.1157 -1.4549
   9223SM   C9F12431   4.893   2.763  14.293  0.0669  0.1338 -0.0778
   9223SM   H9F12432   4.977   2.802  14.355 -1.3215 -0.8820  2.6279
   9223SM   H9G12433   4.901   2.652  14.299 -0.5968 -0.0252 -1.6948
   9223SM  C10F12434   4.778   2.835  14.342  0.1206  0.0593 -0.6145
   9223SM  H10F12435   4.680   2.800  14.305  0.0826 -1.6846  0.9716
   9223SM  H10G12436   4.787   2.942  14.315  3.2867  0.9157  2.9162
   9223SM  C11F12437   4.755   2.853  14.491 -0.2959 -0.5528 -0.2826
   9223SM  H11F12438   4.667   2.919  14.508 -0.7006 -1.3252  0.7057
   9223SM  H11G12439   4.841   2.910  14.529 -0.7378 -0.9280  1.3486
   9223SM  C12F12440   4.741   2.723  14.567 -0.1089  0.3281  0.1002
   9223SM  H12F12441   4.838   2.668  14.569  0.1421  0.7329 -0.6230
   9223SM  H12G12442   4.672   2.655  14.511  0.1644 -1.3721  1.7289
   9223SM  C13F12443   4.684   2.755  14.701 -0.4772  0.0216 -0.6507
   9223SM  H13F12444   4.693   2.660  14.757 -1.2238 -2.1996 -4.0033
   9223SM  H13G12445   4.577   2.781  14.692 -0.4917  0.0149 -0.4962
   9223SM  C14F12446   4.756   2.867  14.781 -0.1064  0.5137  0.0852
   9223SM  H14F12447   4.763   2.962  14.723 -0.4505  0.0522 -0.7197
   9223SM  H14G12448   4.858   2.830  14.804 -0.7288 -2.7537 -1.8543
   9223SM  C15F12449   4.694   2.909  14.920 -0.1179  0.3301  0.7471
   9223SM  H15F12450   4.755   2.990  14.964 -0.8337  0.4952  1.4530
   9223SM  H15G12451   4.694   2.826  14.994  1.8490  0.0544  0.4879
   9223SM  C16F12452   4.549   2.959  14.899  0.0641  0.2331  0.0351
   9223SM  H16F12453   4.481   2.877  14.868 -0.9546  1.1782 -0.3024
   9223SM  H16G12454   4.547   3.023  14.808  1.9902 -0.8997 -0.8718
   9223SM  C17F12455   4.500   3.030  15.024 -0.1680  0.6372  0.0600
   9223SM  H17F12456   4.560   3.119  15.053 -0.9383  1.3386 -0.4344
   9223SM  H17G12457   4.503   2.966  15.114 -0.2406 -0.3492 -0.6198
   9223SM  C18F12458   4.363   3.090  15.000  0.7446 -0.3353 -0.7150
   9223SM  H18F12459   4.298   3.016  14.950  1.0752 -0.9086 -0.3046
   9223SM  H18G12460   4.385   3.170  14.927  3.8949  0.8610  1.3124
   9223SM  C19F12461   4.309   3.146  15.131  0.3369 -0.2194 -0.6934
   9223SM  H19F12462   4.313   3.059  15.200  0.6076 -1.5106 -2.2672
   9223SM  H19G12463   4.204   3.181  15.120  0.3592 -0.5959 -2.3134
   9223SM  C20F12464   4.387   3.269  15.184 -0.7265 -0.1139 -0.6371
   9223SM  H20F12465   4.396   3.344  15.103  3.7215 -0.6174 -0.8983
   9223SM  H20G12466   4.492   3.244  15.214 -0.7469 -0.0221 -0.4874
   9223SM  C21F12467   4.318   3.350  15.295 -0.2505  0.6564  0.1914
   9223SM  H21F12468   4.393   3.418  15.342  1.4271 -1.0611  0.1312
   9223SM  H21G12469   4.290   3.282  15.377 -2.4693  1.1949 -0.0662
   9223SM  C22F12470   4.190   3.424  15.246 -0.0624 -0.2188 -0.2829
   9223SM  H22F12471   4.100   3.402  15.309 -0.1554 -0.2627 -0.4300
   9223SM  H22G12472   4.156   3.381  15.149  1.0318 -2.6690  0.3570
   9223SM  C23F12473   4.203   3.576  15.224  0.6143  0.4571 -0.0301
   9223SM  H23F12474   4.267   3.604  15.138  0.2512  0.3844 -0.3279
   9223SM  H23G12475   4.228   3.630  15.318  1.0015 -3.3805  2.3108
   9223SM  H23H12476   4.105   3.612  15.186  1.4540  0.8035 -1.9318
   9323SM     N12477   7.644   3.469  12.908  0.5035  0.6272 -0.7054
   9323SM   C1512478   7.773   3.467  12.834 -0.4094  0.2252  0.2346
   9323SM  H15A12479   7.779   3.361  12.814 -0.5368  0.1105  0.7802
   9323SM  H15B12480   7.858   3.490  12.897 -0.5932 -0.9187  0.9320
   9323SM  H15C12481   7.776   3.518  12.739  0.3184  1.9972  1.1708
   9323SM   C1412482   7.590   3.609  12.915  0.2697  0.5179  0.1162
   9323SM  H14A12483   7.492   3.612  12.961  0.5489 -2.2138  1.0580
   9323SM  H14B12484   7.584   3.652  12.816  1.6195  0.5354  0.0185
   9323SM  H14C12485   7.650   3.679  12.970  0.8663 -0.5058  0.7946
   9323SM   C1312486   7.555   3.376  12.834  0.0802  0.2373  0.2598
   9323SM  H13A12487   7.589   3.274  12.834 -0.8304 -0.0719  1.0753
   9323SM  H13B12488   7.547   3.405  12.730  0.6430  0.3966  0.2573
   9323SM  H13C12489   7.454   3.378  12.872 -0.3702 -3.2868 -0.4289
   9323SM   C1212490   7.661   3.413  13.048  0.1558  0.9688 -0.0201
   9323SM  H12A12491   7.676   3.306  13.045  1.3673  1.0457  1.5780
   9323SM  H12B12492   7.572   3.427  13.108 -0.3325  0.1673 -0.5352
   9323SM   C1112493   7.770   3.473  13.142  0.2683 -0.1566 -0.9361
   9323SM  H11A12494   7.871   3.440  13.108 -0.2611  0.0556 -2.8610
   9323SM  H11B12495   7.758   3.422  13.240 -2.2749 -0.0478 -1.1409
   9323SM     P12496   7.680   3.662  13.290 -0.0629  0.1494  0.0868
   9323SM   O1312497   7.674   3.810  13.287  0.3656  0.4066  0.0763
   9323SM   O1412498   7.545   3.593  13.283 -0.6419  0.1424 -0.7422
   9323SM   O1112499   7.752   3.616  13.424  0.5787 -0.0614 -0.8231
   9323SM   O1212500   7.765   3.612  13.170  0.4090  0.6383 -0.4291
   9323SM   C1S12501   7.877   3.679  13.464  0.0466  0.1929 -0.2938
   9323SM   H1S12502   7.894   3.766  13.398  1.0656  0.4192  0.2600
   9323SM   H1T12503   7.957   3.602  13.467  1.7645  1.9654  0.8147
   9323SM    NF12504   8.018   3.780  13.635  0.7046 -0.1798 -0.1347
   9323SM   HNF12505   8.073   3.718  13.691 -2.4241 -1.8341  1.3699
   9323SM   C2S12506   7.884   3.729  13.609  0.2114 -0.3343 -0.4753
   9323SM   H2S12507   7.808   3.808  13.627 -0.6533 -1.1728 -0.3864
   9323SM   C3S12508   7.848   3.612  13.713  0.5414 -0.0658  0.4113
   9323SM   H3S12509   7.926   3.535  13.694 -0.1848 -0.6319 -0.3716
   9323SM    O312510   7.721   3.552  13.695  0.6439  0.2813  0.1605
   9323SM   HO312511   7.695   3.571  13.605  0.2474  2.0070  0.5970
   9323SM   C4S12512   7.853   3.663  13.854  0.1988 -0.8283 -0.1889
   9323SM   H4S12513   7.770   3.733  13.876  1.7128  1.2846 -0.9355
   9323SM   C5S12514   7.931   3.635  13.958  0.2394 -0.4843  0.5976
   9323SM   H5S12515   8.011   3.561  13.939  0.6184  0.3578 -1.3831
   9323SM   C6S12516   7.915   3.694  14.098 -0.9352  0.1387 -0.3015
   9323SM   H6S12517   8.021   3.719  14.121 -1.1316  0.9117 -0.1837
   9323SM   H6T12518   7.879   3.614  14.165 -0.1537 -0.5628 -0.6944
   9323SM   C7S12519   7.824   3.817  14.118 -0.7522  0.7779  0.8685
   9323SM   H7S12520   7.726   3.767  14.100  0.2561 -1.0110  0.2062
   9323SM   H7T12521   7.857   3.893  14.044  3.0713 -0.7275  0.7987
   9323SM   C8S12522   7.819   3.872  14.256  0.1144 -0.5784  0.2507
   9323SM   H8S12523   7.872   3.969  14.267  0.9433 -0.6453 -2.4618
   9323SM   H8T12524   7.866   3.791  14.316 -0.6616 -1.3808 -0.1950
   9323SM   C9S12525   7.681   3.901  14.311  0.9307 -0.4850  0.3439
   9323SM   H9S12526   7.618   3.811  14.326  2.1241 -1.3492  0.3033
   9323SM   H9T12527   7.638   3.947  14.219 -0.6137 -0.3634  1.0991
   9323SM  C10S12528   7.672   4.002  14.418 -0.0534  0.0737  0.1848
   9323SM  H10S12529   7.712   4.097  14.377  0.8568 -0.0334  0.7922
   9323SM  H10T12530   7.738   3.980  14.504  1.9479  4.0939 -0.0706
   9323SM  C11S12531   7.530   4.025  14.465  0.3665  0.5306 -0.1186
   9323SM  H11S12532   7.473   3.932  14.483 -0.8552  1.0100 -1.3929
   9323SM  H11T12533   7.458   4.075  14.397 -0.0093  2.2707  1.4688
   9323SM  C12S12534   7.532   4.096  14.610  0.4552 -0.5772  0.8084
   9323SM  H12S12535   7.583   4.194  14.608  0.2710 -0.3790  3.0661
   9323SM  H12T12536   7.602   4.038  14.675  0.3922 -1.8720 -0.2296
   9323SM  C13S12537   7.394   4.105  14.679 -0.0092 -0.3615 -0.3111
   9323SM  H13S12538   7.338   4.010  14.687 -0.5746 -0.0858 -0.8524
   9323SM  H13T12539   7.341   4.170  14.606  1.0935 -1.7112 -2.4177
   9323SM  C14S12540   7.401   4.161  14.819  0.4673 -0.0356  0.2884
   9323SM  H14S12541   7.436   4.071  14.873 -2.2774 -2.6632 -1.9566
   9323SM  H14T12542   7.301   4.199  14.847 -0.1354 -2.0903  1.0587
   9323SM  C15S12543   7.501   4.281  14.853  0.1006  0.1894  0.0337
   9323SM  H15S12544   7.604   4.244  14.830  0.6511  0.5999  1.7283
   9323SM  H15T12545   7.484   4.362  14.779 -0.8239 -0.5637 -0.6094
   9323SM  C16S12546   7.497   4.317  14.999 -0.1787 -0.1388  0.8170
   9323SM  H16S12547   7.542   4.231  15.052  0.4285 -0.6153 -0.4286
   9323SM  H16T12548   7.393   4.329  15.036  0.2850  1.3445  1.7391
   9323SM  C17S12549   7.576   4.453  15.021 -0.5443 -0.0217  0.0452
   9323SM  H17S12550   7.514   4.534  14.975 -0.0713  0.5668  0.4231
   9323SM  H17T12551   7.676   4.443  14.974 -0.6901 -2.1034  0.0932
   9323SM  C18S12552   7.597   4.501  15.158 -0.4059 -0.2868 -0.0168
   9323SM  H18S12553   7.509   4.536  15.217  0.1401 -1.5422  1.6030
   9323SM  H18T12554   7.678   4.578  15.155 -0.2330 -0.4045  1.3965
   9323SM  H18U12555   7.634   4.420  15.223  0.5814 -0.7364 -1.1110
   9323SM   C1F12556   8.062   3.899  13.599 -0.5779  0.3246 -0.4757
   9323SM    OF12557   7.990   3.970  13.534  0.0016  0.0701  0.1634
   9323SM   C2F12558   8.192   3.948  13.658 -0.4913  0.0319  0.3633
   9323SM   H2F12559   8.224   4.034  13.596  0.9669 -1.0033 -0.3749
   9323SM   H2G12560   8.274   3.874  13.647 -1.0424 -0.4886 -0.2860
   9323SM   C3F12561   8.174   3.995  13.808 -0.4546  0.1482 -0.0835
   9323SM   H3F12562   8.121   3.920  13.870  1.4150 -1.0216  0.1792
   9323SM   H3G12563   8.116   4.089  13.795  0.6159  0.4653 -3.5038
   9323SM   C4F12564   8.298   4.055  13.884 -0.4573  0.0949  0.0220
   9323SM   H4F12565   8.258   4.109  13.973 -2.0663 -1.0831  0.0555
   9323SM   H4G12566   8.339   4.121  13.805  0.4130 -1.0055 -0.4645
   9323SM   C5F12567   8.403   3.949  13.923 -0.8716  0.3523  0.1178
   9323SM   H5F12568   8.451   3.895  13.839  1.8937  0.0954  1.7166
   9323SM   H5G12569   8.357   3.876  13.993  1.5002 -0.7963  0.5920
   9323SM   C6F12570   8.524   4.018  13.993  0.3717 -0.2479 -0.7550
   9323SM   H6F12571   8.545   4.112  13.937  1.3285  0.4780  0.7266
   9323SM   H6G12572   8.611   3.950  13.988  2.7342  2.4106  0.7868
   9323SM   C7F12573   8.499   4.062  14.142 -0.3768 -0.3490 -0.0796
   9323SM   H7F12574   8.464   3.983  14.212 -1.8438  0.9249  0.6909
   9323SM   H7G12575   8.415   4.134  14.146  0.1158  0.2811 -0.7146
   9323SM   C8F12576   8.609   4.134  14.216 -0.2551 -0.4439  0.7351
   9323SM   H8F12577   8.698   4.068  14.210  0.6152  0.8106 -2.6885
   9323SM   H8G12578   8.565   4.135  14.318 -3.6438  0.2820 -0.5854
   9323SM   C9F12579   8.633   4.279  14.168  0.4163 -0.2088 -0.0123
   9323SM   H9F12580   8.539   4.329  14.138 -0.6270 -0.3700  2.7366
   9323SM   H9G12581   8.708   4.270  14.086 -1.3567 -2.6533 -1.5071
   9323SM  C10F12582   8.679   4.372  14.286  0.1107  0.1794  0.1743
   9323SM  H10F12583   8.721   4.465  14.241 -0.6530 -1.1477 -3.6356
   9323SM  H10G12584   8.761   4.316  14.335 -0.1838 -2.1698 -1.8123
   9323SM  C11F12585   8.565   4.418  14.382 -0.4644 -0.3902  0.4030
   9323SM  H11F12586   8.527   4.332  14.441 -0.5775 -1.0654 -0.6300
   9323SM  H11G12587   8.480   4.444  14.316 -0.0483  0.1085  0.0509
   9323SM  C12F12588   8.609   4.534  14.482  0.8728 -0.5773 -0.2477
   9323SM  H12F12589   8.517   4.567  14.533  0.1008 -1.1469 -1.2437
   9323SM  H12G12590   8.644   4.622  14.425 -0.9773  0.1195 -0.3493
   9323SM  C13F12591   8.711   4.488  14.582  0.1253  0.0093 -0.1930
   9323SM  H13F12592   8.803   4.473  14.522  1.4880  0.3963  1.7120
   9323SM  H13G12593   8.687   4.394  14.637 -1.0021  0.0212 -0.6374
   9323SM  C14F12594   8.737   4.577  14.699 -0.3159 -0.4510 -0.4078
   9323SM  H14F12595   8.775   4.679  14.680  2.3266 -0.9950  1.3349
   9323SM  H14G12596   8.828   4.542  14.753  0.7026  0.4579 -1.4797
   9323SM  C15F12597   8.615   4.576  14.790  0.2422 -0.2886  0.0542
   9323SM  H15F12598   8.562   4.478  14.789  0.6631 -0.5709  1.8271
   9323SM  H15G12599   8.539   4.639  14.740  0.6903 -0.3003 -0.6521
   9323SM  C16F12600   8.627   4.613  14.940 -1.0767 -0.3198 -0.2806
   9323SM  H16F12601   8.724   4.572  14.975 -0.5073 -1.2241 -2.7258
   9323SM  H16G12602   8.546   4.588  15.012 -0.6230 -0.6238  0.1379
   9323SM  C17F12603   8.632   4.765  14.945  0.0607  0.9773  0.5537
   9323SM  H17F12604   8.542   4.808  14.896 -0.3215 -1.9028 -1.5094
   9323SM  H17G12605   8.723   4.802  14.892 -1.2533 -0.1356 -2.7032
   9323SM  C18F12606   8.633   4.817  15.088  0.7511  0.1296 -0.5351
   9323SM  H18F12607   8.728   4.773  15.127  0.8210 -0.6078 -1.4971
   9323SM  H18G12608   8.540   4.777  15.133  0.9946 -0.4139 -0.4972
   9323SM  C19F12609   8.635   4.970  15.085 -0.5370  0.3074 -0.6406
   9323SM  H19F12610   8.537   5.012  15.053  0.2632  0.8501 -2.4776
   9323SM  H19G12611   8.713   5.010  15.018  1.2303 -2.0575 -0.1498
   9323SM  C20F12612   8.671   5.016  15.224 -0.2281  0.3352  0.1124
   9323SM  H20F12613   8.690   5.126  15.224 -3.8234  1.1138 -0.8086
   9323SM  H20G12614   8.766   4.970  15.257  0.6980  0.8567 -1.6779
   9323SM  C21F12615   8.573   4.973  15.341 -0.1723  0.1152  0.3256
   9323SM  H21F12616   8.611   4.985  15.445  0.0318 -0.5473  0.3354
   9323SM  H21G12617   8.533   4.870  15.328  1.9805 -0.5343 -1.7854
   9323SM  C22F12618   8.447   5.070  15.349  0.2557 -0.0367 -0.1705
   9323SM  H22F12619   8.371   5.009  15.403  0.7330 -0.4650  0.0235
   9323SM  H22G12620   8.413   5.098  15.247  2.0756  0.6205 -0.6486
   9323SM  C23F12621   8.475   5.201  15.428 -0.9164 -0.1638 -0.6350
   9323SM  H23F12622   8.551   5.265  15.378  1.5687 -3.4342 -1.4406
   9323SM  H23G12623   8.518   5.180  15.528 -0.9769 -1.2522 -0.8170
   9323SM  H23H12624   8.385   5.263  15.445  1.1036  2.6492  0.5040
   9423SM     N12625   5.712   0.174  13.007  0.3203  0.3699  0.3021
   9423SM   C1512626   5.697   0.171  12.858  0.6822 -0.1857  0.4104
   9423SM  H15A12627   5.796   0.187  12.819 -0.0283 -1.3747 -2.1383
   9423SM  H15B12628   5.625   0.242  12.820 -0.3283 -0.9973  0.7354
   9423SM  H15C12629   5.680   0.071  12.820  1.2683 -0.1826  0.1281
   9423SM   C1412630   5.726   0.310  13.055 -0.0835  0.2356  0.6127
   9423SM  H14A12631   5.632   0.362  13.048 -0.9662 -0.9906  2.4068
   9423SM  H14B12632   5.810   0.355  13.004  1.4946 -3.1241 -0.0473
   9423SM  H14C12633   5.749   0.304  13.161 -0.7148  0.7939  0.7841
   9423SM   C1312634   5.598   0.106  13.069  0.2342  0.0255  0.1869
   9423SM  H13A12635   5.509   0.164  13.051 -0.8535 -1.3816  0.8344
   9423SM  H13B12636   5.598   0.099  13.177  1.3039  0.3509  0.2174
   9423SM  H13C12637   5.595   0.009  13.022 -1.2485 -0.1460  0.5862
   9423SM   C1212638   5.843   0.101  13.034 -0.5977 -0.4020  0.0440
   9423SM  H12A12639   5.825  -0.003  13.056 -1.3461 -0.4103 -0.5807
   9423SM  H12B12640   5.872   0.144  13.129  0.4678  1.0221 -0.8665
   9423SM   C1112641   5.962   0.115  12.935  0.3978 -0.2133  0.3928
   9423SM  H11A12642   5.933   0.060  12.843  1.3236 -1.4266  0.8078
   9423SM  H11B12643   6.053   0.063  12.971  1.3398  0.6449 -0.6466
   9423SM     P12644   6.140   0.308  12.908 -0.2057 -0.4743  0.0272
   9423SM   O1312645   6.230   0.213  12.836 -0.2896  0.1641 -0.4640
   9423SM   O1412646   6.142   0.455  12.875  0.0721 -0.6129  0.2815
   9423SM   O1112647   6.174   0.294  13.066 -0.7448 -0.4312  0.4836
   9423SM   O1212648   5.990   0.255  12.906 -0.4233  0.4842  0.1265
   9423SM   C1S12649   6.081   0.362  13.148 -0.6623  0.5011  0.2952
   9423SM   H1S12650   5.975   0.344  13.120 -0.4940 -0.1860  0.0689
   9423SM   H1T12651   6.095   0.472  13.145  0.7693  0.3346  0.2366
   9423SM    NF12652   5.985   0.371  13.373 -0.0268  0.6816 -0.4127
   9423SM   HNF12653   6.000   0.467  13.395 -0.2366  0.2454  1.8180
   9423SM   C2S12654   6.095   0.316  13.299 -0.5940 -0.0449  0.2648
   9423SM   H2S12655   6.095   0.205  13.297  0.3363 -0.0703  0.7635
   9423SM   C3S12656   6.240   0.361  13.350  0.7086  0.0961  0.3171
   9423SM   H3S12657   6.247   0.471  13.339  0.5441  0.2005  1.1921
   9423SM    O312658   6.345   0.301  13.272  0.6350  0.0855 -0.4981
   9423SM   HO312659   6.304   0.255  13.199 -0.8810 -0.6595  0.7777
   9423SM   C4S12660   6.272   0.334  13.501  0.2793  1.1256 -0.0975
   9423SM   H4S12661   6.236   0.240  13.546  1.7038 -0.0382 -1.2751
   9423SM   C5S12662   6.328   0.421  13.598 -0.5181 -0.6813  0.4224
   9423SM   H5S12663   6.348   0.528  13.578  0.8813 -0.5604  2.1920
   9423SM   C6S12664   6.338   0.398  13.749 -0.0470  0.0208  0.1252
   9423SM   H6S12665   6.278   0.483  13.787 -1.6774 -0.2444 -1.7043
   9423SM   H6T12666   6.440   0.421  13.787  0.0221 -2.3396  1.6033
   9423SM   C7S12667   6.272   0.276  13.806 -0.8900  0.3083  0.0413
   9423SM   H7S12668   6.343   0.194  13.783 -0.0818  0.8174  0.6892
   9423SM   H7T12669   6.176   0.253  13.755 -0.1510  0.7513 -1.6355
   9423SM   C8S12670   6.233   0.278  13.957 -0.7377 -0.0966  0.0348
   9423SM   H8S12671   6.145   0.343  13.976  0.5761  1.7137  0.1438
   9423SM   H8T12672   6.320   0.327  14.006 -1.7213  3.3599 -1.4081
   9423SM   C9S12673   6.219   0.133  14.012  0.3967  0.3919 -0.0677
   9423SM   H9S12674   6.316   0.085  13.986  0.7704  1.9181 -1.6369
   9423SM   H9T12675   6.133   0.073  13.975  0.7455 -0.0556 -0.1595
   9423SM  C10S12676   6.212   0.137  14.167 -0.0672 -0.3165  0.2283
   9423SM  H10S12677   6.306   0.185  14.201  0.0079 -1.2070  1.3442
   9423SM  H10T12678   6.200   0.033  14.204  0.4812 -0.5364 -0.2086
   9423SM  C11S12679   6.080   0.207  14.203 -0.2799 -0.0647  0.3551
   9423SM  H11S12680   5.982   0.159  14.180  0.3067 -1.8346  1.4348
   9423SM  H11T12681   6.082   0.307  14.155 -0.8353  0.9044  2.2262
   9423SM  C12S12682   6.079   0.222  14.351 -0.0930 -1.1285  0.1218
   9423SM  H12S12683   6.031   0.319  14.376 -1.3083 -1.2880 -1.4687
   9423SM  H12T12684   6.186   0.231  14.377 -0.1795 -0.6760  0.3383
   9423SM  C13S12685   6.005   0.110  14.419  0.6316 -0.3453  0.9554
   9423SM  H13S12686   6.035   0.012  14.377  0.6881  0.4530 -0.9874
   9423SM  H13T12687   5.897   0.127  14.397  1.2140 -1.3511 -3.6210
   9423SM  C14S12688   6.019   0.110  14.571 -0.7899 -0.6047 -0.5293
   9423SM  H14S12689   5.991   0.209  14.614 -0.3457 -0.3239 -0.8781
   9423SM  H14T12690   6.123   0.084  14.599 -0.4630 -0.7718 -1.8625
   9423SM  C15S12691   5.923   0.009  14.631 -0.2234  0.3436 -0.0193
   9423SM  H15S12692   5.831  -0.013  14.573 -0.5418 -2.5598  1.4501
   9423SM  H15T12693   5.889   0.048  14.729  1.6751 -0.4189  0.9912
   9423SM  C16S12694   5.989  -0.126  14.665 -0.6371 -0.4019 -0.1799
   9423SM  H16S12695   6.099  -0.110  14.676 -0.4469 -0.2142 -2.0898
   9423SM  H16T12696   5.981  -0.195  14.578  0.7282  0.1219 -0.7580
   9423SM  C17S12697   5.920  -0.193  14.786 -0.2449 -0.2899 -0.3184
   9423SM  H17S12698   5.809  -0.195  14.773 -0.3084  1.1258 -0.1391
   9423SM  H17T12699   5.921  -0.123  14.872 -0.7284 -0.3217 -0.2863
   9423SM  C18S12700   5.980  -0.327  14.837 -0.0600  0.3211  0.5218
   9423SM  H18S12701   5.931  -0.350  14.934  0.6413  0.1725  0.8467
   9423SM  H18T12702   6.090  -0.328  14.857 -0.1354 -1.3777  1.0395
   9423SM  H18U12703   5.955  -0.412  14.770  0.5125 -0.6736  1.5378
   9423SM   C1F12704   5.866   0.309  13.373 -0.2352 -0.0162  0.5567
   9423SM    OF12705   5.857   0.194  13.328  0.0091 -0.2467  0.5116
   9423SM   C2F12706   5.754   0.381  13.419 -0.1068  0.5000 -0.3948
   9423SM   H2F12707   5.674   0.305  13.419  0.8736 -0.5575 -0.0432
   9423SM   H2G12708   5.729   0.463  13.348 -1.4207 -0.5339 -1.1779
   9423SM   C3F12709   5.783   0.445  13.557  0.2021 -1.1008  0.0782
   9423SM   H3F12710   5.696   0.510  13.580  2.0891  2.6980 -2.4399
   9423SM   H3G12711   5.867   0.517  13.557 -0.7112  0.0992  2.7102
   9423SM   C4F12712   5.801   0.348  13.668 -0.1134  0.3211  0.0215
   9423SM   H4F12713   5.903   0.304  13.663  0.4011  1.5513 -1.0290
   9423SM   H4G12714   5.727   0.266  13.655 -2.1691  2.4510 -2.9872
   9423SM   C5F12715   5.771   0.412  13.805 -0.0513  0.1636  0.2330
   9423SM   H5F12716   5.673   0.463  13.811 -0.6110 -0.5338 -2.2044
   9423SM   H5G12717   5.849   0.489  13.825  1.1201 -0.7550 -0.6483
   9423SM   C6F12718   5.771   0.311  13.923  0.7030 -0.1889  0.4699
   9423SM   H6F12719   5.872   0.272  13.948 -0.3082 -1.5077  2.9370
   9423SM   H6G12720   5.701   0.227  13.904  1.7533 -0.5376 -2.1570
   9423SM   C7F12721   5.722   0.392  14.054 -0.0801 -0.6281 -0.2417
   9423SM   H7F12722   5.640   0.459  14.020 -0.3977 -1.0467 -0.3070
   9423SM   H7G12723   5.807   0.440  14.106 -2.6523  3.0096  0.9841
   9423SM   C8F12724   5.657   0.304  14.164 -0.0386 -0.0477 -0.1214
   9423SM   H8F12725   5.734   0.227  14.187 -0.1385 -0.8133 -2.1153
   9423SM   H8G12726   5.573   0.252  14.113  1.6570 -2.2505 -0.8357
   9423SM   C9F12727   5.611   0.375  14.286  0.4529 -0.2579 -0.7010
   9423SM   H9F12728   5.534   0.449  14.255 -0.4060 -2.1944 -3.6614
   9423SM   H9G12729   5.703   0.425  14.322  0.2861 -0.9323  0.7636
   9423SM  C10F12730   5.548   0.265  14.373  0.6146 -0.6872 -0.4008
   9423SM  H10F12731   5.629   0.194  14.397  1.5152  1.2743  2.9391
   9423SM  H10G12732   5.466   0.209  14.322 -0.5226  0.7886 -0.2729
   9423SM  C11F12733   5.483   0.320  14.500 -0.4495 -0.5576 -0.6294
   9423SM  H11F12734   5.425   0.414  14.490  0.0489  0.2874  3.0073
   9423SM  H11G12735   5.564   0.339  14.574  0.7797 -0.5802 -1.9310
   9423SM  C12F12736   5.385   0.219  14.568  0.4423  0.5483 -0.2895
   9423SM  H12F12737   5.296   0.196  14.505  1.1308 -0.8333 -0.7876
   9423SM  H12G12738   5.347   0.276  14.655 -0.2385 -0.9107  0.4011
   9423SM  C13F12739   5.459   0.103  14.616 -0.4777  0.2469  0.6890
   9423SM  H13F12740   5.532   0.125  14.696 -0.7285  0.8578  0.7576
   9423SM  H13G12741   5.524   0.064  14.535 -0.1198 -0.2225  1.1947
   9423SM  C14F12742   5.365  -0.015  14.666 -0.2311 -0.3579 -0.0684
   9423SM  H14F12743   5.434  -0.090  14.710 -1.5280 -1.9082 -0.5752
   9423SM  H14G12744   5.324  -0.071  14.579  2.8406  0.0715 -1.9339
   9423SM  C15F12745   5.268   0.029  14.773  0.1849  0.0846 -0.2146
   9423SM  H15F12746   5.180   0.082  14.732  0.6482  2.8682  2.0189
   9423SM  H15G12747   5.322   0.095  14.845  0.6671 -1.0391  0.4829
   9423SM  C16F12748   5.212  -0.083  14.853  0.0586 -0.1383  0.7878
   9423SM  H16F12749   5.296  -0.156  14.860  0.4694 -0.0129 -1.9446
   9423SM  H16G12750   5.130  -0.136  14.799  0.1193  0.4250  0.1406
   9423SM  C17F12751   5.172  -0.038  14.991  0.1266 -0.2751  0.3589
   9423SM  H17F12752   5.080   0.022  14.980  1.3362  1.4058 -1.1711
   9423SM  H17G12753   5.252   0.030  15.029  0.9076 -0.7491 -0.3979
   9423SM  C18F12754   5.118  -0.164  15.060  0.1240  0.3193  0.2976
   9423SM  H18F12755   5.200  -0.238  15.074 -0.2196 -0.0763  0.2506
   9423SM  H18G12756   5.037  -0.224  15.012  1.1903 -0.5188 -0.4993
   9423SM  C19F12757   5.078  -0.122  15.199 -0.6234 -0.4692  0.3929
   9423SM  H19F12758   5.002  -0.191  15.242 -1.7388 -0.5313 -1.5255
   9423SM  H19G12759   5.028  -0.023  15.205  0.2716 -0.0912  2.1149
   9423SM  C20F12760   5.194  -0.118  15.309  0.0966  0.1006 -1.0878
   9423SM  H20F12761   5.140  -0.095  15.404 -1.4334  1.3150 -2.2021
   9423SM  H20G12762   5.251  -0.027  15.280 -0.3817  0.6361 -0.3872
   9423SM  C21F12763   5.266  -0.253  15.327 -0.4234  0.0695 -0.5672
   9423SM  H21F12764   5.318  -0.269  15.230 -1.0969  1.9402 -1.2878
   9423SM  H21G12765   5.192  -0.333  15.343 -0.3826  0.2518  0.6275
   9423SM  C22F12766   5.376  -0.233  15.444  0.7151  0.2672 -0.3637
   9423SM  H22F12767   5.322  -0.204  15.537  0.9520 -1.0350  0.2104
   9423SM  H22G12768   5.438  -0.147  15.412  2.1413 -1.3871 -2.2841
   9423SM  C23F12769   5.466  -0.346  15.475 -0.3317  0.4385 -0.9261
   9423SM  H23F12770   5.535  -0.377  15.394  0.6127 -1.2718  0.4536
   9423SM  H23G12771   5.404  -0.431  15.510  0.0780  0.1937 -0.7850
   9423SM  H23H12772   5.534  -0.331  15.561 -2.2200 -2.2357  1.2130
   9523SM     N12773   2.103   2.697  13.001 -0.2323  0.1514 -0.4093
   9523SM   C1512774   2.004   2.614  12.932  0.3630 -0.3690 -0.9117
   9523SM  H15A12775   1.903   2.631  12.966  1.4271 -2.0028  3.7205
   9523SM  H15B12776   2.007   2.506  12.928 -1.5137 -0.4351 -1.8590
   9523SM  H15C12777   2.000   2.642  12.828  2.0564 -0.2560 -0.9724
   9523SM   C1412778   2.235   2.680  12.935 -0.1620  0.3585  0.4062
   9523SM  H14A12779   2.236   2.712  12.832  2.8888 -1.1677 -0.1426
   9523SM  H14B12780   2.267   2.577  12.937 -1.2335  0.0176  0.7170
   9523SM  H14C12781   2.309   2.740  12.988 -0.3486  0.3493  0.6781
   9523SM   C1312782   2.060   2.838  12.990 -0.9313  0.0400 -0.7904
   9523SM  H13A12783   2.097   2.883  12.900  0.1634 -0.7646 -0.7625
   9523SM  H13B12784   2.108   2.891  13.070  2.1495 -0.7849 -1.9691
   9523SM  H13C12785   1.953   2.844  13.007 -0.9904 -1.8197 -0.2059
   9523SM   C1212786   2.110   2.658  13.143  0.4940  0.5247  0.4481
   9523SM  H12A12787   2.158   2.562  13.144  1.6706  0.7817 -4.4983
   9523SM  H12B12788   2.009   2.655  13.182  0.8482  0.6939  1.4005
   9523SM   C1112789   2.187   2.759  13.233  0.6901 -0.1879  0.1355
   9523SM  H11A12790   2.287   2.794  13.200  0.8145  0.3018  0.9986
   9523SM  H11B12791   2.217   2.705  13.325 -0.2293 -2.7942 -1.0154
   9523SM     P12792   1.981   2.876  13.358  0.2670 -0.2847  0.4756
   9523SM   O1312793   1.895   2.986  13.311  0.1006 -0.5106  0.1975
   9523SM   O1412794   1.913   2.745  13.381  0.2720 -0.0547 -0.0706
   9523SM   O1112795   2.038   2.915  13.496 -0.2585  0.5429 -0.1258
   9523SM   O1212796   2.109   2.873  13.262  0.6190 -0.1974  0.0498
   9523SM   C1S12797   2.178   2.916  13.533  0.2724  0.6615 -0.0030
   9523SM   H1S12798   2.230   3.007  13.497  0.4815  1.3461  1.9205
   9523SM   H1T12799   2.238   2.831  13.493  0.3798  0.8272 -0.1937
   9523SM    NF12800   2.336   2.928  13.726 -0.0157  0.0168 -0.2271
   9523SM   HNF12801   2.393   2.856  13.765 -2.0533  0.2846  3.7875
   9523SM   C2S12802   2.199   2.904  13.689 -1.0529 -0.3219 -0.5782
   9523SM   H2S12803   2.142   2.983  13.741 -0.9777 -0.2310 -0.6336
   9523SM   C3S12804   2.141   2.767  13.736 -0.5224  1.0792 -0.2737
   9523SM   H3S12805   2.203   2.688  13.687 -2.1369 -0.3749 -0.0709
   9523SM    O312806   2.012   2.733  13.694 -0.5775  0.2820 -0.4162
   9523SM   HO312807   2.005   2.803  13.629  2.2843 -0.1845 -1.3865
   9523SM   C4S12808   2.157   2.765  13.886 -0.4754 -0.2275  0.0846
   9523SM   H4S12809   2.258   2.740  13.922 -1.8854 -1.1686  3.9009
   9523SM   C5S12810   2.057   2.785  13.977  0.2282  0.1228 -0.3220
   9523SM   H5S12811   1.954   2.782  13.938 -0.8086  3.2970  1.7370
   9523SM   C6S12812   2.086   2.785  14.131 -0.3158  0.3367 -0.1050
   9523SM   H6S12813   2.038   2.870  14.185  3.1795  1.7427  1.1356
   9523SM   H6T12814   2.196   2.797  14.145  0.0705 -1.2327 -1.4867
   9523SM   C7S12815   2.050   2.653  14.210  0.2495  0.3166  0.4602
   9523SM   H7S12816   2.104   2.575  14.152 -0.5178 -0.2168  0.4584
   9523SM   H7T12817   1.942   2.630  14.210  0.5864 -1.4543  1.8309
   9523SM   C8S12818   2.104   2.644  14.354 -0.9118  0.2942 -0.5689
   9523SM   H8S12819   2.209   2.679  14.351 -0.8130  0.0112 -0.4138
   9523SM   H8T12820   2.109   2.535  14.375 -1.3540  0.4764  0.5181
   9523SM   C9S12821   2.009   2.707  14.459 -0.3643  0.2189  0.0279
   9523SM   H9S12822   1.919   2.642  14.461  0.2078 -0.5857  1.5949
   9523SM   H9T12823   1.985   2.807  14.417 -1.9634 -0.7332 -1.4042
   9523SM  C10S12824   2.076   2.708  14.596 -0.3683 -0.9903 -0.9418
   9523SM  H10S12825   2.157   2.785  14.595 -2.2561  1.1573  0.7957
   9523SM  H10T12826   2.121   2.612  14.630 -0.0724 -0.5778 -0.1200
   9523SM  C11S12827   1.973   2.765  14.691  0.1417 -0.5891 -0.7219
   9523SM  H11S12828   1.882   2.701  14.693 -0.2164 -0.2209 -3.0487
   9523SM  H11T12829   1.929   2.856  14.644  0.3580  0.2286  0.6017
   9523SM  C12S12830   2.013   2.816  14.830 -0.3219  0.4090 -0.1026
   9523SM  H12S12831   1.942   2.895  14.865 -1.0151 -0.6542  0.9777
   9523SM  H12T12832   2.110   2.869  14.831  0.7517 -1.4958  0.7947
   9523SM  C13S12833   2.016   2.701  14.934  0.4364 -0.0014  0.0041
   9523SM  H13S12834   2.122   2.669  14.930  1.1705  2.2841  0.2680
   9523SM  H13T12835   1.951   2.615  14.905  1.0055 -0.1199 -0.9772
   9523SM  C14S12836   1.985   2.734  15.083  0.1766  0.2567  0.2746
   9523SM  H14S12837   1.882   2.777  15.082 -0.4419 -1.1600  0.9797
   9523SM  H14T12838   2.053   2.811  15.125  0.3006 -0.5613  1.6395
   9523SM  C15S12839   1.976   2.606  15.158 -0.0574 -0.1695  0.7437
   9523SM  H15S12840   2.079   2.565  15.155 -0.3907 -1.0490  0.9055
   9523SM  H15T12841   1.918   2.526  15.108  1.5606  0.6548 -2.7745
   9523SM  C16S12842   1.926   2.626  15.302 -0.2628  0.0515  0.0678
   9523SM  H16S12843   1.825   2.672  15.297  1.1294  3.2620 -1.4346
   9523SM  H16T12844   1.998   2.703  15.337  1.6437 -1.2715 -0.8287
   9523SM  C17S12845   1.919   2.492  15.377 -0.6252 -0.1664  0.3618
   9523SM  H17S12846   2.023   2.453  15.373 -0.5864  0.0586 -1.8804
   9523SM  H17T12847   1.858   2.415  15.325  3.0095 -2.1494 -1.3629
   9523SM  C18S12848   1.879   2.517  15.529 -0.0645  0.0034  0.3932
   9523SM  H18S12849   1.942   2.588  15.587 -0.9727 -0.7977  2.4492
   9523SM  H18T12850   1.887   2.421  15.584  0.1421 -0.8640 -1.1092
   9523SM  H18U12851   1.777   2.561  15.539  0.2187  0.3902  1.8333
   9523SM   C1F12852   2.394   3.046  13.710 -0.2375 -0.1410 -0.1540
   9523SM    OF12853   2.329   3.140  13.666  0.0705 -0.0418 -0.0106
   9523SM   C2F12854   2.541   3.044  13.736 -0.1229  0.4329 -0.0440
   9523SM   H2F12855   2.587   3.079  13.641  0.4132  0.9262  0.3786
   9523SM   H2G12856   2.583   2.943  13.755 -0.5861  0.1006 -0.7763
   9523SM   C3F12857   2.580   3.133  13.856  0.4100  0.8731  0.0079
   9523SM   H3F12858   2.529   3.230  13.835 -1.8689  0.1487  1.8030
   9523SM   H3G12859   2.690   3.150  13.861  0.2476  1.6526  2.1038
   9523SM   C4F12860   2.522   3.092  13.989 -0.2383 -1.0267 -0.0682
   9523SM   H4F12861   2.558   2.992  14.020  0.2082 -0.5327  1.0559
   9523SM   H4G12862   2.412   3.080  13.983 -0.4174 -1.0552  2.4014
   9523SM   C5F12863   2.560   3.188  14.102  0.1259  0.3683 -0.1665
   9523SM   H5F12864   2.532   3.290  14.067 -0.1669  0.2847 -0.1757
   9523SM   H5G12865   2.668   3.191  14.130  0.6511  1.3831 -2.0740
   9523SM   C6F12866   2.489   3.161  14.237 -0.5544  0.2372  0.9906
   9523SM   H6F12867   2.513   3.244  14.307  1.1753  0.6584 -0.0449
   9523SM   H6G12868   2.525   3.067  14.286 -1.2915  0.1648  1.4048
   9523SM   C7F12869   2.338   3.141  14.235 -0.1525  0.0848  0.4270
   9523SM   H7F12870   2.312   3.130  14.342 -0.2756 -0.7922  0.3085
   9523SM   H7G12871   2.312   3.058  14.167  2.7046 -0.3596 -0.2597
   9523SM   C8F12872   2.278   3.266  14.181 -0.0719 -0.0078 -1.0826
   9523SM   H8F12873   2.320   3.297  14.083  2.1887  2.5283  0.5541
   9523SM   H8G12874   2.305   3.348  14.251 -1.1133  0.2152 -0.9253
   9523SM   C9F12875   2.124   3.266  14.159 -0.1689 -1.3122  0.0777
   9523SM   H9F12876   2.096   3.195  14.080 -2.6668  0.0031 -0.3123
   9523SM   H9G12877   2.093   3.367  14.123 -0.5689 -1.8547 -1.1465
   9523SM  C10F12878   2.039   3.227  14.286  0.3212 -0.1571  0.5656
   9523SM  H10F12879   2.069   3.287  14.375  0.0332  2.3679 -0.9332
   9523SM  H10G12880   2.068   3.123  14.312 -0.7738 -0.5345  0.3343
   9523SM  C11F12881   1.882   3.235  14.268 -0.7966  0.1520 -0.2730
   9523SM  H11F12882   1.858   3.156  14.194  2.5444  0.8139 -2.2298
   9523SM  H11G12883   1.853   3.328  14.214 -2.6291 -0.0077  0.3663
   9523SM  C12F12884   1.810   3.228  14.402 -0.0075  0.0456  0.3981
   9523SM  H12F12885   1.701   3.238  14.383 -0.1549 -2.6823 -0.6164
   9523SM  H12G12886   1.838   3.321  14.457  1.7567 -0.4927  0.4694
   9523SM  C13F12887   1.838   3.100  14.493 -0.0297  0.0684  0.3158
   9523SM  H13F12888   1.948   3.086  14.496 -0.2181 -1.4564  2.4489
   9523SM  H13G12889   1.798   3.005  14.453 -0.5157  0.3920  0.0139
   9523SM  C14F12890   1.801   3.121  14.644 -0.4834 -0.1721 -0.4336
   9523SM  H14F12891   1.831   3.219  14.688  1.7724 -0.8624 -0.2913
   9523SM  H14G12892   1.858   3.050  14.707 -0.6864 -2.4226 -2.6267
   9523SM  C15F12893   1.654   3.100  14.668 -0.0305 -0.3403  0.4414
   9523SM  H15F12894   1.635   3.002  14.620 -0.3295 -0.7647  1.3991
   9523SM  H15G12895   1.599   3.180  14.614 -1.5429 -1.2725  0.5507
   9523SM  C16F12896   1.616   3.084  14.817 -0.1719 -0.0264  0.5177
   9523SM  H16F12897   1.648   3.172  14.876 -0.2214  0.4527 -0.1602
   9523SM  H16G12898   1.674   2.995  14.850 -0.2277 -0.7001 -1.1136
   9523SM  C17F12899   1.468   3.050  14.844  0.1143  0.2770  0.2392
   9523SM  H17F12900   1.458   2.959  14.782 -0.6458 -0.1570  0.9818
   9523SM  H17G12901   1.397   3.128  14.807 -0.9201 -0.9766 -0.4786
   9523SM  C18F12902   1.438   3.039  14.993  0.4795 -0.4414  0.0462
   9523SM  H18F12903   1.440   3.139  15.042  1.4772 -1.4628  2.2338
   9523SM  H18G12904   1.522   2.986  15.043 -1.1766 -2.1834  1.0817
   9523SM  C19F12905   1.308   2.961  15.017  0.1363  0.6956 -0.2720
   9523SM  H19F12906   1.323   2.860  14.974  1.1316  0.9809 -0.6094
   9523SM  H19G12907   1.220   3.012  14.972 -1.9466 -0.8974  1.6928
   9523SM  C20F12908   1.291   2.955  15.174  0.2342  0.1088  0.2835
   9523SM  H20F12909   1.294   3.059  15.215 -0.7974 -0.3607  1.6294
   9523SM  H20G12910   1.379   2.897  15.209  0.7870  0.1161 -1.0392
   9523SM  C21F12911   1.166   2.871  15.216 -0.0320 -0.0135  0.1870
   9523SM  H21F12912   1.213   2.795  15.283  0.3853 -0.6554 -0.8104
   9523SM  H21G12913   1.134   2.818  15.123  2.1450  0.4088 -0.8478
   9523SM  C22F12914   1.059   2.929  15.312 -0.6115 -0.8422  0.3629
   9523SM  H22F12915   0.989   2.845  15.329 -0.0325 -0.8080  3.3216
   9523SM  H22G12916   1.016   3.016  15.259  0.5146 -0.9706 -0.8305
   9523SM  C23F12917   1.119   2.979  15.438 -0.6585  0.1487  0.1909
   9523SM  H23F12918   1.149   2.900  15.510  0.5838 -1.6346 -2.1558
   9523SM  H23G12919   1.041   3.037  15.491  0.4308  1.3533  0.5269
   9523SM  H23H12920   1.192   3.061  15.418 -1.1226  0.0750 -2.1943
   9623SM     N12921   2.823   2.320  13.345  0.1298  0.2993 -0.1713
   9623SM   C1512922   2.809   2.464  13.342 -0.5970 -0.3824  0.8559
   9623SM  H15A12923   2.849   2.508  13.432  0.4254  1.6344 -0.4837
   9623SM  H15B12924   2.710   2.504  13.326  0.3058  0.5877 -3.7799
   9623SM  H15C12925   2.874   2.503  13.265  1.3737 -2.4496  1.3701
   9623SM   C1412926   2.960   2.286  13.384  0.1494 -0.1170 -0.0401
   9623SM  H14A12927   2.995   2.352  13.463  0.5356 -1.6557  1.1261
   9623SM  H14B12928   3.026   2.302  13.301  0.5502  2.6776  0.7200
   9623SM  H14C12929   2.978   2.183  13.412 -1.1854  0.1829  2.1322
   9623SM   C1312930   2.738   2.274  13.457  0.7816 -0.3405  0.3761
   9623SM  H13A12931   2.731   2.167  13.462  2.4350 -0.5050 -0.2779
   9623SM  H13B12932   2.638   2.308  13.433  0.6637  0.4656  1.8898
   9623SM  H13C12933   2.768   2.309  13.555 -0.7939 -1.6806  1.3855
   9623SM   C1212934   2.786   2.270  13.206 -0.3125  0.2192 -0.4489
   9623SM  H12A12935   2.849   2.312  13.130  3.3289 -2.4592  0.7923
   9623SM  H12B12936   2.685   2.302  13.186 -0.5822 -1.4127 -1.9027
   9623SM   C1112937   2.797   2.119  13.181 -0.6331  0.2073  0.4988
   9623SM  H11A12938   2.739   2.097  13.089  1.4182  3.2186 -1.7297
   9623SM  H11B12939   2.739   2.063  13.258 -1.1950 -0.5034 -0.4195
   9623SM     P12940   2.982   1.936  13.240  0.0844  0.1157 -0.1075
   9623SM   O1312941   2.942   1.831  13.146 -0.0172  0.6132  0.3423
   9623SM   O1412942   3.124   1.948  13.264 -0.2830 -0.1875  0.7029
   9623SM   O1112943   2.903   1.920  13.373 -0.5818  0.0684 -0.0515
   9623SM   O1212944   2.929   2.068  13.170  0.1972  0.0123  0.2649
   9623SM   C1S12945   2.956   1.824  13.468  0.2029 -0.3797  0.0258
   9623SM   H1S12946   3.066   1.813  13.456  0.4882  0.4582  1.5646
   9623SM   H1T12947   2.905   1.726  13.453 -3.9196  1.5210  0.2269
   9623SM    NF12948   3.000   1.795  13.720 -0.0782 -0.0639 -0.8223
   9623SM   HNF12949   2.944   1.741  13.782  1.4320 -0.8032 -0.0498
   9623SM   C2S12950   2.926   1.871  13.618 -0.1234  0.1028 -0.6734
   9623SM   H2S12951   2.952   1.979  13.620 -0.0870  0.0848  0.6947
   9623SM   C3S12952   2.773   1.868  13.633  0.7804  0.2785  0.3942
   9623SM   H3S12953   2.744   1.760  13.634 -0.7968  0.6767  0.7751
   9623SM    O312954   2.697   1.934  13.527 -0.5094  0.0185 -0.0884
   9623SM   HO312955   2.764   1.927  13.458 -0.2723 -1.1463  0.2341
   9623SM   C4S12956   2.734   1.924  13.763  0.2905  0.1387 -0.0239
   9623SM   H4S12957   2.710   1.850  13.841  0.6284  0.8386  0.7654
   9623SM   C5S12958   2.700   2.052  13.792  0.0319 -0.5986 -0.3991
   9623SM   H5S12959   2.703   2.127  13.712 -3.3374  0.4451  0.3013
   9623SM   C6S12960   2.638   2.107  13.921 -0.6048 -0.4410 -0.3227
   9623SM   H6S12961   2.527   2.096  13.920 -0.5957 -0.7783  0.6612
   9623SM   H6T12962   2.656   2.215  13.940 -0.6242 -0.3599 -0.7703
   9623SM   C7S12963   2.689   2.031  14.058 -0.3582 -0.1870  1.4149
   9623SM   H7S12964   2.799   2.029  14.076 -0.4779  1.5568  2.5285
   9623SM   H7T12965   2.652   1.927  14.046 -2.5370  0.7815 -1.4695
   9623SM   C8S12966   2.625   2.098  14.173  0.0183  0.6368 -1.4858
   9623SM   H8S12967   2.518   2.107  14.142 -0.3127 -2.1465 -1.4056
   9623SM   H8T12968   2.671   2.198  14.183 -0.3383  0.6138  1.1190
   9623SM   C9S12969   2.634   2.023  14.300 -0.3663 -0.0112 -0.8854
   9623SM   H9S12970   2.735   2.035  14.345  0.3028  0.1186 -2.3749
   9623SM   H9T12971   2.629   1.913  14.285 -4.4034  0.3986 -4.3366
   9623SM  C10S12972   2.511   2.043  14.392  0.2108 -0.3861  0.2601
   9623SM  H10S12973   2.428   1.971  14.373 -2.0197  1.9153  0.7169
   9623SM  H10T12974   2.456   2.133  14.357 -1.7045 -1.0607  1.3335
   9623SM  C11S12975   2.533   2.048  14.544 -0.4156 -0.0219  0.8115
   9623SM  H11S12976   2.441   2.083  14.595 -0.2273  0.5521  0.7608
   9623SM  H11T12977   2.613   2.120  14.572 -0.5214  0.6928 -0.6197
   9623SM  C12S12978   2.578   1.921  14.613  0.7514  0.3819 -0.3164
   9623SM  H12S12979   2.612   1.927  14.718  1.2179 -1.2847 -0.3405
   9623SM  H12T12980   2.666   1.882  14.557  0.3327 -1.5873  0.3242
   9623SM  C13S12981   2.464   1.819  14.619  0.7940 -0.2277  0.9411
   9623SM  H13S12982   2.438   1.800  14.513  0.4777  1.4273  0.6981
   9623SM  H13T12983   2.377   1.875  14.658  1.6549  0.1367  2.4329
   9623SM  C14S12984   2.499   1.694  14.696 -0.4749  0.1351 -0.9918
   9623SM  H14S12985   2.585   1.644  14.646 -0.1765  0.0272 -0.3765
   9623SM  H14T12986   2.416   1.621  14.703 -0.8694  0.7216  1.8030
   9623SM  C15S12987   2.534   1.718  14.845  0.1609 -0.2274  0.3909
   9623SM  H15S12988   2.477   1.804  14.883 -0.8880 -0.1253 -1.3072
   9623SM  H15T12989   2.641   1.746  14.855  0.8562 -2.9503  1.5126
   9623SM  C16S12990   2.524   1.592  14.937 -0.0440 -0.5935  0.7497
   9623SM  H16S12991   2.611   1.526  14.917 -0.7878 -0.7270 -2.6145
   9623SM  H16T12992   2.437   1.534  14.898  0.8858 -1.4943 -0.0228
   9623SM  C17S12993   2.511   1.628  15.089  0.0842  0.0988  0.0570
   9623SM  H17S12994   2.422   1.693  15.105  0.7681  1.5205 -1.5914
   9623SM  H17T12995   2.597   1.694  15.114 -1.2522  2.3954 -1.0858
   9623SM  C18S12996   2.517   1.492  15.161  0.8461 -0.2192 -0.4504
   9623SM  H18S12997   2.530   1.500  15.270  1.7517 -1.0853 -0.4842
   9623SM  H18T12998   2.598   1.435  15.110 -0.4181  0.9590 -4.1262
   9623SM  H18U12999   2.428   1.436  15.124  1.2262 -1.3832  0.3502
   9623SM   C1F13000   3.134   1.801  13.737  0.3649 -0.5783  0.4469
   9623SM    OF13001   3.201   1.867  13.658  0.5225  0.2078 -0.5350
   9623SM   C2F13002   3.187   1.721  13.855 -0.5137  0.0394  0.7698
   9623SM   H2F13003   3.182   1.612  13.837  0.2051  0.1898 -0.4750
   9623SM   H2G13004   3.109   1.733  13.933 -1.6888 -1.8321 -0.0371
   9623SM   C3F13005   3.326   1.770  13.900 -0.4360  0.6765 -0.4615
   9623SM   H3F13006   3.324   1.876  13.933  2.2535  0.8496 -0.6170
   9623SM   H3G13007   3.392   1.761  13.811 -1.7122  0.9536 -1.4633
   9623SM   C4F13008   3.383   1.689  14.014  0.3005  0.0906  0.2460
   9623SM   H4F13009   3.485   1.730  14.032  0.8449 -1.7166  1.5957
   9623SM   H4G13010   3.419   1.589  13.982  4.1859  1.1659  0.7346
   9623SM   C5F13011   3.296   1.689  14.141  0.4885 -0.2460  0.1594
   9623SM   H5F13012   3.212   1.617  14.127 -0.0654 -0.2181  2.8169
   9623SM   H5G13013   3.265   1.795  14.158  1.9218  0.1828  0.2148
   9623SM   C6F13014   3.384   1.639  14.264 -0.2278 -0.4475  0.5302
   9623SM   H6F13015   3.483   1.689  14.252  0.0227 -1.1269 -0.3905
   9623SM   H6G13016   3.390   1.528  14.265 -0.8265 -0.4795  1.0637
   9623SM   C7F13017   3.323   1.682  14.400 -0.2395 -0.2282 -0.0424
   9623SM   H7F13018   3.224   1.643  14.432  0.1600 -0.0379  1.5311
   9623SM   H7G13019   3.324   1.793  14.392  3.7538 -0.0540  0.7665
   9623SM   C8F13020   3.408   1.636  14.521  0.0167 -0.1694 -0.7110
   9623SM   H8F13021   3.513   1.665  14.496  0.7007 -0.2550  1.7773
   9623SM   H8G13022   3.403   1.526  14.529 -0.4474 -0.2203 -1.5321
   9623SM   C9F13023   3.374   1.705  14.656  0.5109  0.2951 -0.3655
   9623SM   H9F13024   3.424   1.804  14.661 -1.5283  1.4712 -1.5623
   9623SM   H9G13025   3.431   1.641  14.727  0.1442  1.2197  0.7904
   9623SM  C10F13026   3.231   1.718  14.706  0.9804 -0.3889  0.2645
   9623SM  H10F13027   3.234   1.741  14.815  0.5831  0.9523  0.0104
   9623SM  H10G13028   3.174   1.625  14.688 -1.2410  1.0874 -0.7375
   9623SM  C11F13029   3.168   1.843  14.646  0.2550 -0.2853  0.4154
   9623SM  H11F13030   3.161   1.812  14.539  0.5465 -1.0339  0.6067
   9623SM  H11G13031   3.244   1.924  14.651 -0.0141 -0.0452  0.6464
   9623SM  C12F13032   3.033   1.879  14.718 -0.1876  0.6838 -0.3941
   9623SM  H12F13033   2.983   1.788  14.756  0.0170  0.7232 -0.0281
   9623SM  H12G13034   2.967   1.926  14.642  1.1325 -1.2123 -2.8654
   9623SM  C13F13035   3.070   1.974  14.832  0.3458 -0.0797  0.2946
   9623SM  H13F13036   3.075   2.081  14.802  0.9633  0.4501  2.1436
   9623SM  H13G13037   3.176   1.954  14.861 -0.2235 -1.4936  1.4689
   9623SM  C14F13038   2.982   1.953  14.957 -0.6538 -0.2573  0.6137
   9623SM  H14F13039   3.022   2.015  15.040  1.1419 -1.0238  0.3543
   9623SM  H14G13040   2.970   1.846  14.983  0.6991 -0.5177  0.1978
   9623SM  C15F13041   2.843   2.013  14.922  0.4779 -0.3703 -0.8209
   9623SM  H15F13042   2.799   1.948  14.843 -0.0254 -1.3421  0.2340
   9623SM  H15G13043   2.857   2.122  14.906 -2.9115  0.3388  0.4261
   9623SM  C16F13044   2.732   2.021  15.035  0.1961  0.3850  0.2795
   9623SM  H16F13045   2.763   2.080  15.124 -1.5962  1.2388  0.3819
   9623SM  H16G13046   2.706   1.916  15.062 -1.4698  0.7908  0.3575
   9623SM  C17F13047   2.600   2.075  14.983  0.2230 -0.7601  0.1109
   9623SM  H17F13048   2.536   2.090  15.073  2.7343  0.2843  1.8613
   9623SM  H17G13049   2.545   2.008  14.914 -2.1385  1.9809 -0.8791
   9623SM  C18F13050   2.605   2.220  14.923  0.4411  0.0390 -0.2130
   9623SM  H18F13051   2.668   2.233  14.832 -0.2741  0.1085 -0.7077
   9623SM  H18G13052   2.620   2.292  15.005 -0.4163 -0.6533  0.5762
   9623SM  C19F13053   2.468   2.268  14.865 -0.1204  0.4216 -0.5854
   9623SM  H19F13054   2.385   2.268  14.939  0.0606  1.5323 -0.3677
   9623SM  H19G13055   2.440   2.191  14.790  2.5463  0.7122 -1.9776
   9623SM  C20F13056   2.465   2.403  14.789 -0.3147 -0.2319  0.0947
   9623SM  H20F13057   2.429   2.391  14.684 -1.1796  2.4484  0.0184
   9623SM  H20G13058   2.571   2.435  14.789 -0.3105 -0.1328  2.0520
   9623SM  C21F13059   2.386   2.513  14.863  0.2766 -0.3361 -0.2578
   9623SM  H21F13060   2.275   2.498  14.863  0.2023 -0.0599  1.7884
   9623SM  H21G13061   2.399   2.602  14.798  0.5949 -1.1426 -1.3214
   9623SM  C22F13062   2.427   2.540  15.005 -0.7052 -0.1532  0.5460
   9623SM  H22F13063   2.402   2.449  15.064 -4.4982  1.2753  1.4728
   9623SM  H22G13064   2.347   2.612  15.034  0.0425  0.6346  0.6856
   9623SM  C23F13065   2.568   2.600  15.030  0.3175 -0.1775 -0.1904
   9623SM  H23F13066   2.595   2.629  15.133  0.5386  1.0969 -0.5958
   9623SM  H23G13067   2.592   2.693  14.975  1.0773  0.0931  0.5774
   9623SM  H23H13068   2.648   2.532  14.994  0.8962 -0.7534  2.0274
   9723SM     N13069   4.967   0.558  12.980  0.3390  0.7381  0.2525
   9723SM   C1513070   4.947   0.655  12.865  0.3099 -0.6682 -0.3293
   9723SM  H15A13071   4.862   0.644  12.799  0.3710 -0.6120 -0.4179
   9723SM  H15B13072   5.035   0.667  12.804  0.1813  1.4914 -0.1932
   9723SM  H15C13073   4.935   0.754  12.907  1.3045 -1.0361  0.8632
   9723SM   C1413074   4.963   0.412  12.934  0.3410 -0.3241 -0.6407
   9723SM  H14A13075   4.976   0.347  13.019 -1.7827  0.6095  0.4737
   9723SM  H14B13076   5.041   0.377  12.868  1.6162  0.8074  0.2047
   9723SM  H14C13077   4.868   0.392  12.887  0.4891  1.3141 -1.7294
   9723SM   C1313078   5.100   0.593  13.033 -0.4841  0.2936  0.0249
   9723SM  H13A13079   5.124   0.549  13.129 -0.2865  0.2557 -0.0400
   9723SM  H13B13080   5.109   0.700  13.044  0.9475  0.4742 -2.1520
   9723SM  H13C13081   5.180   0.571  12.964  0.7952  1.3657  1.1000
   9723SM   C1213082   4.862   0.581  13.088 -0.5127  0.5527  0.8037
   9723SM  H12A13083   4.768   0.549  13.045  0.8441 -3.1297  0.2248
   9723SM  H12B13084   4.855   0.688  13.101 -2.6068  0.4335  0.9521
   9723SM   C1113085   4.878   0.502  13.220  0.1714 -0.4108  0.4191
   9723SM  H11A13086   4.812   0.553  13.292 -1.2764  2.3250 -2.5852
   9723SM  H11B13087   4.982   0.514  13.256 -0.2009  0.5175  1.1932
   9723SM     P13088   4.701   0.329  13.168  0.2612  0.1962  0.1166
   9723SM   O1313089   4.644   0.411  13.065  0.3226 -0.1182  0.2100
   9723SM   O1413090   4.685   0.183  13.150 -0.1391 -0.3049 -0.3512
   9723SM   O1113091   4.629   0.373  13.304 -0.2920  0.0836 -0.0143
   9723SM   O1213092   4.848   0.362  13.202 -0.1143 -0.2205  0.0464
   9723SM   C1S13093   4.665   0.331  13.435 -0.2273 -0.5007 -0.1581
   9723SM   H1S13094   4.768   0.290  13.435 -1.0862 -2.7819  0.1204
   9723SM   H1T13095   4.598   0.251  13.471 -0.4466 -0.6849 -0.9458
   9723SM    NF13096   4.717   0.400  13.666  0.1271  0.5915 -0.2380
   9723SM   HNF13097   4.659   0.372  13.742  0.1730 -0.8566 -0.7052
   9723SM   C2S13098   4.668   0.447  13.538 -0.5823  0.0478 -0.0204
   9723SM   H2S13099   4.738   0.521  13.495 -0.2781 -0.4967 -0.4626
   9723SM   C3S13100   4.532   0.516  13.550  0.4307  0.1043 -0.1529
   9723SM   H3S13101   4.460   0.440  13.589  0.2043  1.2550  1.8048
   9723SM    O313102   4.478   0.552  13.423  0.3813 -0.1976  0.1833
   9723SM   HO313103   4.531   0.501  13.361  1.7260  1.5020 -0.1352
   9723SM   C4S13104   4.530   0.637  13.640 -0.1897  0.2898  0.4983
   9723SM   H4S13105   4.620   0.701  13.633  1.0279 -1.3585  0.4527
   9723SM   C5S13106   4.441   0.659  13.736  0.6168  0.5372  1.1297
   9723SM   H5S13107   4.366   0.580  13.751 -0.6674  1.3704 -0.5546
   9723SM   C6S13108   4.454   0.769  13.840  0.0981 -0.4699  0.1259
   9723SM   H6S13109   4.431   0.736  13.944  3.9720 -0.5628  1.1101
   9723SM   H6T13110   4.394   0.856  13.807  0.4004 -1.1189 -2.3081
   9723SM   C7S13111   4.602   0.819  13.855 -0.7632  0.0508 -0.2436
   9723SM   H7S13112   4.618   0.896  13.776  1.2292  2.3350  2.1556
   9723SM   H7T13113   4.676   0.737  13.850 -0.7943  0.0794 -1.5538
   9723SM   C8S13114   4.626   0.899  13.982 -0.3105 -0.5044  0.1054
   9723SM   H8S13115   4.615   0.851  14.082 -1.6280 -1.2824 -0.3836
   9723SM   H8T13116   4.555   0.982  14.001  0.4889  0.1746  0.1818
   9723SM   C9S13117   4.761   0.975  13.962 -0.4730  0.3932  0.3220
   9723SM   H9S13118   4.753   1.049  13.879  1.7150 -0.2008 -0.4905
   9723SM   H9T13119   4.835   0.900  13.929 -0.7919  0.5997 -0.9035
   9723SM  C10S13120   4.807   1.033  14.095 -0.1425  0.2116 -0.7165
   9723SM  H10S13121   4.722   1.084  14.145 -0.5013 -0.0951 -1.0063
   9723SM  H10T13122   4.886   1.110  14.086 -0.1407  0.6087  1.9265
   9723SM  C11S13123   4.883   0.933  14.184 -0.0567  0.7340 -0.0613
   9723SM  H11S13124   4.987   0.929  14.145  0.3943 -1.8000  1.2138
   9723SM  H11T13125   4.838   0.833  14.162  1.5117  0.3010 -1.4799
   9723SM  C12S13126   4.869   0.963  14.333 -0.3389 -0.6410 -0.3654
   9723SM  H12S13127   4.931   1.049  14.365 -0.3287 -1.0072  0.6520
   9723SM  H12T13128   4.931   0.882  14.376  0.3415  0.1928  0.2588
   9723SM  C13S13129   4.725   0.968  14.393 -1.5023 -0.6485  0.1147
   9723SM  H13S13130   4.677   0.879  14.348 -3.7322  0.5705 -0.0796
   9723SM  H13T13131   4.694   1.070  14.360  2.6873 -0.0610 -2.7310
   9723SM  C14S13132   4.719   0.952  14.542  0.1733  0.3407  0.6562
   9723SM  H14S13133   4.748   0.848  14.568  3.1409  1.3748  1.9714
   9723SM  H14T13134   4.615   0.980  14.570 -0.4054  0.6496 -1.5911
   9723SM  C15S13135   4.808   1.053  14.616  0.9970 -0.5103 -0.7878
   9723SM  H15S13136   4.769   1.156  14.597 -2.5713 -1.7488 -0.8921
   9723SM  H15T13137   4.913   1.050  14.579  0.6550  1.3147 -2.0164
   9723SM  C16S13138   4.823   1.033  14.773 -0.1584 -0.4033 -0.1961
   9723SM  H16S13139   4.735   1.066  14.832  0.9783 -1.4832  2.2598
   9723SM  H16T13140   4.919   1.082  14.799 -0.3089  0.0823 -0.5457
   9723SM  C17S13141   4.842   0.886  14.797  0.2758 -0.2550 -0.3144
   9723SM  H17S13142   4.928   0.862  14.731  0.7523  2.0150 -0.6206
   9723SM  H17T13143   4.753   0.821  14.785  2.8554 -3.9596 -1.0707
   9723SM  C18S13144   4.872   0.858  14.941 -0.6483 -0.3652  0.0015
   9723SM  H18S13145   4.789   0.885  15.010 -1.2077 -1.6212 -0.1410
   9723SM  H18T13146   4.955   0.922  14.978 -1.2864 -0.1111  1.0253
   9723SM  H18U13147   4.900   0.750  14.948 -0.5233 -0.3100  0.3286
   9723SM   C1F13148   4.848   0.368  13.680  0.4277  0.4454  0.3254
   9723SM    OF13149   4.920   0.394  13.585  0.4825 -0.1027 -0.2213
   9723SM   C2F13150   4.899   0.313  13.809  0.1850 -0.3335 -0.1857
   9723SM   H2F13151   4.995   0.364  13.830 -0.2665  0.4218  0.0726
   9723SM   H2G13152   4.903   0.202  13.802  0.5270 -0.2420 -1.8340
   9723SM   C3F13153   4.806   0.334  13.931  0.1445  0.8241 -0.4681
   9723SM   H3F13154   4.859   0.275  14.009  0.9957  0.7603 -1.0897
   9723SM   H3G13155   4.704   0.296  13.909  0.8677 -1.3845 -0.2960
   9723SM   C4F13156   4.794   0.478  13.971 -0.1251  0.1959 -0.8297
   9723SM   H4F13157   4.751   0.534  13.885 -2.5690  1.5554  1.1568
   9723SM   H4G13158   4.892   0.528  13.985 -0.0022 -0.0401 -0.8490
   9723SM   C5F13159   4.697   0.496  14.086 -0.2794  0.4738 -0.2850
   9723SM   H5F13160   4.684   0.606  14.100 -0.7619  0.3403  0.4093
   9723SM   H5G13161   4.739   0.455  14.181 -1.8936 -0.0841  0.2198
   9723SM   C6F13162   4.552   0.437  14.062 -0.5797 -0.0660  0.1323
   9723SM   H6F13163   4.571   0.328  14.077 -1.5520  0.0400  2.8799
   9723SM   H6G13164   4.517   0.468  13.962 -1.1164 -1.6733 -0.2111
   9723SM   C7F13165   4.449   0.485  14.166 -0.2147 -0.2271  0.2297
   9723SM   H7F13166   4.458   0.594  14.148 -0.1441 -0.5149 -1.6146
   9723SM   H7G13167   4.483   0.443  14.263 -0.7441 -1.7277 -0.2091
   9723SM   C8F13168   4.303   0.446  14.124  0.2134 -0.5037 -0.0140
   9723SM   H8F13169   4.295   0.337  14.104  0.0757 -0.4009 -0.5544
   9723SM   H8G13170   4.284   0.496  14.026  0.8413 -0.9996 -0.3961
   9723SM   C9F13171   4.194   0.495  14.222  0.0959 -0.1155 -0.0487
   9723SM   H9F13172   4.094   0.494  14.173  0.0851  2.0584 -0.1478
   9723SM   H9G13173   4.215   0.603  14.233 -0.7943  0.1167 -0.5424
   9723SM  C10F13174   4.180   0.412  14.356 -0.6804  0.4394  0.8733
   9723SM  H10F13175   4.283   0.413  14.399 -0.3145 -1.1090  0.1063
   9723SM  H10G13176   4.149   0.316  14.311  1.7030  0.7207 -1.5876
   9723SM  C11F13177   4.072   0.465  14.451 -0.0530  1.1032 -0.1695
   9723SM  H11F13178   3.983   0.496  14.393 -0.4480 -0.2551 -0.3251
   9723SM  H11G13179   4.116   0.555  14.499 -0.8670  0.6173  1.5632
   9723SM  C12F13180   4.033   0.358  14.555  0.8934  0.7535 -0.2801
   9723SM  H12F13181   4.124   0.295  14.569 -0.0760 -0.8560 -0.9052
   9723SM  H12G13182   3.975   0.282  14.499  1.3455  1.2018 -1.3895
   9723SM  C13F13183   3.967   0.402  14.687 -0.2339 -1.0792 -0.4790
   9723SM  H13F13184   3.897   0.322  14.719 -1.0103 -0.0461  0.4696
   9723SM  H13G13185   3.904   0.491  14.667 -1.5893 -1.7167  0.8249
   9723SM  C14F13186   4.066   0.436  14.808 -0.1372 -0.1615  0.3622
   9723SM  H14F13187   4.126   0.521  14.769  0.1543 -0.5207  0.0192
   9723SM  H14G13188   4.142   0.355  14.810  0.8596  0.7529  2.0858
   9723SM  C15F13189   3.986   0.442  14.938 -0.2106  0.7832 -0.3729
   9723SM  H15F13190   3.931   0.345  14.940  1.6976 -0.3449  0.7822
   9723SM  H15G13191   3.907   0.520  14.937 -1.1779 -0.1592 -1.9010
   9723SM  C16F13192   4.069   0.455  15.071 -0.5529  0.2448  0.7038
   9723SM  H16F13193   4.155   0.385  15.067  0.5236  1.5703 -0.9789
   9723SM  H16G13194   3.999   0.428  15.153  1.1352 -2.0728  1.4860
   9723SM  C17F13195   4.121   0.597  15.092  0.0329 -1.0305  0.2217
   9723SM  H17F13196   4.040   0.674  15.094  1.0827  0.0934  0.4500
   9723SM  H17G13197   4.178   0.624  15.001 -1.2941 -1.3812 -0.7418
   9723SM  C18F13198   4.212   0.603  15.220  0.3331  1.2262  0.0468
   9723SM  H18F13199   4.254   0.705  15.233  2.3931  0.5673 -1.0337
   9723SM  H18G13200   4.293   0.527  15.215 -0.2225  0.6668 -0.6846
   9723SM  C19F13201   4.144   0.575  15.353 -0.0665 -0.0595  0.4288
   9723SM  H19F13202   4.089   0.478  15.352  1.4164 -0.9355  0.2379
   9723SM  H19G13203   4.068   0.653  15.374 -0.5458 -0.2410 -0.5750
   9723SM  C20F13204   4.247   0.568  15.473  0.7004  0.1522 -0.0819
   9723SM  H20F13205   4.321   0.489  15.451 -0.8288 -0.9041 -1.6921
   9723SM  H20G13206   4.193   0.531  15.563  2.7316 -1.2088  0.6360
   9723SM  C21F13207   4.293   0.701  15.520 -0.0439  0.2973 -0.1000
   9723SM  H21F13208   4.373   0.741  15.455  1.1531 -2.1177 -0.2494
   9723SM  H21G13209   4.341   0.678  15.618  3.4133  1.3339 -1.4113
   9723SM  C22F13210   4.180   0.810  15.554 -0.5727  0.1719  0.4105
   9723SM  H22F13211   4.112   0.757  15.623  1.8195 -2.5579  0.8898
   9723SM  H22G13212   4.125   0.830  15.460  0.3507  4.3765  0.5791
   9723SM  C23F13213   4.237   0.937  15.609  0.3298 -0.3634 -0.2497
   9723SM  H23F13214   4.292   0.998  15.534  2.0177 -1.3587  0.1295
   9723SM  H23G13215   4.313   0.931  15.690 -0.7672  0.5154  0.9096
   9723SM  H23H13216   4.155   1.004  15.644  0.1057 -1.6100  1.8300
   9823SM     N13217   7.042   7.126  12.452  0.1050 -0.3009 -0.3035
   9823SM   C1513218   7.040   7.208  12.332 -0.4075 -0.0645 -0.1397
   9823SM  H15A13219   7.128   7.267  12.313  0.3073 -0.8649  0.5907
   9823SM  H15B13220   6.964   7.284  12.340  0.0667  0.2116  3.1742
   9823SM  H15C13221   7.027   7.144  12.245 -2.8682 -0.3260  0.3432
   9823SM   C1413222   7.138   7.013  12.429 -0.2366 -0.2533 -0.1402
   9823SM  H14A13223   7.124   6.927  12.492  3.6376 -1.4580 -0.7052
   9823SM  H14B13224   7.241   7.044  12.428 -0.9063  2.6053  2.3942
   9823SM  H14C13225   7.116   6.975  12.331  0.8435 -1.3716  0.0319
   9823SM   C1313226   7.090   7.208  12.570 -1.1337  0.2243  0.0278
   9823SM  H13A13227   7.111   7.146  12.656  1.1761  0.8619 -0.0205
   9823SM  H13B13228   7.027   7.291  12.595 -0.0252  0.5441  1.9207
   9823SM  H13C13229   7.189   7.240  12.540  0.1302 -1.8476  1.6478
   9823SM   C1213230   6.899   7.083  12.492  0.7123  0.4408 -0.5645
   9823SM  H12A13231   6.861   7.009  12.422  1.1253 -1.5319  1.2031
   9823SM  H12B13232   6.834   7.168  12.480  1.4630  1.2116  0.6174
   9823SM   C1113233   6.878   7.019  12.634 -0.2515 -0.2135 -0.1131
   9823SM  H11A13234   6.787   6.954  12.632  0.1569 -0.8443  1.0195
   9823SM  H11B13235   6.875   7.093  12.717 -1.3408 -0.5863  0.2105
   9823SM     P13236   7.010   6.858  12.796 -0.7013  0.7899 -0.0651
   9823SM   O1313237   7.031   6.714  12.778 -0.1464 -0.1266 -0.4037
   9823SM   O1413238   7.123   6.928  12.864 -0.2744 -0.4209  0.8674
   9823SM   O1113239   6.868   6.878  12.865  0.4935  0.2188  0.8897
   9823SM   O1213240   6.988   6.930  12.656 -0.5010  0.4068  0.0713
   9823SM   C1S13241   6.820   6.795  12.967 -0.7847  0.1273  0.4285
   9823SM   H1S13242   6.898   6.730  13.012  0.4425  0.5145 -1.0452
   9823SM   H1T13243   6.734   6.733  12.933 -1.4149  1.1112  0.1782
   9823SM    NF13244   6.732   6.797  13.196  0.0732 -0.6108  0.5238
   9823SM   HNF13245   6.643   6.803  13.239 -1.2434  2.4991 -2.2296
   9823SM   C2S13246   6.765   6.880  13.088 -0.2610 -0.6569  0.8261
   9823SM   H2S13247   6.846   6.942  13.133 -1.4075  1.0456  0.6496
   9823SM   C3S13248   6.647   6.969  13.046 -0.0429 -0.2070 -0.9503
   9823SM   H3S13249   6.564   6.904  13.011 -1.1571  1.3752 -1.2995
   9823SM    O313250   6.676   7.049  12.932 -0.0840  0.1774 -0.2741
   9823SM   HO313251   6.762   7.022  12.900  0.8704  1.2950  1.2046
   9823SM   C4S13252   6.608   7.057  13.164  0.5563 -0.4689  0.3033
   9823SM   H4S13253   6.678   7.123  13.217  0.8080  0.3404 -0.9843
   9823SM   C5S13254   6.486   7.073  13.207 -0.8218 -0.1594  0.3434
   9823SM   H5S13255   6.403   7.035  13.146 -0.0516  1.7592 -2.0728
   9823SM   C6S13256   6.449   7.161  13.321  0.7869 -0.2363  0.4552
   9823SM   H6S13257   6.388   7.246  13.284 -0.3610 -0.2880  2.1222
   9823SM   H6T13258   6.539   7.200  13.375  0.1463  1.2688  0.5051
   9823SM   C7S13259   6.360   7.093  13.431 -0.1102 -0.7150 -0.6784
   9823SM   H7S13260   6.274   7.048  13.376 -0.6499  1.6363 -1.8960
   9823SM   H7T13261   6.320   7.168  13.503 -1.3891  0.5353 -2.5826
   9823SM   C8S13262   6.444   6.987  13.501 -0.4268  0.2700 -0.8841
   9823SM   H8S13263   6.541   7.033  13.532  0.7354 -1.8036 -1.2883
   9823SM   H8T13264   6.467   6.901  13.435  2.8292  0.4017 -0.0975
   9823SM   C9S13265   6.381   6.944  13.634 -0.5367 -0.5946  0.2579
   9823SM   H9S13266   6.279   6.903  13.619 -0.7164 -0.1847  0.3378
   9823SM   H9T13267   6.367   7.032  13.700 -2.1882 -1.7161  1.5093
   9823SM  C10S13268   6.472   6.840  13.713  0.0097 -0.0406 -0.2032
   9823SM  H10S13269   6.574   6.878  13.737  0.3864 -0.6907 -0.7498
   9823SM  H10T13270   6.492   6.752  13.649 -0.1573 -0.1884 -0.0516
   9823SM  C11S13271   6.393   6.795  13.842  0.3014 -0.0795 -0.0774
   9823SM  H11S13272   6.293   6.750  13.825  0.4493 -2.3233  3.8499
   9823SM  H11T13273   6.369   6.880  13.908 -0.7794 -0.8806  0.5928
   9823SM  C12S13274   6.475   6.693  13.921  0.3889 -0.2348  0.5475
   9823SM  H12S13275   6.563   6.739  13.970  0.0274  0.6362  0.3931
   9823SM  H12T13276   6.520   6.611  13.861  2.3788 -0.3604  2.0936
   9823SM  C13S13277   6.389   6.641  14.036 -0.7374  0.2137  0.0422
   9823SM  H13S13278   6.439   6.549  14.073  0.2089  0.8252  0.3174
   9823SM  H13T13279   6.296   6.616  13.981  1.3317 -0.5357 -3.3519
   9823SM  C14S13280   6.373   6.736  14.155 -0.8068 -0.0708 -0.0450
   9823SM  H14S13281   6.313   6.822  14.118  1.8458  1.7289 -0.4186
   9823SM  H14T13282   6.475   6.776  14.177 -1.0283  1.3004 -1.3483
   9823SM  C15S13283   6.303   6.680  14.275 -0.5404 -0.4634 -0.5575
   9823SM  H15S13284   6.365   6.589  14.288 -1.2245 -1.2161 -2.1923
   9823SM  H15T13285   6.199   6.646  14.255 -1.0038  1.0178 -0.8089
   9823SM  C16S13286   6.310   6.770  14.399  0.2528 -0.1923 -0.1376
   9823SM  H16S13287   6.408   6.823  14.394 -0.5594  1.1941 -2.4680
   9823SM  H16T13288   6.293   6.716  14.495 -0.4250  1.4164  0.6758
   9823SM  C17S13289   6.200   6.885  14.394  0.0599  0.2169 -0.7605
   9823SM  H17S13290   6.098   6.844  14.379 -0.5393  1.8222 -1.2528
   9823SM  H17T13291   6.228   6.947  14.305  1.8247  0.5343 -0.0370
   9823SM  C18S13292   6.198   6.977  14.515 -0.3756 -0.1917 -0.3755
   9823SM  H18S13293   6.120   7.051  14.489 -0.4178  0.2049  0.8218
   9823SM  H18T13294   6.299   7.022  14.525 -0.3261 -0.3777 -0.0096
   9823SM  H18U13295   6.165   6.923  14.606  1.4827 -1.3953 -0.3693
   9823SM   C1F13296   6.821   6.720  13.263  0.7013  0.4584 -0.8341
   9823SM    OF13297   6.943   6.725  13.244  0.1139 -0.0735 -0.5503
   9823SM   C2F13298   6.764   6.623  13.363  0.0076 -0.4039 -0.3471
   9823SM   H2F13299   6.819   6.529  13.344 -0.9820 -1.5499  1.9905
   9823SM   H2G13300   6.654   6.618  13.344  0.1898 -2.1245 -1.0869
   9823SM   C3F13301   6.780   6.673  13.509 -0.2327  0.8410 -0.0980
   9823SM   H3F13302   6.729   6.607  13.583  0.0602  1.5527  0.7685
   9823SM   H3G13303   6.736   6.774  13.516 -0.1597  0.8042  1.2339
   9823SM   C4F13304   6.924   6.675  13.557 -0.2248  0.3720 -0.0588
   9823SM   H4F13305   6.981   6.738  13.486 -1.5308  0.1137 -1.3991
   9823SM   H4G13306   6.967   6.573  13.567 -0.5765  0.3402  1.2338
   9823SM   C5F13307   6.936   6.721  13.704  0.4402 -0.2965 -0.9552
   9823SM   H5F13308   6.900   6.826  13.697 -1.5129 -0.7623  0.9356
   9823SM   H5G13309   7.044   6.734  13.728 -0.2351  2.7178  1.1188
   9823SM   C6F13310   6.867   6.647  13.810  0.5306 -0.2194 -0.2672
   9823SM   H6F13311   6.904   6.543  13.797  2.6335  0.4409  0.0502
   9823SM   H6G13312   6.758   6.636  13.789  0.5115 -2.8661  0.8469
   9823SM   C7F13313   6.885   6.692  13.961 -0.0820  0.3836  0.6357
   9823SM   H7F13314   6.858   6.798  13.977 -1.6474  0.0419  0.4465
   9823SM   H7G13315   6.991   6.661  13.977  0.4970  1.6368 -0.5862
   9823SM   C8F13316   6.810   6.600  14.054 -0.2766  0.3799  0.2385
   9823SM   H8F13317   6.840   6.493  14.056 -2.1135 -0.1722  2.0470
   9823SM   H8G13318   6.702   6.591  14.030  0.0698 -2.9836 -0.7128
   9823SM   C9F13319   6.819   6.645  14.206  0.4565 -0.5467  0.0734
   9823SM   H9F13320   6.796   6.754  14.203 -2.6027 -1.0922 -3.3228
   9823SM   H9G13321   6.922   6.622  14.240  1.8003  2.6608 -1.4033
   9823SM  C10F13322   6.721   6.580  14.302 -0.6880 -0.1288  0.4046
   9823SM  H10F13323   6.720   6.470  14.284  1.0285 -0.4485  1.9838
   9823SM  H10G13324   6.620   6.613  14.272 -0.4947 -1.9223 -2.6670
   9823SM  C11F13325   6.744   6.612  14.448  0.3114 -0.1678  0.1022
   9823SM  H11F13326   6.700   6.709  14.478 -0.7922 -0.9519  1.0781
   9823SM  H11G13327   6.850   6.636  14.469  0.3112  1.0486 -1.1543
   9823SM  C12F13328   6.684   6.496  14.530  0.5320 -0.0498 -0.4094
   9823SM  H12F13329   6.726   6.397  14.501 -0.0981 -0.3369 -0.3526
   9823SM  H12G13330   6.578   6.506  14.497  1.0129  1.9706 -1.5245
   9823SM  C13F13331   6.695   6.514  14.678  0.5520  0.0414  0.7756
   9823SM  H13F13332   6.673   6.623  14.687 -2.0869 -0.5195  1.9065
   9823SM  H13G13333   6.796   6.501  14.722  0.2513  0.7430  1.7121
   9823SM  C14F13334   6.591   6.433  14.762 -0.6541 -0.2774 -0.7344
   9823SM  H14F13335   6.634   6.331  14.770  0.4590  0.1690 -0.8605
   9823SM  H14G13336   6.492   6.421  14.711 -0.2425 -0.6707 -1.4561
   9823SM  C15F13337   6.577   6.485  14.899 -0.0077  0.4490 -0.4307
   9823SM  H15F13338   6.512   6.575  14.901 -1.8317 -0.7252  3.3403
   9823SM  H15G13339   6.667   6.521  14.952  0.2931 -0.3921 -0.3456
   9823SM  C16F13340   6.514   6.386  15.003 -0.2888  0.1305 -0.0460
   9823SM  H16F13341   6.582   6.298  15.000  0.6312  0.8435 -1.2293
   9823SM  H16G13342   6.415   6.349  14.968  0.1431 -1.0946 -0.0159
   9823SM  C17F13343   6.499   6.448  15.136 -0.4462 -0.1386 -0.1189
   9823SM  H17F13344   6.395   6.486  15.143 -0.2645  0.1536  1.4095
   9823SM  H17G13345   6.572   6.530  15.153  1.0267 -1.4996  0.3753
   9823SM  C18F13346   6.503   6.347  15.254 -0.3677 -0.1792  0.1728
   9823SM  H18F13347   6.607   6.310  15.269  0.7425  2.9037  0.9654
   9823SM  H18G13348   6.428   6.270  15.226 -1.0736  0.4419  0.3038
   9823SM  C19F13349   6.448   6.414  15.380  0.0504  0.2732  0.1520
   9823SM  H19F13350   6.427   6.337  15.457  0.3444  1.2751  1.2707
   9823SM  H19G13351   6.349   6.463  15.366  0.4121  1.7858  2.3177
   9823SM  C20F13352   6.540   6.518  15.440 -0.2664  0.2160 -0.9272
   9823SM  H20F13353   6.562   6.583  15.353 -0.2998 -1.7461 -2.4863
   9823SM  H20G13354   6.634   6.470  15.475 -0.0209  0.7687 -0.8140
   9823SM  C21F13355   6.479   6.607  15.553  0.2033 -0.3051 -0.4117
   9823SM  H21F13356   6.440   6.533  15.627  1.1397 -1.9044 -1.4566
   9823SM  H21G13357   6.388   6.663  15.524 -1.2111 -2.0213  0.4942
   9823SM  C22F13358   6.571   6.714  15.614  0.0155 -0.5365 -0.5401
   9823SM  H22F13359   6.665   6.662  15.640  1.5337  2.3443  0.0343
   9823SM  H22G13360   6.521   6.745  15.708  0.6288 -2.9628  0.6637
   9823SM  C23F13361   6.607   6.817  15.516 -0.2079  0.7735 -0.6719
   9823SM  H23F13362   6.670   6.773  15.435 -0.2274 -0.8817  0.1756
   9823SM  H23G13363   6.661   6.903  15.559 -0.6925  1.5302 -1.5329
   9823SM  H23H13364   6.512   6.861  15.478 -1.2382 -0.2673  0.5990
   9923SM     N13365   0.508   7.525  12.803  0.1476 -0.5907  0.7287
   9923SM   C1513366   0.612   7.470  12.716 -0.3548 -0.4957 -0.1628
   9923SM  H15A13367   0.628   7.366  12.741  0.9197 -0.4869 -0.8476
   9923SM  H15B13368   0.705   7.522  12.734 -0.6424  0.5862 -1.6274
   9923SM  H15C13369   0.586   7.489  12.613  1.6682 -0.6665 -0.7555
   9923SM   C1413370   0.476   7.663  12.734  0.3479 -0.2473 -0.4823
   9923SM  H14A13371   0.413   7.720  12.801  1.3994  0.9537 -0.4939
   9923SM  H14B13372   0.429   7.643  12.639  0.8133 -3.2095 -0.1981
   9923SM  H14C13373   0.563   7.726  12.734  1.1849 -1.2779  1.6444
   9923SM   C1313374   0.385   7.443  12.810 -0.1113  0.6524 -0.7751
   9923SM  H13A13375   0.326   7.479  12.894  1.5837  0.4280  0.5670
   9923SM  H13B13376   0.408   7.338  12.820  4.2766  1.6194  3.7764
   9923SM  H13C13377   0.319   7.464  12.728 -0.7291  1.0007 -0.2026
   9923SM   C1213378   0.561   7.567  12.937  0.1742 -0.0593  0.5074
   9923SM  H12A13379   0.649   7.628  12.922  0.6039 -1.0710 -1.4074
   9923SM  H12B13380   0.589   7.483  12.998 -1.2681 -0.2091  0.9989
   9923SM   C1113381   0.464   7.653  13.023  0.3436 -0.2491 -0.6732
   9923SM  H11A13382   0.467   7.747  12.964  0.3729  0.3228  0.2237
   9923SM  H11B13383   0.520   7.680  13.115  1.8406 -0.9108 -1.3609
   9923SM     P13384   0.229   7.679  13.120 -0.2799 -0.9518 -0.0845
   9923SM   O1313385   0.206   7.784  13.021 -0.8045 -0.3216  0.0929
   9923SM   O1413386   0.112   7.590  13.151  0.3489 -0.2303 -0.0430
   9923SM   O1113387   0.290   7.736  13.257  0.3613  0.1362  0.3684
   9923SM   O1213388   0.345   7.590  13.057 -0.0429 -0.0149 -0.3990
   9923SM   C1S13389   0.200   7.803  13.342  0.1656 -0.0968  0.5193
   9923SM   H1S13390   0.092   7.795  13.318 -0.2185  2.3842  1.1448
   9923SM   H1T13391   0.234   7.909  13.344  0.8273 -0.3027  0.4012
   9923SM    NF13392   0.122   7.823  13.577  0.1872 -0.6613 -0.2609
   9923SM   HNF13393   0.146   7.896  13.640 -0.0778 -2.4705  2.0970
   9923SM   C2S13394   0.219   7.769  13.492 -0.2627 -0.0961 -0.1015
   9923SM   H2S13395   0.207   7.658  13.495  0.0945 -0.1745 -1.1083
   9923SM   C3S13396   0.366   7.798  13.547 -0.4628  0.0378 -0.5287
   9923SM   H3S13397   0.368   7.909  13.560 -0.5203  0.0488 -0.6129
   9923SM    O313398   0.478   7.759  13.460 -0.5541  1.1757  0.3633
   9923SM   HO313399   0.434   7.738  13.377 -0.3013  0.4668  0.4008
   9923SM   C4S13400   0.377   7.741  13.690  0.1766  0.7403  0.5078
   9923SM   H4S13401   0.301   7.788  13.754 -1.6182 -1.2385 -0.0640
   9923SM   C5S13402   0.450   7.637  13.738  0.3464 -0.0129 -0.3377
   9923SM   H5S13403   0.500   7.578  13.660 -0.0585  2.2218 -2.3867
   9923SM   C6S13404   0.467   7.599  13.885 -0.0553  0.1001  0.3307
   9923SM   H6S13405   0.570   7.566  13.914  0.1549  1.8332  1.7122
   9923SM   H6T13406   0.402   7.510  13.901 -1.6624  0.9576 -1.1633
   9923SM   C7S13407   0.436   7.722  13.974 -0.7302  0.2574 -0.4175
   9923SM   H7S13408   0.329   7.752  13.980 -0.0003  2.9499  0.5874
   9923SM   H7T13409   0.498   7.806  13.935  3.2129 -1.1360  2.2779
   9923SM   C8S13410   0.470   7.696  14.123 -0.6131 -0.1490  0.2901
   9923SM   H8S13411   0.486   7.796  14.169 -1.5434 -0.4961  1.4138
   9923SM   H8T13412   0.562   7.636  14.137 -1.4372 -1.0083  2.5299
   9923SM   C9S13413   0.369   7.614  14.197 -0.3850 -0.6205 -0.4506
   9923SM   H9S13414   0.328   7.532  14.134 -1.4666 -1.4755  1.2688
   9923SM   H9T13415   0.283   7.676  14.231 -1.0132 -0.8120 -1.6632
   9923SM  C10S13416   0.448   7.556  14.325  0.4263 -0.4040 -0.0523
   9923SM  H10S13417   0.539   7.500  14.294  0.6899 -0.2198  0.3773
   9923SM  H10T13418   0.383   7.486  14.381  2.2299 -1.5197  0.7472
   9923SM  C11S13419   0.481   7.664  14.429 -0.1786  0.0520 -0.1230
   9923SM  H11S13420   0.398   7.737  14.431  0.5225  0.9759 -2.3760
   9923SM  H11T13421   0.569   7.724  14.396  1.8057 -1.8783  1.3496
   9923SM  C12S13422   0.498   7.606  14.570 -0.1886  0.2882 -0.3697
   9923SM  H12S13423   0.605   7.576  14.577 -1.2691 -3.7965  1.2243
   9923SM  H12T13424   0.437   7.514  14.582 -0.0752  0.2258 -0.2627
   9923SM  C13S13425   0.453   7.711  14.677 -0.5239  0.0655 -0.1302
   9923SM  H13S13426   0.358   7.766  14.660  0.0967  0.2722 -3.4053
   9923SM  H13T13427   0.531   7.790  14.676  0.3675 -0.7661 -2.5251
   9923SM  C14S13428   0.448   7.646  14.813 -0.4556  0.2866 -0.0535
   9923SM  H14S13429   0.535   7.578  14.824  0.3174  1.2810  0.0876
   9923SM  H14T13430   0.360   7.580  14.830  0.6603 -1.3806 -0.5772
   9923SM  C15S13431   0.459   7.757  14.919  0.1366  0.3658  0.1327
   9923SM  H15S13432   0.391   7.839  14.886  0.7355  1.3465  1.2586
   9923SM  H15T13433   0.565   7.790  14.926 -0.1332  0.8372  2.6966
   9923SM  C16S13434   0.414   7.706  15.054  0.3358 -0.0857 -0.8763
   9923SM  H16S13435   0.314   7.658  15.046  0.5751 -1.1915  1.7711
   9923SM  H16T13436   0.398   7.796  15.118 -0.2934 -0.4308 -0.5345
   9923SM  C17S13437   0.507   7.613  15.126  0.2173 -0.0084 -0.1153
   9923SM  H17S13438   0.609   7.655  15.128  0.0714  0.3333  0.1265
   9923SM  H17T13439   0.502   7.521  15.063 -0.7336  1.5113 -2.3806
   9923SM  C18S13440   0.467   7.589  15.273  0.0558  0.0734  1.1153
   9923SM  H18S13441   0.378   7.523  15.272  0.2870 -0.2315 -0.0071
   9923SM  H18T13442   0.429   7.682  15.321 -1.9141 -1.6431  3.0626
   9923SM  H18U13443   0.548   7.542  15.332  1.1860 -0.4128 -0.7377
   9923SM   C1F13444  -0.006   7.777  13.569 -0.0681 -0.2577  0.3450
   9923SM    OF13445  -0.039   7.685  13.498  0.1270  0.5900  0.2110
   9923SM   C2F13446  -0.115   7.855  13.640 -0.0022 -0.4736 -0.1797
   9923SM   H2F13447  -0.196   7.858  13.564  0.7186 -1.4827 -1.0136
   9923SM   H2G13448  -0.087   7.960  13.664 -1.1297 -0.6492  2.2076
   9923SM   C3F13449  -0.167   7.778  13.772 -0.1899  0.0734  0.3824
   9923SM   H3F13450  -0.201   7.677  13.741  1.5281 -0.8389  1.3002
   9923SM   H3G13451  -0.255   7.838  13.803 -1.0254 -0.5353 -0.7503
   9923SM   C4F13452  -0.066   7.769  13.892  0.1833 -0.3604 -0.3331
   9923SM   H4F13453  -0.015   7.866  13.909  0.0217  0.2481 -2.9331
   9923SM   H4G13454   0.023   7.716  13.851  0.2954  0.5239 -1.2590
   9923SM   C5F13455  -0.128   7.704  14.015  0.4358  0.7244  0.4566
   9923SM   H5F13456  -0.217   7.638  14.000  2.1650 -1.7316  0.4892
   9923SM   H5G13457  -0.179   7.781  14.076  0.5594  0.8078  0.4539
   9923SM   C6F13458  -0.034   7.635  14.108 -0.2092 -0.1974  1.1317
   9923SM   H6F13459   0.052   7.702  14.126 -0.5619  0.2297  1.2427
   9923SM   H6G13460   0.012   7.542  14.068  0.9635  0.5562  0.6730
   9923SM   C7F13461  -0.086   7.606  14.237 -0.1051  0.4726 -0.6597
   9923SM   H7F13462  -0.153   7.517  14.239  2.1086 -1.3293  3.1967
   9923SM   H7G13463  -0.144   7.692  14.276 -0.6149 -0.6674  1.1831
   9923SM   C8F13464   0.011   7.584  14.354  0.0306  0.3116  0.2226
   9923SM   H8F13465   0.064   7.681  14.369  0.8752  0.3136 -2.2348
   9923SM   H8G13466   0.085   7.502  14.343  0.0396  0.4021 -0.4269
   9923SM   C9F13467  -0.072   7.567  14.491  0.4058  0.0470  0.8183
   9923SM   H9F13468  -0.160   7.503  14.468  0.7909 -0.6725  1.3373
   9923SM   H9G13469  -0.099   7.670  14.523  0.7787  1.8481 -3.8239
   9923SM  C10F13470   0.015   7.503  14.596 -0.6206 -0.1497 -0.3553
   9923SM  H10F13471   0.097   7.571  14.626 -0.8755  0.4332 -0.9526
   9923SM  H10G13472   0.047   7.406  14.554 -1.5439 -0.6296  0.0159
   9923SM  C11F13473  -0.066   7.470  14.727  0.6672 -0.3374 -0.0005
   9923SM  H11F13474  -0.155   7.410  14.698  0.3186 -1.2558  2.7160
   9923SM  H11G13475  -0.099   7.568  14.769  0.6579 -0.8915  1.3352
   9923SM  C12F13476   0.019   7.398  14.829  0.1034 -0.2837 -0.2390
   9923SM  H12F13477   0.103   7.469  14.843 -2.7278  3.5872 -1.2061
   9923SM  H12G13478   0.063   7.302  14.795 -1.6012 -0.9475 -0.6843
   9923SM  C13F13479  -0.052   7.377  14.962 -0.3387  0.2752  0.5227
   9923SM  H13F13480  -0.126   7.295  14.945 -1.0573  0.7349  1.3363
   9923SM  H13G13481  -0.105   7.465  15.004  0.0764  0.7359  0.1014
   9923SM  C14F13482   0.049   7.326  15.066  0.0060 -1.1246  0.2665
   9923SM  H14F13483   0.122   7.403  15.099 -1.7470  0.6676  0.1373
   9923SM  H14G13484   0.120   7.257  15.014 -0.0750 -0.8040 -0.2776
   9923SM  C15F13485  -0.026   7.258  15.181 -0.3081  0.6663 -0.6648
   9923SM  H15F13486  -0.054   7.152  15.169  1.6871  0.0635 -0.4364
   9923SM  H15G13487  -0.117   7.317  15.202 -1.5717 -0.8386 -1.7083
   9923SM  C16F13488   0.057   7.263  15.311  0.0291 -0.8412 -0.5795
   9923SM  H16F13489   0.159   7.234  15.279  0.3456 -0.3714  0.0003
   9923SM  H16G13490   0.025   7.187  15.386  1.9830 -1.1891 -0.0413
   9923SM  C17F13491   0.068   7.404  15.377 -0.6144  0.9299  0.2312
   9923SM  H17F13492  -0.035   7.442  15.363 -0.8972 -0.3620 -1.7045
   9923SM  H17G13493   0.138   7.463  15.315 -1.2089  2.4506  0.9609
   9923SM  C18F13494   0.113   7.401  15.524 -0.1420  1.1681 -0.7128
   9923SM  H18F13495   0.207   7.341  15.528 -1.0686 -0.3962 -1.4385
   9923SM  H18G13496   0.050   7.345  15.597 -0.8244  4.5882  1.5313
   9923SM  C19F13497   0.122   7.542  15.575  0.6893  0.2840 -0.0858
   9923SM  H19F13498   0.021   7.588  15.573  1.0257  1.0348 -0.3354
   9923SM  H19G13499   0.184   7.604  15.508  0.5214  1.0293  0.4417
   9923SM  C20F13500   0.183   7.545  15.716  0.2186  0.3516 -0.0162
   9923SM  H20F13501   0.292   7.523  15.725  0.3733  0.3972 -1.6136
   9923SM  H20G13502   0.127   7.465  15.770  0.3957  1.1971  1.4614
   9923SM  C21F13503   0.139   7.667  15.803 -0.7116  0.2446 -0.1644
   9923SM  H21F13504   0.186   7.646  15.902  1.1484 -1.6525 -1.3667
   9923SM  H21G13505   0.029   7.674  15.816 -0.8727  3.5579 -2.1539
   9923SM  C22F13506   0.186   7.803  15.769 -0.0576  0.3964  0.0415
   9923SM  H22F13507   0.138   7.825  15.672 -0.8670 -0.8696  0.1322
   9923SM  H22G13508   0.297   7.791  15.763 -0.2486 -0.9583 -1.3874
   9923SM  C23F13509   0.151   7.900  15.883  0.6368  0.2151  0.2680
   9923SM  H23F13510   0.041   7.904  15.888  0.3456 -1.3528 -2.6509
   9923SM  H23G13511   0.172   8.006  15.856  0.6980 -0.0600 -0.8196
   9923SM  H23H13512   0.201   7.877  15.979  3.7172  0.6814 -1.0885
  10023SM     N13513   7.664   0.932  13.171 -0.5042 -0.2502 -0.2611
  10023SM   C1513514   7.634   1.016  13.054  0.8930  0.1537  0.7217
  10023SM  H15A13515   7.532   1.052  13.050  1.4033  1.5903 -0.8350
  10023SM  H15B13516   7.647   0.949  12.970  0.4122 -1.9419  2.2351
  10023SM  H15C13517   7.702   1.100  13.045  1.0197 -0.1551 -1.8027
  10023SM   C1413518   7.696   1.031  13.278 -0.5433  0.2074 -0.1205
  10023SM  H14A13519   7.710   0.973  13.368  2.2631 -0.6912 -1.0524
  10023SM  H14B13520   7.621   1.108  13.286  1.3786  2.1747 -0.2202
  10023SM  H14C13521   7.784   1.092  13.273 -0.5286  0.2015  0.0413
  10023SM   C1313522   7.538   0.855  13.210 -0.6589  0.3656 -0.2794
  10023SM  H13A13523   7.568   0.790  13.291  1.0508  0.5986 -0.6859
  10023SM  H13B13524   7.505   0.783  13.136  0.6217 -0.9382  0.3722
  10023SM  H13C13525   7.466   0.929  13.241 -0.0763  0.3705  1.1459
  10023SM   C1213526   7.779   0.834  13.160 -0.4302 -0.0191 -0.6267
  10023SM  H12A13527   7.863   0.896  13.133 -1.9016  1.9716 -0.8647
  10023SM  H12B13528   7.766   0.774  13.071 -1.4401 -1.4546  0.4336
  10023SM   C1113529   7.822   0.761  13.289 -0.2512  0.1762 -0.1476
  10023SM  H11A13530   7.857   0.830  13.369  0.3918  1.0705 -1.1699
  10023SM  H11B13531   7.916   0.705  13.274 -0.8106 -0.2745 -2.1925
  10023SM     P13532   7.709   0.527  13.314  0.2483  0.0925 -0.0464
  10023SM   O1313533   7.570   0.487  13.353 -1.1533 -0.3993 -0.1745
  10023SM   O1413534   7.748   0.487  13.180  0.0028 -0.1030 -0.0927
  10023SM   O1113535   7.809   0.470  13.419 -0.0308 -0.1709 -0.4243
  10023SM   O1213536   7.719   0.680  13.338  0.1394  0.5547 -0.0490
  10023SM   C1S13537   7.809   0.515  13.555 -1.5955 -0.7934  0.0574
  10023SM   H1S13538   7.746   0.456  13.625 -0.4461  0.5250  2.3247
  10023SM   H1T13539   7.775   0.619  13.567  0.7267 -0.0924  1.2982
  10023SM    NF13540   7.943   0.537  13.760  0.4253  0.1555 -0.1029
  10023SM   HNF13541   7.957   0.629  13.798  0.6970  0.7689 -1.6254
  10023SM   C2S13542   7.954   0.519  13.618  1.0371 -0.2103 -0.3455
  10023SM   H2S13543   8.008   0.422  13.605  2.0857  0.2905  0.1144
  10023SM   C3S13544   8.042   0.617  13.539  0.5158  0.2885  0.0768
  10023SM   H3S13545   7.988   0.714  13.527 -1.2803 -0.4419  1.6962
  10023SM    O313546   8.083   0.559  13.416  0.0387 -0.5688 -0.4713
  10023SM   HO313547   8.016   0.495  13.393  0.5775 -1.7249  1.0187
  10023SM   C4S13548   8.168   0.635  13.622  0.4430 -0.4116 -0.0132
  10023SM   H4S13549   8.187   0.742  13.635  2.8352 -0.8821  0.7316
  10023SM   C5S13550   8.266   0.555  13.669 -0.4731  0.2408 -0.9685
  10023SM   H5S13551   8.260   0.450  13.638  1.3939  0.1424 -1.0947
  10023SM   C6S13552   8.384   0.603  13.748  0.2125 -0.1925  0.2775
  10023SM   H6S13553   8.402   0.711  13.732 -0.1215 -0.3026 -1.0018
  10023SM   H6T13554   8.477   0.560  13.704  0.2355 -2.2154  2.1361
  10023SM   C7S13555   8.387   0.570  13.894  0.3998 -0.5620 -0.3323
  10023SM   H7S13556   8.311   0.631  13.948  1.3634  1.5009 -1.1717
  10023SM   H7T13557   8.482   0.614  13.931 -0.6234  3.3087 -1.8254
  10023SM   C8S13558   8.359   0.419  13.927 -1.1468  0.1243  0.1360
  10023SM   H8S13559   8.421   0.355  13.861  0.5841  0.0260  1.7727
  10023SM   H8T13560   8.251   0.394  13.916 -1.3988  0.9904  0.5528
  10023SM   C9S13561   8.404   0.376  14.067  0.7487 -0.5696  0.0681
  10023SM   H9S13562   8.504   0.408  14.102  0.5561  0.9114 -0.6627
  10023SM   H9T13563   8.393   0.265  14.063 -0.4885 -0.5296  1.4739
  10023SM  C10S13564   8.306   0.432  14.167  1.0496 -0.1530 -0.2383
  10023SM  H10S13565   8.204   0.409  14.131 -0.0349  1.4710  1.6085
  10023SM  H10T13566   8.326   0.541  14.178  0.4281  0.0018 -0.5833
  10023SM  C11S13567   8.311   0.365  14.310 -0.5033  0.2743  1.0422
  10023SM  H11S13568   8.411   0.336  14.348 -0.5411  0.4888  1.3065
  10023SM  H11T13569   8.242   0.278  14.298  1.7506 -1.3280 -1.2462
  10023SM  C12S13570   8.252   0.454  14.423  0.3017 -0.0912  0.3040
  10023SM  H12S13571   8.148   0.481  14.393  0.2423 -0.9463 -0.2940
  10023SM  H12T13572   8.308   0.549  14.420 -0.4891  0.3860 -2.7641
  10023SM  C13S13573   8.252   0.398  14.565  0.0211  0.4794  0.2667
  10023SM  H13S13574   8.355   0.383  14.603  0.3755  3.5784  0.7669
  10023SM  H13T13575   8.201   0.299  14.554  0.1991  0.3761  0.3591
  10023SM  C14S13576   8.176   0.487  14.669 -0.5145  0.1523  0.2040
  10023SM  H14S13577   8.072   0.462  14.638 -0.9174  2.2359 -0.2270
  10023SM  H14T13578   8.198   0.593  14.644  0.1512  0.6392  2.6093
  10023SM  C15S13579   8.208   0.445  14.808  0.0006  0.5517  0.7153
  10023SM  H15S13580   8.314   0.463  14.834  0.5801 -3.4224  1.7392
  10023SM  H15T13581   8.187   0.337  14.826 -1.0564  0.4826 -0.8041
  10023SM  C16S13582   8.117   0.512  14.911 -0.1526  0.0936 -0.9111
  10023SM  H16S13583   8.013   0.513  14.872 -0.0580  1.9574 -1.1894
  10023SM  H16T13584   8.167   0.611  14.918  2.8622 -1.2737 -1.4800
  10023SM  C17S13585   8.127   0.441  15.047  0.6045  0.0648  0.3748
  10023SM  H17S13586   8.099   0.339  15.013  2.1293  0.3852 -2.0476
  10023SM  H17T13587   8.048   0.482  15.114  0.1406  0.4950 -0.4128
  10023SM  C18S13588   8.262   0.428  15.114 -0.4144 -0.5850 -0.2967
  10023SM  H18S13589   8.254   0.353  15.195  3.0410 -1.4995 -0.6124
  10023SM  H18T13590   8.295   0.526  15.156 -3.5740  0.6317 -0.3863
  10023SM  H18U13591   8.330   0.383  15.038  2.2324  0.2030  1.4503
  10023SM   C1F13592   7.894   0.448  13.841 -0.7968  0.3496 -0.6209
  10023SM    OF13593   7.866   0.333  13.804 -0.1129 -0.2079  0.2914
  10023SM   C2F13594   7.878   0.499  13.984  1.2425 -0.0920 -0.0377
  10023SM   H2F13595   7.786   0.559  13.996  2.3743  1.6541  0.1765
  10023SM   H2G13596   7.964   0.564  14.008  2.1880 -0.3850 -2.3787
  10023SM   C3F13597   7.877   0.376  14.084  0.0016 -0.1712 -0.2840
  10023SM   H3F13598   7.964   0.310  14.060 -0.5963 -0.4020 -1.9630
  10023SM   H3G13599   7.779   0.329  14.064  0.1069 -0.1079 -0.9644
  10023SM   C4F13600   7.878   0.419  14.231  0.2230 -0.2992  0.0950
  10023SM   H4F13601   7.791   0.486  14.244  0.0870 -0.0268 -1.8559
  10023SM   H4G13602   7.965   0.481  14.263  0.7148  0.2461 -2.0686
  10023SM   C5F13603   7.857   0.301  14.335 -0.0746  0.1731  0.1173
  10023SM   H5F13604   7.954   0.253  14.360  0.0010  0.9430  1.4127
  10023SM   H5G13605   7.783   0.227  14.296 -2.3555  2.1590  0.4429
  10023SM   C6F13606   7.804   0.352  14.474 -0.0500  0.0388  0.3171
  10023SM   H6F13607   7.712   0.414  14.468  0.2090  0.5526  1.3283
  10023SM   H6G13608   7.883   0.420  14.513 -1.8731  2.5545 -0.1128
  10023SM   C7F13609   7.782   0.237  14.575  0.5091  0.3877 -0.7501
  10023SM   H7F13610   7.855   0.154  14.567 -1.2531 -1.3531  0.2896
  10023SM   H7G13611   7.686   0.189  14.547 -0.4316  1.4034  0.6249
  10023SM   C8F13612   7.790   0.277  14.723 -0.2218 -0.2981  0.0797
  10023SM   H8F13613   7.730   0.370  14.735  0.6112  0.3202 -0.3504
  10023SM   H8G13614   7.897   0.303  14.742  0.1800 -1.0289 -1.0690
  10023SM   C9F13615   7.741   0.160  14.814 -0.1060 -0.0241  0.6716
  10023SM   H9F13616   7.805   0.071  14.794 -1.8221 -1.0840 -0.2971
  10023SM   H9G13617   7.639   0.133  14.780  0.9179  0.3276 -3.1983
  10023SM  C10F13618   7.751   0.194  14.964 -0.0690 -0.3912 -0.4618
  10023SM  H10F13619   7.707   0.295  14.981  0.4667 -0.2958  0.4035
  10023SM  H10G13620   7.858   0.201  14.993 -0.1156  3.1946 -0.6183
  10023SM  C11F13621   7.664   0.098  15.044  0.5577 -0.2060  0.4436
  10023SM  H11F13622   7.698  -0.008  15.038  0.5613 -0.2691  1.3849
  10023SM  H11G13623   7.561   0.088  15.003 -0.1118  2.3160  1.3576
  10023SM  C12F13624   7.648   0.141  15.192 -0.0928  0.1042  1.1211
  10023SM  H12F13625   7.569   0.219  15.187 -0.0220  0.2001 -4.0335
  10023SM  H12G13626   7.743   0.177  15.237  0.0233  0.7146  0.4067
  10023SM  C13F13627   7.581   0.028  15.277  0.2596 -0.2805  0.0361
  10023SM  H13F13628   7.649  -0.056  15.302 -1.3133 -1.8139 -0.6142
  10023SM  H13G13629   7.496  -0.013  15.219  0.0551  1.6300 -1.1282
  10023SM  C14F13630   7.518   0.085  15.405  0.6837 -0.0456  0.4949
  10023SM  H14F13631   7.452   0.169  15.374  0.5392 -0.3789 -0.1184
  10023SM  H14G13632   7.600   0.127  15.468  0.0437 -0.3590  1.5502
  10023SM  C15F13633   7.432  -0.008  15.483 -0.0539 -0.1240 -0.3104
  10023SM  H15F13634   7.492  -0.099  15.505  1.6550  0.9801 -0.3169
  10023SM  H15G13635   7.341  -0.030  15.422 -0.0090  1.2348 -0.8842
  10023SM  C16F13636   7.387   0.049  15.617 -0.1005  0.1403 -0.4507
  10023SM  H16F13637   7.476   0.054  15.683  0.4977 -2.3398 -0.9990
  10023SM  H16G13638   7.315  -0.021  15.665 -0.7473  1.1669  0.1142
  10023SM  C17F13639   7.314   0.187  15.612 -0.4144  0.6405  0.2178
  10023SM  H17F13640   7.390   0.267  15.601 -0.1287  0.1938 -1.4138
  10023SM  H17G13641   7.264   0.206  15.709  0.0044  0.7934  0.4049
  10023SM  C18F13642   7.209   0.186  15.501  0.0313  0.2116  0.1199
  10023SM  H18F13643   7.159   0.088  15.511  1.2272 -0.3472  0.9312
  10023SM  H18G13644   7.254   0.199  15.401  1.4762  1.3360  0.8650
  10023SM  C19F13645   7.114   0.301  15.523 -0.2763 -0.1085  0.3831
  10023SM  H19F13646   7.162   0.397  15.550  1.1162  0.4638 -3.5693
  10023SM  H19G13647   7.041   0.259  15.596 -0.0960 -1.1597 -0.0170
  10023SM  C20F13648   7.033   0.333  15.398 -0.0396  0.0056  0.1900
  10023SM  H20F13649   6.977   0.243  15.364  1.8769 -0.8229 -0.8968
  10023SM  H20G13650   7.098   0.364  15.314  1.8202  0.1474  1.6088
  10023SM  C21F13651   6.934   0.450  15.424  0.1490  0.3890 -0.1226
  10023SM  H21F13652   6.986   0.547  15.413 -1.7216  1.5201  0.5074
  10023SM  H21G13653   6.884   0.455  15.523 -0.1174  0.3742 -0.2557
  10023SM  C22F13654   6.825   0.442  15.318 -0.0573  0.1542  0.0999
  10023SM  H22F13655   6.740   0.395  15.372  1.0876 -0.9387  1.0330
  10023SM  H22G13656   6.860   0.378  15.234 -0.7344  0.1691 -0.2034
  10023SM  C23F13657   6.781   0.579  15.266  0.2723  0.2826 -0.1963
  10023SM  H23F13658   6.702   0.571  15.189  0.7054 -0.7132 -0.5508
  10023SM  H23G13659   6.866   0.642  15.231 -0.8004  2.1646  0.4484
  10023SM  H23H13660   6.746   0.636  15.355 -0.5789  0.0534 -0.3835
  101CHL1    C313661   4.454   5.048  16.696  0.3712  0.1668 -0.2875
  101CHL1    H313662   4.547   5.068  16.639  1.1813 -1.1518  0.5197
  101CHL1    O313663   4.480   5.104  16.827 -0.2173  0.1039  0.3292
  101CHL1   H3'13664   4.451   5.195  16.824 -2.7059 -0.6287 -1.3989
  101CHL1    C413665   4.345   5.128  16.633  0.0626  0.1050 -0.5756
  101CHL1   H4A13666   4.252   5.120  16.693 -0.3642 -0.7987 -1.3185
  101CHL1   H4B13667   4.383   5.232  16.629  1.9958 -0.4949  0.9944
  101CHL1    C513668   4.306   5.072  16.501  0.1878 -1.1137 -0.7121
  101CHL1    C613669   4.307   5.155  16.391 -0.3153  0.5338 -0.0904
  101CHL1    H613670   4.341   5.259  16.406 -3.0394  1.6724 -1.2455
  101CHL1    C713671   4.266   5.124  16.252  1.0539  0.2587  0.2672
  101CHL1   H7A13672   4.192   5.188  16.199 -0.1298 -1.0283  0.2921
  101CHL1   H7B13673   4.358   5.128  16.191  0.8424 -2.3429 -0.3348
  101CHL1    C813674   4.203   4.984  16.248  0.7533  0.1888 -0.1722
  101CHL1    H813675   4.095   4.994  16.272  0.0484 -1.1019 -2.4243
  101CHL1   C1413676   4.202   4.934  16.110 -0.0895  0.0525 -0.0982
  101CHL1   H1413677   4.309   4.907  16.101  0.2884  0.7640  1.7712
  101CHL1   C1513678   4.177   5.035  15.989  0.6070 -0.0727  0.4976
  101CHL1  H15A13679   4.082   5.088  16.012  0.9412  1.7598 -1.9031
  101CHL1  H15B13680   4.260   5.106  15.972 -0.0450  1.1029  2.0050
  101CHL1   C1613681   4.144   4.942  15.871 -0.3609 -0.2483  0.1292
  101CHL1  H16A13682   4.038   4.962  15.842 -0.9379  1.5801  3.0277
  101CHL1  H16B13683   4.217   4.959  15.789 -1.0243  0.7469 -0.2790
  101CHL1   C1713684   4.167   4.792  15.917 -0.2939 -0.4100 -1.0915
  101CHL1   H1713685   4.274   4.763  15.913 -0.3667 -1.6290  2.2832
  101CHL1   C1313686   4.133   4.797  16.075 -0.2273  0.3026 -0.6796
  101CHL1   C1813687   3.980   4.804  16.097  0.2961 -0.0902 -0.0479
  101CHL1  H18A13688   3.955   4.858  16.191  0.4315  1.7070 -0.9976
  101CHL1  H18B13689   3.943   4.879  16.023  2.0367 -0.9353 -1.8670
  101CHL1  H18C13690   3.923   4.709  16.091  0.7399 -0.4123  0.7819
  101CHL1   C1213691   4.200   4.692  16.161 -0.0183  0.1147  0.1018
  101CHL1  H12A13692   4.152   4.593  16.146 -1.5707  1.1190 -2.0298
  101CHL1  H12B13693   4.303   4.678  16.123  0.1628 -1.7444  1.1204
  101CHL1   C1113694   4.208   4.738  16.312 -0.2229 -0.1242  0.2597
  101CHL1  H11A13695   4.103   4.737  16.350  0.3633  1.1995  2.0604
  101CHL1  H11B13696   4.257   4.661  16.375  1.0246 -0.3701 -0.9752
  101CHL1    C913697   4.266   4.880  16.341 -0.0989 -0.6515  0.3794
  101CHL1    H913698   4.372   4.870  16.310  0.4181 -0.3031  1.9438
  101CHL1   C1013699   4.269   4.922  16.490  0.4756  0.1482 -0.6079
  101CHL1   C1913700   4.126   4.900  16.551 -0.1713  0.4757  0.1679
  101CHL1  H19A13701   4.049   4.940  16.481  2.1869  2.2345 -1.5979
  101CHL1  H19B13702   4.111   4.791  16.563 -1.1810  0.4622 -1.0860
  101CHL1  H19C13703   4.128   4.945  16.653  1.9593  0.2711  0.2777
  101CHL1    C113704   4.381   4.850  16.565 -0.1476  0.1058 -0.3685
  101CHL1   H1A13705   4.364   4.740  16.570 -1.6044  0.3380  0.3708
  101CHL1   H1B13706   4.468   4.863  16.497  0.2716  0.1526  0.1689
  101CHL1    C213707   4.423   4.897  16.698  0.4553 -0.0545 -0.3649
  101CHL1   H2A13708   4.509   4.835  16.733 -0.2224 -0.8423 -0.0526
  101CHL1   H2B13709   4.342   4.874  16.770  1.1432  0.5510  0.6308
  101CHL1   C2013710   4.091   4.680  15.834 -0.1440 -0.9071 -0.5144
  101CHL1   H2013711   3.983   4.696  15.857  0.3107  1.5612  0.2797
  101CHL1   C2113712   4.136   4.537  15.892 -0.2814  0.0379  0.4747
  101CHL1  H21A13713   4.066   4.522  15.977 -1.6273 -0.2866 -0.6556
  101CHL1  H21B13714   4.239   4.535  15.933  0.5248 -2.5008 -1.3767
  101CHL1  H21C13715   4.134   4.449  15.824  1.6037 -0.7681  1.4018
  101CHL1   C2213716   4.118   4.695  15.687  0.0849  0.1539  0.5559
  101CHL1  H22A13717   4.051   4.625  15.634 -1.1810  1.5794  0.2100
  101CHL1  H22B13718   4.081   4.794  15.652  0.6874  1.0501  2.3191
  101CHL1   C2313719   4.264   4.674  15.642 -0.1065 -0.4841 -0.0157
  101CHL1  H23A13720   4.322   4.756  15.690 -1.4933 -0.1518  1.1757
  101CHL1  H23B13721   4.308   4.583  15.688  3.5902  2.4194  2.8561
  101CHL1   C2413722   4.296   4.696  15.493  0.1844  0.6018  0.3710
  101CHL1  H24A13723   4.275   4.795  15.448 -1.2300  0.0858 -0.1780
  101CHL1  H24B13724   4.401   4.661  15.483 -0.2565 -0.8823  0.5935
  101CHL1   C2513725   4.218   4.589  15.400  0.1770  0.3998 -0.6250
  101CHL1   H2513726   4.110   4.613  15.404  0.6387  3.2116 -2.0866
  101CHL1   C2613727   4.266   4.596  15.255  0.3771 -0.5623 -0.9079
  101CHL1  H26A13728   4.248   4.700  15.220  1.4007 -0.4843 -1.2223
  101CHL1  H26B13729   4.366   4.553  15.231  0.6492 -1.4730  1.4888
  101CHL1  H26C13730   4.197   4.540  15.188 -0.9335  0.5680 -0.5474
  101CHL1   C2713731   4.239   4.450  15.462 -0.2281 -0.4515  0.4477
  101CHL1  H27A13732   4.348   4.428  15.461 -0.4242 -1.4487  0.4333
  101CHL1  H27B13733   4.187   4.448  15.560  1.7533 -0.3453  1.5557
  101CHL1  H27C13734   4.191   4.381  15.389 -0.2226  2.0263 -2.0845
  102CHL1    C313735   3.296   5.011  16.876  0.1827 -0.2102 -0.2118
  102CHL1    H313736   3.405   5.027  16.864 -0.1417  4.3454  0.8486
  102CHL1    O313737   3.263   4.990  17.014  0.5015  0.6828  0.0430
  102CHL1   H3'13738   3.295   4.902  17.037  0.3694  0.7114  0.3451
  102CHL1    C413739   3.240   5.148  16.831 -0.1455  0.2240 -0.5411
  102CHL1   H4A13740   3.134   5.151  16.863  0.9282 -0.7807  3.7970
  102CHL1   H4B13741   3.295   5.225  16.890  0.5374 -1.1059  0.6134
  102CHL1    C513742   3.265   5.161  16.680 -0.0565 -0.2017  0.2254
  102CHL1    C613743   3.330   5.266  16.639  0.9905 -0.6041 -0.4816
  102CHL1    H613744   3.360   5.352  16.701  3.1456 -1.4748 -0.2179
  102CHL1    C713745   3.363   5.288  16.497  0.3941 -0.4861 -0.0639
  102CHL1   H7A13746   3.371   5.395  16.469  0.2818 -0.7082 -0.9670
  102CHL1   H7B13747   3.470   5.255  16.498  0.9893  1.2254  2.4262
  102CHL1    C813748   3.266   5.211  16.397  0.2701 -0.2701  0.2766
  102CHL1    H813749   3.161   5.246  16.407  0.9270  2.3484 -1.0514
  102CHL1   C1413750   3.318   5.232  16.260 -0.4927 -0.4935  0.4501
  102CHL1   H1413751   3.418   5.183  16.262  0.5969  1.5387 -1.0225
  102CHL1   C1513752   3.340   5.375  16.205 -0.1553  0.0908  1.1693
  102CHL1  H15A13753   3.255   5.442  16.230 -1.0128 -0.2906 -0.5717
  102CHL1  H15B13754   3.436   5.426  16.226 -0.0903  1.5802 -2.1076
  102CHL1   C1613755   3.345   5.359  16.048  0.4544 -0.2262 -0.5143
  102CHL1  H16A13756   3.263   5.424  16.010 -0.6477 -1.0467  0.3734
  102CHL1  H16B13757   3.443   5.379  16.000  0.5306  0.5741 -0.0424
  102CHL1   C1713758   3.304   5.216  16.017 -0.2069 -0.0293  0.0129
  102CHL1   H1713759   3.398   5.157  16.018 -0.0088  0.2812  1.3793
  102CHL1   C1313760   3.236   5.160  16.150  0.3006  0.6282  0.0945
  102CHL1   C1813761   3.084   5.196  16.151  0.4574  0.8409 -0.5625
  102CHL1  H18A13762   3.027   5.142  16.072 -0.3965  0.9147 -0.0133
  102CHL1  H18B13763   3.032   5.159  16.242 -0.7103 -2.7476 -2.4806
  102CHL1  H18C13764   3.068   5.305  16.135 -1.0116  0.6773 -0.4049
  102CHL1   C1213765   3.238   5.006  16.179  0.7782  0.6775 -0.2036
  102CHL1  H12A13766   3.172   4.949  16.111  1.5949 -2.4089  1.3913
  102CHL1  H12B13767   3.342   4.979  16.150  0.6464 -0.3197  0.2455
  102CHL1   C1113768   3.199   4.971  16.325 -0.2575  0.6153 -0.5723
  102CHL1  H11A13769   3.090   4.984  16.341 -0.1119  0.0900  0.9751
  102CHL1  H11B13770   3.239   4.869  16.342  0.5817  1.0268  0.0040
  102CHL1    C913771   3.264   5.063  16.428  0.2002  0.5226  0.5619
  102CHL1    H913772   3.370   5.033  16.426 -0.0027 -0.1647 -0.6564
  102CHL1   C1013773   3.223   5.041  16.580  0.5652 -0.5258 -0.4330
  102CHL1   C1913774   3.067   5.043  16.603 -0.1534 -0.0129  0.1974
  102CHL1  H19A13775   3.028   4.953  16.550 -0.0454 -0.8067  1.4119
  102CHL1  H19B13776   3.040   5.021  16.708 -0.3562 -2.2322 -0.2623
  102CHL1  H19C13777   3.005   5.130  16.571 -2.1496 -1.6377 -0.5899
  102CHL1    C113778   3.277   4.910  16.639 -0.0160  0.7290  0.2461
  102CHL1   H1A13779   3.242   4.822  16.581  1.9968 -0.8595  1.2865
  102CHL1   H1B13780   3.387   4.896  16.633 -0.1591 -0.7448  0.6473
  102CHL1    C213781   3.249   4.892  16.792  0.7091  0.4852  0.0561
  102CHL1   H2A13782   3.292   4.796  16.829  2.7796  1.5394  0.5772
  102CHL1   H2B13783   3.141   4.885  16.815  0.6971 -1.1416 -0.4130
  102CHL1   C2013784   3.240   5.191  15.882  0.0228  0.1326 -0.2269
  102CHL1   H2013785   3.130   5.201  15.892 -0.2386 -1.2950 -1.2921
  102CHL1   C2113786   3.259   5.038  15.847 -0.3549 -0.5296  0.3446
  102CHL1  H21A13787   3.195   4.966  15.904  0.2399 -0.7492  0.7517
  102CHL1  H21B13788   3.364   5.005  15.866 -0.4549 -3.0314 -2.5947
  102CHL1  H21C13789   3.250   5.009  15.740  0.9562  1.8392 -0.4627
  102CHL1   C2213790   3.300   5.272  15.764 -0.8022  0.1037 -0.3829
  102CHL1  H22A13791   3.275   5.380  15.773  0.3055  0.2539  1.1422
  102CHL1  H22B13792   3.411   5.266  15.771 -0.6805  1.6153 -0.6225
  102CHL1   C2313793   3.274   5.241  15.615 -0.1095  0.0005  0.4015
  102CHL1  H23A13794   3.344   5.159  15.587  0.5950  0.1356  1.6889
  102CHL1  H23B13795   3.171   5.202  15.605 -0.3546  0.7443 -0.0163
  102CHL1   C2413796   3.289   5.350  15.505 -0.6376 -0.1840 -0.4797
  102CHL1  H24A13797   3.227   5.437  15.535  0.1192  0.2943 -0.2703
  102CHL1  H24B13798   3.392   5.387  15.527 -1.4616  0.6921  2.2839
  102CHL1   C2513799   3.275   5.298  15.363 -0.2092  0.8908 -0.0711
  102CHL1   H2513800   3.323   5.199  15.350 -1.3779 -0.0049  1.9648
  102CHL1   C2613801   3.129   5.275  15.338 -0.0021 -0.9405  0.0783
  102CHL1  H26A13802   3.111   5.234  15.236 -2.1401 -2.5083  1.0125
  102CHL1  H26B13803   3.097   5.188  15.399  0.1235 -0.7758  0.3813
  102CHL1  H26C13804   3.069   5.368  15.340 -1.1904 -1.6921  1.8440
  102CHL1   C2713805   3.360   5.384  15.267  0.5231  0.4707  0.1256
  102CHL1  H27A13806   3.361   5.349  15.162  1.9607 -0.9311  0.5668
  102CHL1  H27B13807   3.313   5.485  15.264 -0.6629 -0.0471  0.6849
  102CHL1  H27C13808   3.464   5.398  15.305  1.4921  0.2235 -2.2478
  103CHL1    C313809   2.264   3.216  17.109  0.5936 -0.2743 -0.3994
  103CHL1    H313810   2.239   3.319  17.076 -1.6806 -0.4801  0.4762
  103CHL1    O313811   2.234   3.217  17.248  0.0878  0.1430  0.5236
  103CHL1   H3'13812   2.142   3.241  17.254 -0.0768 -0.2773 -0.2083
  103CHL1    C413813   2.153   3.117  17.052 -0.5832 -0.4603 -0.0266
  103CHL1   H4A13814   2.173   3.012  17.082 -1.1877 -1.2368 -2.1354
  103CHL1   H4B13815   2.046   3.144  17.069 -0.4544  0.6523 -0.8715
  103CHL1    C513816   2.180   3.112  16.900 -0.1833 -0.2291  0.6417
  103CHL1    C613817   2.089   3.129  16.803  0.5375  0.1121  0.3969
  103CHL1    H613818   1.982   3.147  16.823 -0.4113 -1.6712 -2.4295
  103CHL1    C713819   2.105   3.102  16.651 -0.1247 -0.2003  0.1421
  103CHL1   H7A13820   2.018   3.047  16.610  0.8444  0.5033 -3.1672
  103CHL1   H7B13821   2.107   3.203  16.604 -1.4614 -0.4943 -0.5802
  103CHL1    C813822   2.231   3.020  16.625  1.2417 -0.5188  0.9673
  103CHL1    H813823   2.215   2.914  16.655 -0.3735 -0.3467  0.8069
  103CHL1   C1413824   2.261   3.031  16.477 -0.2767 -0.0080  0.1156
  103CHL1   H1413825   2.273   3.139  16.456 -0.6434 -0.0691 -0.4557
  103CHL1   C1513826   2.154   2.982  16.378 -1.0569 -0.5172 -0.3121
  103CHL1  H15A13827   2.123   2.878  16.400 -1.3052 -0.7866 -1.8099
  103CHL1  H15B13828   2.064   3.045  16.364  0.6317  1.9578 -0.7670
  103CHL1   C1613829   2.234   2.966  16.243 -0.1051  0.4287 -0.4589
  103CHL1  H16A13830   2.223   2.861  16.208  2.4498  0.2940 -1.0338
  103CHL1  H16B13831   2.195   3.044  16.173 -1.5049  1.2352  1.1374
  103CHL1   C1713832   2.390   2.979  16.278  0.5731 -0.5447 -0.8832
  103CHL1   H1713833   2.422   3.083  16.254 -0.8284  0.4119  1.0475
  103CHL1   C1313834   2.392   2.968  16.431  0.1095 -0.5711 -0.3838
  103CHL1   C1813835   2.380   2.818  16.471  0.2705 -0.3503 -0.6548
  103CHL1  H18A13836   2.355   2.804  16.579  0.4003  1.4578 -0.3590
  103CHL1  H18B13837   2.304   2.765  16.410 -0.2123  0.0285 -0.3932
  103CHL1  H18C13838   2.481   2.773  16.459  2.5795  3.9720  0.2644
  103CHL1   C1213839   2.504   3.041  16.503 -0.6411  0.0003  0.0523
  103CHL1  H12A13840   2.604   3.007  16.468 -0.4152  0.3902  0.3208
  103CHL1  H12B13841   2.495   3.150  16.485 -0.6736  0.1993  1.2258
  103CHL1   C1113842   2.481   3.029  16.657  0.1599  0.4122 -0.0435
  103CHL1  H11A13843   2.488   2.919  16.670  1.5442  0.6171  1.1248
  103CHL1  H11B13844   2.567   3.072  16.712  2.1458 -1.4340 -1.5026
  103CHL1    C913845   2.348   3.084  16.707  0.3417  0.5664  0.3815
  103CHL1    H913846   2.351   3.192  16.684  1.6080  0.5331  0.3107
  103CHL1   C1013847   2.323   3.070  16.863 -0.1903  0.4308  0.3822
  103CHL1   C1913848   2.346   2.924  16.909  0.1372 -0.1290 -0.5608
  103CHL1  H19A13849   2.444   2.885  16.874  0.4628 -1.4553  1.6177
  103CHL1  H19B13850   2.337   2.916  17.020  0.9469 -0.4115 -0.5084
  103CHL1  H19C13851   2.267   2.858  16.868  0.2905  0.1487 -1.3175
  103CHL1    C113852   2.434   3.153  16.932  0.3086  0.3071  0.9327
  103CHL1   H1A13853   2.539   3.122  16.914  0.0854 -0.1030  0.3342
  103CHL1   H1B13854   2.420   3.256  16.891  2.0016  1.4233  2.9437
  103CHL1    C213855   2.406   3.180  17.081 -0.2994  0.3376 -0.4674
  103CHL1   H2A13856   2.478   3.259  17.110  1.7284 -1.8626  0.8166
  103CHL1   H2B13857   2.443   3.088  17.131 -0.3151 -0.2228 -1.4629
  103CHL1   C2013858   2.482   2.880  16.199 -0.2743 -0.1167 -0.0931
  103CHL1   H2013859   2.436   2.783  16.229 -0.6489  0.3879  1.0289
  103CHL1   C2113860   2.638   2.878  16.231  0.0500  0.6758  0.0332
  103CHL1  H21A13861   2.659   2.825  16.326  1.1359 -0.3981 -0.7735
  103CHL1  H21B13862   2.680   2.981  16.236 -0.0015  0.7853 -1.2651
  103CHL1  H21C13863   2.704   2.831  16.155 -0.8765  1.0251 -1.0194
  103CHL1   C2213864   2.458   2.903  16.050 -0.0530  0.8679  0.9706
  103CHL1  H22A13865   2.347   2.899  16.036 -0.3903 -1.1066  3.5640
  103CHL1  H22B13866   2.500   3.003  16.025  0.3794  0.7394  1.1864
  103CHL1   C2313867   2.525   2.798  15.956  0.1379  0.7043 -0.7129
  103CHL1  H23A13868   2.633   2.810  15.978 -0.4627  2.9954  1.4505
  103CHL1  H23B13869   2.491   2.694  15.979  0.5767  0.2680 -1.9602
  103CHL1   C2413870   2.506   2.825  15.812 -0.2676  0.4352 -0.1843
  103CHL1  H24A13871   2.398   2.842  15.794 -0.6277  0.2511  1.5928
  103CHL1  H24B13872   2.552   2.925  15.795 -0.4580  0.6096  0.3145
  103CHL1   C2513873   2.562   2.716  15.714 -0.9331  0.3542  0.3579
  103CHL1   H2513874   2.672   2.733  15.717 -0.8539  0.0215 -0.4341
  103CHL1   C2613875   2.524   2.571  15.750 -0.1345 -0.6812 -0.3963
  103CHL1  H26A13876   2.416   2.559  15.727 -0.2270 -2.4684  0.8129
  103CHL1  H26B13877   2.574   2.499  15.682  0.8987 -1.5852  1.2572
  103CHL1  H26C13878   2.548   2.545  15.855  2.8579 -0.0551 -0.8283
  103CHL1   C2713879   2.512   2.747  15.571  0.2986 -0.2016 -0.2905
  103CHL1  H27A13880   2.552   2.668  15.503 -0.2745 -0.6549 -0.1146
  103CHL1  H27B13881   2.401   2.739  15.570  0.2956 -0.5080  0.7615
  103CHL1  H27C13882   2.557   2.841  15.533  0.2263  0.8994  2.1594
  104CHL1    C313883   6.931   6.611  16.939  0.1587 -0.2594 -0.1206
  104CHL1    H313884   7.032   6.599  16.894 -1.0203 -2.1450 -2.5674
  104CHL1    O313885   6.923   6.582  17.077 -0.3139  0.3253 -0.4472
  104CHL1   H3'13886   6.831   6.587  17.103 -0.5502 -0.3945 -1.0841
  104CHL1    C413887   6.891   6.757  16.915 -0.4604  0.3747  0.1559
  104CHL1   H4A13888   6.798   6.783  16.968  0.2147  2.0858  0.5773
  104CHL1   H4B13889   6.964   6.818  16.972  0.4436  0.0890 -0.6611
  104CHL1    C513890   6.883   6.803  16.777 -0.3974 -0.2900  0.2557
  104CHL1    C613891   6.959   6.908  16.736  0.6268 -0.1591  0.2795
  104CHL1    H613892   7.019   6.954  16.816  0.6200  0.9372 -0.3198
  104CHL1    C713893   6.942   6.958  16.597 -0.0270 -0.0634 -0.0837
  104CHL1   H7A13894   6.944   7.069  16.605 -1.5846  0.2123 -2.6219
  104CHL1   H7B13895   7.029   6.938  16.531 -0.2083 -0.0721 -0.3205
  104CHL1    C813896   6.806   6.903  16.534  0.4951 -1.1436  0.1877
  104CHL1    H813897   6.715   6.940  16.586 -0.9955 -1.7709 -1.8527
  104CHL1   C1413898   6.814   6.941  16.388 -0.0487 -0.5426  0.2273
  104CHL1   H1413899   6.905   6.903  16.336 -1.2611 -1.4054 -1.3493
  104CHL1   C1513900   6.816   7.096  16.357 -0.3752 -0.2757  0.0539
  104CHL1  H15A13901   6.731   7.143  16.411 -0.7587 -0.5311 -0.3148
  104CHL1  H15B13902   6.912   7.137  16.393  0.6659 -2.4519 -0.0473
  104CHL1   C1613903   6.796   7.101  16.205  0.0064 -0.4571  0.0807
  104CHL1  H16A13904   6.719   7.171  16.165  0.1109 -0.9547 -1.0414
  104CHL1  H16B13905   6.889   7.115  16.147 -0.3180 -0.7113 -0.5115
  104CHL1   C1713906   6.738   6.959  16.164  0.6445 -0.2624 -0.1689
  104CHL1   H1713907   6.822   6.903  16.118  0.7890 -0.2400  0.0610
  104CHL1   C1313908   6.707   6.885  16.299  0.4601  0.0139  0.5624
  104CHL1   C1813909   6.568   6.930  16.367 -0.5508 -0.0117 -0.0764
  104CHL1  H18A13910   6.555   6.900  16.473  1.5399 -1.4529 -0.1698
  104CHL1  H18B13911   6.550   7.037  16.347  0.0918  0.2691  0.7950
  104CHL1  H18C13912   6.490   6.870  16.314  0.2914  2.1635 -4.1596
  104CHL1   C1213913   6.716   6.729  16.308 -0.0432  0.1346 -0.3248
  104CHL1  H12A13914   6.644   6.674  16.244 -2.0477  1.1551  0.9412
  104CHL1  H12B13915   6.820   6.710  16.272 -0.4945 -2.9728 -0.2764
  104CHL1   C1113916   6.706   6.676  16.451 -0.1100 -0.2329 -0.1806
  104CHL1  H11A13917   6.599   6.682  16.480  0.5981 -0.8870  2.9698
  104CHL1  H11B13918   6.731   6.568  16.451  1.0331  0.0122  0.9144
  104CHL1    C913919   6.801   6.755  16.546 -0.7277 -0.3441 -0.5495
  104CHL1    H913920   6.907   6.734  16.520 -0.2358  1.4503 -0.1461
  104CHL1   C1013921   6.788   6.710  16.693  0.8602  0.0206 -0.1041
  104CHL1   C1913922   6.635   6.728  16.735 -0.1374 -0.6023  0.2286
  104CHL1  H19A13923   6.604   6.833  16.717  0.9656 -0.2882  0.0680
  104CHL1  H19B13924   6.576   6.654  16.678  0.3464 -0.1202 -0.9268
  104CHL1  H19C13925   6.623   6.708  16.844 -1.5295  0.3397  0.2731
  104CHL1    C113926   6.823   6.560  16.716 -0.1668  0.5157 -0.1642
  104CHL1   H1A13927   6.752   6.491  16.665  2.2144 -2.6928  0.5176
  104CHL1   H1B13928   6.926   6.537  16.681 -0.1546  0.2889  0.0143
  104CHL1    C213929   6.829   6.515  16.867 -0.6930 -0.2753  0.0302
  104CHL1   H2A13930   6.860   6.409  16.881  1.1616  0.4970  2.4400
  104CHL1   H2B13931   6.728   6.529  16.911 -0.4050  0.5120  0.4505
  104CHL1   C2013932   6.627   6.967  16.050  0.2018 -1.4752  0.1521
  104CHL1   H2013933   6.538   7.015  16.096  2.2913  3.8046 -0.5944
  104CHL1   C2113934   6.587   6.821  16.011  0.6966  0.0266  0.8441
  104CHL1  H21A13935   6.673   6.768  15.964 -1.9754 -3.3707 -0.6735
  104CHL1  H21B13936   6.502   6.827  15.940 -0.1489  1.8972  1.9327
  104CHL1  H21C13937   6.538   6.778  16.101 -0.2803  0.7717  0.6856
  104CHL1   C2213938   6.670   7.058  15.928  0.0449 -0.1869 -0.3561
  104CHL1  H22A13939   6.590   7.055  15.850 -0.1752 -1.0851 -0.1161
  104CHL1  H22B13940   6.663   7.163  15.961 -0.5906  0.4309 -2.3070
  104CHL1   C2313941   6.807   7.019  15.863  0.7311  0.1637 -0.3915
  104CHL1  H23A13942   6.883   7.020  15.944 -0.0076  4.4442  0.5206
  104CHL1  H23B13943   6.793   6.916  15.824  2.4007  0.9246 -3.2376
  104CHL1   C2413944   6.840   7.093  15.738  0.2371  0.2677 -0.0828
  104CHL1  H24A13945   6.747   7.077  15.681 -1.4867 -1.5958  2.9667
  104CHL1  H24B13946   6.861   7.199  15.763 -1.4584  0.4959  0.5030
  104CHL1   C2513947   6.959   7.023  15.673  0.0108  0.1095  0.2489
  104CHL1   H2513948   6.943   6.913  15.673  1.3413 -0.2065 -3.2614
  104CHL1   C2613949   6.979   7.065  15.525 -0.4313  0.2278 -0.1010
  104CHL1  H26A13950   6.897   7.021  15.465 -1.4319 -0.9572  2.0258
  104CHL1  H26B13951   6.997   7.173  15.509 -1.0719  0.1936 -1.1070
  104CHL1  H26C13952   7.072   7.013  15.493  1.0185  1.1407  2.3620
  104CHL1   C2713953   7.084   7.059  15.749 -0.8450  0.6774 -0.3219
  104CHL1  H27A13954   7.079   7.017  15.852  1.5857  2.4798  0.6112
  104CHL1  H27B13955   7.176   7.022  15.700 -0.4792  1.6526 -0.3865
  104CHL1  H27C13956   7.099   7.167  15.768 -0.5753  0.6577 -0.4185
  105CHL1    C313957   6.858   3.738  16.636 -0.8961  0.1200  0.6118
  105CHL1    H313958   6.773   3.808  16.620  0.0021  1.1244  0.0577
  105CHL1    O313959   6.883   3.713  16.776 -0.0824 -0.2069  0.0073
  105CHL1   H3'13960   6.957   3.770  16.799 -0.0715 -0.8517  1.7644
  105CHL1    C413961   6.823   3.607  16.565  0.4740  0.0372  0.6777
  105CHL1   H4A13962   6.903   3.533  16.589 -0.2779 -0.6939  0.9778
  105CHL1   H4B13963   6.729   3.571  16.612  1.6585 -0.8110  2.5017
  105CHL1    C513964   6.798   3.624  16.415 -0.2473  0.2681  0.4189
  105CHL1    C613965   6.680   3.612  16.356 -0.2953  0.0110  0.2237
  105CHL1    H613966   6.590   3.584  16.413 -0.4078  0.7928  0.4299
  105CHL1    C713967   6.655   3.640  16.215 -0.7281  0.1061 -0.5106
  105CHL1   H7A13968   6.588   3.565  16.166 -0.8804  0.8395 -1.4481
  105CHL1   H7B13969   6.603   3.737  16.202 -0.6422 -0.1588 -3.4285
  105CHL1    C813970   6.785   3.652  16.130 -0.1213 -0.0373  0.8136
  105CHL1    H813971   6.831   3.552  16.116 -0.1359 -0.2268  2.0342
  105CHL1   C1413972   6.756   3.712  15.994 -0.4140  0.6189  0.3315
  105CHL1   H1413973   6.721   3.816  16.013  0.8393  1.0670  0.2775
  105CHL1   C1513974   6.649   3.641  15.911  0.6846 -0.1602 -0.6853
  105CHL1  H15A13975   6.676   3.538  15.940  1.6793  0.4020  0.4933
  105CHL1  H15B13976   6.551   3.680  15.945  1.4032  1.4059 -0.2973
  105CHL1   C1613977   6.679   3.678  15.767  0.4254  0.0361  0.2314
  105CHL1  H16A13978   6.691   3.580  15.717  1.8106  0.5293 -0.4565
  105CHL1  H16B13979   6.590   3.727  15.722 -1.2448 -1.1713  2.0819
  105CHL1   C1713980   6.805   3.764  15.766  0.1177 -0.2700  0.3919
  105CHL1   H1713981   6.767   3.867  15.777 -1.2814 -0.6172 -0.9176
  105CHL1   C1313982   6.871   3.727  15.897 -0.1269 -0.5626  0.4266
  105CHL1   C1813983   6.940   3.590  15.873  0.4124 -0.5242  1.0388
  105CHL1  H18A13984   7.035   3.603  15.817 -0.4017 -0.7151 -0.4401
  105CHL1  H18B13985   6.964   3.531  15.964 -0.0844 -2.3985  0.0086
  105CHL1  H18C13986   6.889   3.523  15.800  1.6261  0.1564 -0.4986
  105CHL1   C1213987   6.965   3.820  15.966 -0.2662 -0.0629  0.9947
  105CHL1  H12A13988   7.047   3.839  15.893 -1.8565  0.5754 -0.7013
  105CHL1  H12B13989   6.918   3.919  15.986  0.0562  0.4468 -0.5834
  105CHL1   C1113990   7.005   3.774  16.108 -0.2290 -0.8833  0.2690
  105CHL1  H11A13991   7.075   3.690  16.087 -0.3431 -0.6335 -1.2579
  105CHL1  H11B13992   7.054   3.860  16.157 -0.2263 -0.1046 -1.0645
  105CHL1    C913993   6.887   3.739  16.200 -0.1639 -0.0970  0.2005
  105CHL1    H913994   6.841   3.839  16.213  0.6094 -0.0869  3.7950
  105CHL1   C1013995   6.922   3.687  16.338 -0.3835  0.4617  0.4687
  105CHL1   C1913996   7.027   3.571  16.322  0.0545 -0.0761 -0.3159
  105CHL1  H19A13997   7.124   3.608  16.281 -0.0380  0.9781  0.3640
  105CHL1  H19B13998   7.065   3.539  16.422  2.1740 -0.0694 -1.0533
  105CHL1  H19C13999   6.986   3.485  16.266  0.2520  0.2899 -1.0377
  105CHL1    C114000   6.968   3.806  16.422 -0.0951  0.0993  0.6367
  105CHL1   H1A14001   7.063   3.839  16.376  0.5541 -0.2696  1.6671
  105CHL1   H1B14002   6.892   3.887  16.418 -0.4995 -0.0488  3.3592
  105CHL1    C214003   6.987   3.791  16.573 -0.2029  0.2245  0.3410
  105CHL1   H2A14004   6.997   3.895  16.609  0.7023  0.2772 -0.0224
  105CHL1   H2B14005   7.069   3.718  16.588 -2.1811 -2.5531 -1.3172
  105CHL1   C2014006   6.886   3.756  15.638  0.1586  0.2128  0.9488
  105CHL1   H2014007   6.931   3.655  15.631 -0.3709 -0.0065  0.5684
  105CHL1   C2114008   6.992   3.873  15.634  0.2872 -0.2209 -0.3138
  105CHL1  H21A14009   7.049   3.886  15.540  0.2346  1.7987 -0.1172
  105CHL1  H21B14010   7.078   3.856  15.702 -1.8173 -0.7328  2.3826
  105CHL1  H21C14011   6.942   3.968  15.662  2.6232  1.1179 -0.3815
  105CHL1   C2214012   6.794   3.770  15.513  0.6226 -0.6316  1.1655
  105CHL1  H22A14013   6.700   3.713  15.526  0.0362  0.1583  0.5072
  105CHL1  H22B14014   6.769   3.877  15.496  0.8827 -0.5050  1.5616
  105CHL1   C2314015   6.844   3.723  15.377  0.1344 -0.0413  0.7788
  105CHL1  H23A14016   6.936   3.782  15.355  0.1152 -0.2224  0.1803
  105CHL1  H23B14017   6.873   3.616  15.370  0.5576  0.1571 -2.3892
  105CHL1   C2414018   6.733   3.753  15.267 -0.2620  0.5512 -0.0875
  105CHL1  H24A14019   6.646   3.692  15.301 -0.6241 -0.0940 -2.0389
  105CHL1  H24B14020   6.714   3.860  15.289  0.2617  0.4093  1.1725
  105CHL1   C2514021   6.763   3.733  15.124 -0.3431  0.0363  0.0950
  105CHL1   H2514022   6.829   3.823  15.115 -0.7832  0.3321 -0.2169
  105CHL1   C2614023   6.842   3.603  15.079  0.2662 -0.4105 -0.3224
  105CHL1  H26A14024   6.775   3.517  15.060  1.0994 -1.1116 -0.1487
  105CHL1  H26B14025   6.902   3.616  14.986  3.0382 -0.2320  1.3766
  105CHL1  H26C14026   6.919   3.592  15.159 -0.1166  1.6261  0.3896
  105CHL1   C2714027   6.642   3.747  15.037 -0.3962  0.1538 -0.3630
  105CHL1  H27A14028   6.602   3.851  15.042  0.7500  0.5334  2.8090
  105CHL1  H27B14029   6.682   3.732  14.934 -1.1716  2.1634 -1.0136
  105CHL1  H27C14030   6.565   3.668  15.054 -1.1537  0.8408 -0.5016
  106CHL1    C314031   1.295   4.474  17.057  0.7177  0.2382  0.2365
  106CHL1    H314032   1.401   4.504  17.047  1.0658 -0.9414  0.2474
  106CHL1    O314033   1.271   4.438  17.192  0.5944  0.3308 -0.1788
  106CHL1   H3'14034   1.176   4.444  17.203  0.5260 -0.2678 -0.3943
  106CHL1    C414035   1.207   4.597  17.022 -0.0422 -0.4097  0.0139
  106CHL1   H4A14036   1.106   4.565  17.055 -0.2988  1.0844  0.7966
  106CHL1   H4B14037   1.237   4.674  17.097 -0.6761 -0.0307 -0.1119
  106CHL1    C514038   1.223   4.649  16.880  0.8839  0.1837  0.1988
  106CHL1    C614039   1.266   4.770  16.853 -0.6772 -0.3355  0.1876
  106CHL1    H614040   1.282   4.832  16.943 -1.8252  2.9417 -1.7174
  106CHL1    C714041   1.285   4.831  16.716  0.4365  0.1729 -0.3467
  106CHL1   H7A14042   1.238   4.932  16.714 -0.9866 -0.4840 -1.6735
  106CHL1   H7B14043   1.391   4.858  16.693  0.8727  0.0766  1.4413
  106CHL1    C814044   1.232   4.743  16.606  0.2884  0.8379 -0.2930
  106CHL1    H814045   1.122   4.761  16.604  0.0058 -0.5746  0.3986
  106CHL1   C1414046   1.303   4.787  16.476 -0.7266  0.3874  0.0719
  106CHL1   H1414047   1.409   4.758  16.491 -1.1177 -1.8338 -1.1157
  106CHL1   C1514048   1.297   4.928  16.424  0.2254 -0.0167 -0.1781
  106CHL1  H15A14049   1.193   4.965  16.436 -0.4107 -1.4778 -0.9969
  106CHL1  H15B14050   1.362   4.986  16.493  2.2866 -1.5157 -0.7637
  106CHL1   C1614051   1.345   4.929  16.282 -0.1094  0.2395 -0.3927
  106CHL1  H16A14052   1.271   4.986  16.223 -2.7700 -1.9849  0.5730
  106CHL1  H16B14053   1.450   4.960  16.265  0.5855 -1.5791  0.2869
  106CHL1   C1714054   1.350   4.773  16.239 -0.1396 -0.1978  0.1753
  106CHL1   H1714055   1.458   4.749  16.249 -0.3057 -1.5925 -1.0773
  106CHL1   C1314056   1.273   4.701  16.350 -0.0909  0.0201 -0.7125
  106CHL1   C1814057   1.118   4.708  16.323  0.0850  0.0850  0.5119
  106CHL1  H18A14058   1.066   4.657  16.407  0.7350 -1.1888  0.1637
  106CHL1  H18B14059   1.084   4.814  16.330  1.1684  0.4073  1.1844
  106CHL1  H18C14060   1.087   4.676  16.221 -2.8029 -3.1077  2.2002
  106CHL1   C1214061   1.308   4.552  16.381  0.0527 -0.6060  0.3914
  106CHL1  H12A14062   1.291   4.478  16.300  3.2017 -1.2425  0.2002
  106CHL1  H12B14063   1.417   4.561  16.401 -0.3065  2.0898  1.6473
  106CHL1   C1114064   1.248   4.498  16.509  0.8822  0.2232  0.1191
  106CHL1  H11A14065   1.138   4.482  16.508  0.9509 -0.4772  1.2364
  106CHL1  H11B14066   1.298   4.401  16.531  0.9694  0.3453  0.4777
  106CHL1    C914067   1.266   4.596  16.637  0.1711 -0.1588  0.0566
  106CHL1    H914068   1.376   4.589  16.639  0.1947 -2.2705 -2.8477
  106CHL1   C1014069   1.198   4.545  16.771 -0.4447 -0.4114 -0.0896
  106CHL1   C1914070   1.043   4.509  16.754 -0.7193  0.4238  0.0776
  106CHL1  H19A14071   0.983   4.598  16.724  0.9059  1.2578 -0.8408
  106CHL1  H19B14072   1.024   4.416  16.696  0.1747 -0.6606  1.4478
  106CHL1  H19C14073   1.016   4.472  16.854  1.8780 -2.2498 -0.0762
  106CHL1    C114074   1.267   4.409  16.813  0.1963  0.3406 -0.3849
  106CHL1   H1A14075   1.228   4.325  16.751 -1.2221  0.7447 -0.0834
  106CHL1   H1B14076   1.375   4.414  16.789 -0.1087  1.1734 -1.7576
  106CHL1    C214077   1.256   4.361  16.962 -0.0327 -0.1489 -0.7900
  106CHL1   H2A14078   1.321   4.271  16.965 -0.8236 -0.7192 -0.2609
  106CHL1   H2B14079   1.152   4.334  16.992  0.4156 -1.1459 -0.0719
  106CHL1   C2014080   1.309   4.752  16.090  0.0990 -0.1656 -0.0074
  106CHL1   H2014081   1.207   4.796  16.091 -0.4061 -1.3040  0.4902
  106CHL1   C2114082   1.305   4.598  16.069 -0.2989  0.1550 -0.0052
  106CHL1  H21A14083   1.307   4.575  15.961 -0.5477 -0.5783  0.1462
  106CHL1  H21B14084   1.218   4.547  16.115 -2.2656 -0.0639 -3.6013
  106CHL1  H21C14085   1.396   4.550  16.110 -1.6114 -2.5717 -0.1105
  106CHL1   C2214086   1.395   4.834  15.988  0.3538 -0.3056 -0.7596
  106CHL1  H22A14087   1.353   4.806  15.890  0.2890 -2.2532 -0.2134
  106CHL1  H22B14088   1.386   4.944  16.004  0.0444 -0.7176  2.8319
  106CHL1   C2314089   1.553   4.812  15.991  0.4486  0.7846 -0.1062
  106CHL1  H23A14090   1.584   4.834  16.095 -0.7817 -4.4660  1.6599
  106CHL1  H23B14091   1.567   4.702  15.981 -0.0130  0.7065  0.0870
  106CHL1   C2414092   1.633   4.889  15.888  0.7382  0.0638  0.5157
  106CHL1  H24A14093   1.569   4.874  15.798 -1.2532 -2.0519  2.1767
  106CHL1  H24B14094   1.638   5.000  15.890 -1.6556  0.2872 -1.1532
  106CHL1   C2514095   1.773   4.835  15.859 -0.5157 -0.2595  0.0394
  106CHL1   H2514096   1.769   4.724  15.862  0.3153 -0.3890 -2.0950
  106CHL1   C2614097   1.829   4.870  15.720 -0.4117  0.2219 -0.2491
  106CHL1  H26A14098   1.762   4.843  15.636  0.3275 -0.7292 -0.5590
  106CHL1  H26B14099   1.840   4.980  15.711  1.7655 -0.0006 -0.8137
  106CHL1  H26C14100   1.924   4.815  15.700 -0.7015 -0.1448 -0.6314
  106CHL1   C2714101   1.867   4.865  15.978  0.0497 -0.6680  0.0824
  106CHL1  H27A14102   1.971   4.832  15.956  0.2593 -1.5480  2.2239
  106CHL1  H27B14103   1.881   4.976  15.980  1.7977 -0.4571 -5.4662
  106CHL1  H27C14104   1.833   4.822  16.074 -0.3826 -1.6369 -0.4871
  107CHL1    C314105   4.080   7.317  16.874 -0.4892 -0.1608  1.3327
  107CHL1    H314106   4.095   7.427  16.871 -0.4992 -0.1667  1.0265
  107CHL1    O314107   4.041   7.280  17.005  0.1892  0.3720 -0.1842
  107CHL1   H3'14108   3.962   7.226  16.995 -0.6986  1.6735 -0.4397
  107CHL1    C414109   3.968   7.280  16.776  0.1948 -0.2149  0.4392
  107CHL1   H4A14110   3.924   7.181  16.797 -0.9711 -0.0038 -0.9018
  107CHL1   H4B14111   3.878   7.341  16.799  0.5163 -0.0036  1.1564
  107CHL1    C514112   4.000   7.277  16.630 -0.9055  0.1477 -0.2180
  107CHL1    C614113   3.937   7.353  16.538 -0.4026 -0.1495 -0.5168
  107CHL1    H614114   3.845   7.403  16.572 -0.9394 -1.7524  0.5198
  107CHL1    C714115   3.980   7.345  16.395 -0.2107  0.1958 -0.0971
  107CHL1   H7A14116   3.895   7.380  16.333  0.2012  2.6217  0.6017
  107CHL1   H7B14117   4.059   7.422  16.387 -0.2725  0.2658 -0.0339
  107CHL1    C814118   4.052   7.211  16.353  0.6302  0.1529 -1.0079
  107CHL1    H814119   3.976   7.130  16.356  0.8179 -0.0127  1.5526
  107CHL1   C1414120   4.112   7.223  16.217 -0.3178  0.2674  0.2663
  107CHL1   H1414121   4.201   7.289  16.215  1.1443 -1.6124 -1.3155
  107CHL1   C1514122   4.030   7.261  16.096  0.9659 -0.3310  1.6686
  107CHL1  H15A14123   3.934   7.208  16.078  0.5208  0.7759  0.6234
  107CHL1  H15B14124   4.008   7.369  16.089 -1.0344 -0.7876 -0.2532
  107CHL1   C1614125   4.101   7.205  15.972 -0.5012  0.6019  0.6212
  107CHL1  H16A14126   4.031   7.125  15.941 -0.1330 -0.3731  2.2438
  107CHL1  H16B14127   4.122   7.280  15.892 -0.2931 -1.7866 -1.6748
  107CHL1   C1714128   4.231   7.136  16.028  0.2613 -0.3672  0.3845
  107CHL1   H1714129   4.291   7.227  16.048 -1.0460  1.0781 -1.8158
  107CHL1   C1314130   4.183   7.090  16.165 -0.1591  0.5601  0.0811
  107CHL1   C1814131   4.087   6.974  16.155 -0.2769 -0.4423 -0.6637
  107CHL1  H18A14132   3.997   7.001  16.095 -0.1956 -0.4826 -0.8048
  107CHL1  H18B14133   4.136   6.887  16.105 -1.5935 -0.4940 -1.9477
  107CHL1  H18C14134   4.046   6.945  16.255 -1.8342 -1.8645 -1.6455
  107CHL1   C1214135   4.291   7.054  16.271  0.5750  0.0281  0.5051
  107CHL1  H12A14136   4.353   6.966  16.243 -0.0011 -0.0911 -0.4380
  107CHL1  H12B14137   4.356   7.144  16.267 -0.5768  0.8471  0.0178
  107CHL1   C1114138   4.237   7.053  16.413  0.2413 -0.7069 -0.3520
  107CHL1  H11A14139   4.180   6.958  16.424  0.5740 -0.7367  1.4191
  107CHL1  H11B14140   4.319   7.044  16.488 -0.7524 -3.2627  0.5608
  107CHL1    C914141   4.164   7.185  16.454 -0.3488 -0.3360  0.9152
  107CHL1    H914142   4.242   7.262  16.439 -1.4026  0.3107 -1.8621
  107CHL1   C1014143   4.124   7.183  16.600  0.5821 -0.0485  0.2711
  107CHL1   C1914144   4.080   7.041  16.643 -0.0402 -0.1585 -0.5657
  107CHL1  H19A14145   4.031   7.014  16.739 -1.3897 -1.0813 -1.4748
  107CHL1  H19B14146   4.013   6.985  16.574 -0.9876 -2.3139  1.9413
  107CHL1  H19C14147   4.176   6.986  16.650  0.4200  0.8164  1.8035
  107CHL1    C114148   4.243   7.239  16.684 -1.2065  0.4416  0.1309
  107CHL1   H1A14149   4.336   7.177  16.679 -0.4713  1.6068 -1.1807
  107CHL1   H1B14150   4.266   7.344  16.659 -0.2288  1.3622  4.1519
  107CHL1    C214151   4.210   7.244  16.833  0.2211  0.1534 -0.6239
  107CHL1   H2A14152   4.297   7.298  16.876  0.2936 -1.9056  2.0913
  107CHL1   H2B14153   4.186   7.142  16.869  0.6198  0.2669 -0.0146
  107CHL1   C2014154   4.325   7.051  15.935 -0.7318 -0.3293 -1.0898
  107CHL1   H2014155   4.294   6.944  15.935 -1.7690 -0.0439 -2.0143
  107CHL1   C2114156   4.469   7.064  15.992 -0.6873  0.4915 -0.4191
  107CHL1  H21A14157   4.484   7.003  16.084 -0.3334  0.2752 -0.6168
  107CHL1  H21B14158   4.512   7.165  16.009 -1.5323  0.7091  0.5061
  107CHL1  H21C14159   4.537   7.011  15.921 -1.3551 -0.4238 -0.4056
  107CHL1   C2214160   4.312   7.108  15.795  0.1565  0.5324  0.0457
  107CHL1  H22A14161   4.208   7.094  15.758  0.2010 -0.8659  0.3695
  107CHL1  H22B14162   4.328   7.218  15.791 -2.0368  0.8715 -1.6977
  107CHL1   C2314163   4.406   7.044  15.699  0.4297 -0.1454 -0.1950
  107CHL1  H23A14164   4.398   7.108  15.608  0.2593 -0.7180 -0.5909
  107CHL1  H23B14165   4.512   7.046  15.730  0.4262 -2.5358  0.1294
  107CHL1   C2414166   4.371   6.897  15.657 -0.1815 -0.4328  0.2605
  107CHL1  H24A14167   4.413   6.821  15.727 -0.6859 -0.7752  0.1973
  107CHL1  H24B14168   4.262   6.882  15.649 -0.2279 -0.7395  1.3451
  107CHL1   C2514169   4.428   6.866  15.512  0.2715  0.5497  0.5581
  107CHL1   H2514170   4.389   6.938  15.437 -1.1063 -0.4404  0.2956
  107CHL1   C2614171   4.582   6.863  15.528 -0.7517  0.4706 -0.4082
  107CHL1  H26A14172   4.630   6.860  15.428  0.3002 -0.3512  0.1014
  107CHL1  H26B14173   4.617   6.958  15.572  1.2072 -0.4566  0.1634
  107CHL1  H26C14174   4.608   6.781  15.598  0.1372 -0.7628 -2.0911
  107CHL1   C2714175   4.375   6.728  15.466  0.4594 -0.0142 -0.0453
  107CHL1  H27A14176   4.410   6.708  15.363 -0.4794 -1.0332 -0.1752
  107CHL1  H27B14177   4.411   6.647  15.533 -0.2352 -0.0706  0.2694
  107CHL1  H27C14178   4.265   6.718  15.453  0.6246 -0.5648 -1.1542
  108CHL1    C314179   6.454   3.111  16.632 -0.0852 -0.2628 -0.0590
  108CHL1    H314180   6.408   3.032  16.569 -2.0534 -0.7325  1.8573
  108CHL1    O314181   6.395   3.112  16.762  0.1043  0.1632 -0.3801
  108CHL1   H3'14182   6.456   3.169  16.810  0.2794 -0.7201  0.4805
  108CHL1    C414183   6.603   3.077  16.653  0.4560  0.2163 -0.7700
  108CHL1   H4A14184   6.661   3.151  16.712  0.0962 -0.2432  0.1687
  108CHL1   H4B14185   6.608   2.987  16.717 -1.3415  1.4503  1.2122
  108CHL1    C514186   6.674   3.053  16.517  0.2536 -0.0281  0.2088
  108CHL1    C614187   6.734   2.938  16.480  0.3723 -0.4023  0.3615
  108CHL1    H614188   6.746   2.852  16.547 -1.1416 -1.5831 -0.8103
  108CHL1    C714189   6.797   2.906  16.353  0.2498  0.0082 -0.0813
  108CHL1   H7A14190   6.905   2.880  16.360  0.6731  1.0351 -2.0262
  108CHL1   H7B14191   6.736   2.824  16.309 -1.5521  0.4122  1.5380
  108CHL1    C814192   6.801   3.029  16.259  0.2157  1.0273  0.4296
  108CHL1    H814193   6.888   3.089  16.294 -1.9226  3.6277  1.6782
  108CHL1   C1414194   6.819   2.990  16.110 -0.0598 -0.8995  0.6800
  108CHL1   H1414195   6.722   2.941  16.088 -0.6064 -0.5258  2.1378
  108CHL1   C1514196   6.932   2.892  16.079  0.2212 -0.0137  0.1840
  108CHL1  H15A14197   7.017   2.922  16.144  1.1097 -1.1656 -0.4211
  108CHL1  H15B14198   6.897   2.790  16.103  2.3819 -0.6275  0.9433
  108CHL1   C1614199   6.968   2.927  15.933  0.2395 -0.0981  0.5668
  108CHL1  H16A14200   7.072   2.962  15.918 -0.1862  0.6482 -0.7627
  108CHL1  H16B14201   6.959   2.831  15.877  0.5506  0.4053 -0.3726
  108CHL1   C1714202   6.873   3.037  15.883  0.0143  0.3055 -0.0804
  108CHL1   H1714203   6.787   2.984  15.836  0.3216 -0.0025 -0.2991
  108CHL1   C1314204   6.832   3.108  16.011  0.5977 -0.7445  0.4679
  108CHL1   C1814205   6.942   3.199  16.046 -0.1608  0.0240  0.2212
  108CHL1  H18A14206   6.947   3.283  15.972  1.3541 -0.4942 -0.3063
  108CHL1  H18B14207   6.939   3.253  16.143  0.4863  1.0073 -0.2835
  108CHL1  H18C14208   7.043   3.154  16.039  0.2570  1.0862 -1.1867
  108CHL1   C1214209   6.695   3.184  16.014 -0.6105  0.1676  0.1192
  108CHL1  H12A14210   6.689   3.274  15.949 -0.5605 -0.3426 -0.5987
  108CHL1  H12B14211   6.611   3.123  15.976 -0.6132 -0.9735  1.8325
  108CHL1   C1114212   6.661   3.225  16.161 -0.0571  0.8983  0.1856
  108CHL1  H11A14213   6.726   3.309  16.193  0.5859  1.2999 -2.0183
  108CHL1  H11B14214   6.556   3.263  16.160 -0.1483  0.6584  0.5025
  108CHL1    C914215   6.678   3.115  16.269  0.5041 -0.0763  0.3067
  108CHL1    H914216   6.595   3.046  16.243 -1.6757  1.9759  1.3131
  108CHL1   C1014217   6.649   3.163  16.413 -0.2255  0.3635 -0.8353
  108CHL1   C1914218   6.762   3.261  16.455 -0.5684 -0.5121  0.1360
  108CHL1  H19A14219   6.739   3.311  16.551 -0.9387  1.3615 -0.8927
  108CHL1  H19B14220   6.865   3.219  16.461 -0.2776  0.2135  0.2773
  108CHL1  H19C14221   6.758   3.351  16.390 -1.6869  1.6082  2.9389
  108CHL1    C114222   6.509   3.237  16.420  0.0947  0.1427 -0.4869
  108CHL1   H1A14223   6.530   3.332  16.364  1.0482 -0.5362 -1.3284
  108CHL1   H1B14224   6.434   3.187  16.356 -1.3456  1.1715  0.3420
  108CHL1    C214225   6.455   3.254  16.563 -0.4667  0.6863  0.2179
  108CHL1   H2A14226   6.355   3.302  16.552 -0.5669  0.1667 -1.4480
  108CHL1   H2B14227   6.519   3.311  16.633  1.0677 -0.5710 -0.1194
  108CHL1   C2014228   6.934   3.116  15.763 -0.7200 -0.0380  0.1814
  108CHL1   H2014229   7.028   3.161  15.802 -0.3802  0.7371 -1.4624
  108CHL1   C2114230   6.840   3.224  15.717 -0.2903  0.1117  0.4932
  108CHL1  H21A14231   6.880   3.278  15.629 -0.1189 -1.1017 -0.1831
  108CHL1  H21B14232   6.832   3.303  15.795  1.2424  1.4158 -0.6004
  108CHL1  H21C14233   6.736   3.194  15.689 -0.5670  0.4928  1.0980
  108CHL1   C2214234   6.961   3.021  15.642 -0.0380  0.1084  0.7488
  108CHL1  H22A14235   7.018   2.932  15.677  2.3964  2.1930  2.4726
  108CHL1  H22B14236   6.868   2.991  15.589 -0.9971  3.6188  0.2344
  108CHL1   C2314237   7.060   3.087  15.539 -0.5476 -0.1523 -0.4960
  108CHL1  H23A14238   7.015   3.170  15.482  0.4234  0.8907  0.2297
  108CHL1  H23B14239   7.139   3.135  15.601  0.0530 -0.9616 -0.6068
  108CHL1   C2414240   7.119   2.983  15.436  0.5689 -0.1748 -0.6690
  108CHL1  H24A14241   7.175   2.921  15.510  1.9015  0.5897 -1.0066
  108CHL1  H24B14242   7.030   2.939  15.386 -0.4131  1.9274 -0.8768
  108CHL1   C2514243   7.217   3.042  15.337  0.1637  0.2138  0.0821
  108CHL1   H2514244   7.173   3.135  15.296 -0.1089 -0.4934 -1.3040
  108CHL1   C2614245   7.351   3.074  15.401 -0.5588  0.3233  0.3213
  108CHL1  H26A14246   7.395   3.150  15.333 -0.5014  0.0821  0.0876
  108CHL1  H26B14247   7.340   3.122  15.501  2.4729 -0.9694  1.4261
  108CHL1  H26C14248   7.422   2.989  15.414  0.1949  0.3941 -2.6380
  108CHL1   C2714249   7.245   2.937  15.222  0.1323  0.5253  0.6280
  108CHL1  H27A14250   7.309   2.995  15.152 -0.8030  0.3098 -0.4384
  108CHL1  H27B14251   7.301   2.849  15.259 -2.7830 -1.8114 -0.1038
  108CHL1  H27C14252   7.165   2.902  15.153  2.4335  0.7378 -2.3278
  109CHL1    C314253   2.501   6.794  16.663  0.3681  0.6045  0.9151
  109CHL1    H314254   2.536   6.714  16.595 -2.2452  2.0354 -2.4270
  109CHL1    O314255   2.571   6.804  16.786  0.1125 -0.3034 -0.1081
  109CHL1   H3'14256   2.566   6.898  16.806  1.4238  0.5927 -3.3735
  109CHL1    C414257   2.507   6.924  16.582  0.0682  0.0469  0.7969
  109CHL1   H4A14258   2.480   7.005  16.653  0.6233  1.0297 -0.0910
  109CHL1   H4B14259   2.615   6.944  16.561 -0.2795  0.6987 -0.4225
  109CHL1    C514260   2.426   6.923  16.452  0.3783  1.1675  0.5643
  109CHL1    C614261   2.479   6.950  16.336  0.3303  0.8125  0.8653
  109CHL1    H614262   2.588   6.970  16.333  0.7003 -1.1021 -0.3525
  109CHL1    C714263   2.408   6.938  16.197  0.4147 -0.9444 -0.5524
  109CHL1   H7A14264   2.415   7.029  16.133 -1.6365  1.0305  1.8037
  109CHL1   H7B14265   2.448   6.842  16.158  1.4292 -1.2614  1.1931
  109CHL1    C814266   2.252   6.929  16.215  0.4301  0.0675 -0.6350
  109CHL1    H814267   2.215   7.031  16.241 -1.0221 -1.0907  2.1042
  109CHL1   C1414268   2.179   6.881  16.086 -0.5054 -0.4017 -0.3744
  109CHL1   H1414269   2.228   6.783  16.067  1.3078 -0.1246  2.3195
  109CHL1   C1514270   2.195   6.965  15.955  0.5279 -0.1362 -0.3496
  109CHL1  H15A14271   2.159   7.067  15.983 -1.6407 -0.5838 -1.3296
  109CHL1  H15B14272   2.300   6.963  15.918  1.3077 -0.5094  1.7463
  109CHL1   C1614273   2.076   6.914  15.867  0.7998  0.4083  0.0379
  109CHL1  H16A14274   2.008   6.997  15.835  1.0881  0.9919  0.9065
  109CHL1  H16B14275   2.108   6.864  15.773 -1.4658 -0.0064 -0.5849
  109CHL1   C1714276   2.005   6.799  15.947 -0.0051 -0.1100  0.1433
  109CHL1   H1714277   2.067   6.710  15.924  0.7145  0.6181 -0.8120
  109CHL1   C1314278   2.032   6.845  16.095  0.5577  0.0144  0.1642
  109CHL1   C1814279   1.944   6.973  16.127 -0.1457  0.1237 -0.8009
  109CHL1  H18A14280   1.980   7.024  16.219  1.6246  0.2771 -1.5377
  109CHL1  H18B14281   1.948   7.043  16.040  0.8288 -1.3981 -2.0264
  109CHL1  H18C14282   1.839   6.941  16.141 -0.6207  1.4290 -1.2568
  109CHL1   C1214283   2.017   6.736  16.200  0.5811  0.0779 -0.9131
  109CHL1  H12A14284   1.912   6.712  16.225  0.9432  0.2340  0.8702
  109CHL1  H12B14285   2.061   6.641  16.163 -1.3530  0.0684 -3.4435
  109CHL1   C1114286   2.073   6.772  16.338 -1.0228  0.2161 -0.1985
  109CHL1  H11A14287   2.000   6.848  16.374 -1.4967 -0.3901  0.1310
  109CHL1  H11B14288   2.067   6.683  16.404  3.0000 -1.4839 -1.8304
  109CHL1    C914289   2.222   6.823  16.332 -0.0129  1.2592 -0.0751
  109CHL1    H914290   2.274   6.728  16.307 -1.8014  1.0403 -3.7763
  109CHL1   C1014291   2.285   6.868  16.467  0.5516  0.2848 -0.0797
  109CHL1   C1914292   2.194   6.980  16.520 -0.0241  0.8039 -0.2786
  109CHL1  H19A14293   2.165   7.062  16.452 -1.0632  1.4627  0.9160
  109CHL1  H19B14294   2.097   6.952  16.566  0.4811 -1.7140 -0.5893
  109CHL1  H19C14295   2.252   7.034  16.598 -2.4491  0.5169  1.8697
  109CHL1    C114296   2.280   6.749  16.565  0.0300  0.3399  0.4697
  109CHL1   H1A14297   2.176   6.718  16.588 -0.0329 -0.6602 -1.0128
  109CHL1   H1B14298   2.309   6.657  16.510  1.0444  0.9512 -0.0693
  109CHL1    C214299   2.359   6.758  16.694  0.4606 -0.0753 -0.5639
  109CHL1   H2A14300   2.362   6.665  16.755 -1.5775  1.9630  3.0189
  109CHL1   H2B14301   2.314   6.832  16.764  0.0668 -0.1474 -0.7354
  109CHL1   C2014302   1.864   6.756  15.892  0.5744 -0.1242  0.0846
  109CHL1   H2014303   1.796   6.836  15.931  1.9471  1.6821 -1.0817
  109CHL1   C2114304   1.822   6.620  15.966  0.5136 -0.5692  0.3938
  109CHL1  H21A14305   1.727   6.583  15.924 -0.2663 -0.9977  2.4330
  109CHL1  H21B14306   1.801   6.652  16.071 -1.4650  2.0241 -0.6936
  109CHL1  H21C14307   1.900   6.541  15.953  1.3638  0.0881  1.2693
  109CHL1   C2214308   1.859   6.748  15.741 -0.0040  0.0099  0.4393
  109CHL1  H22A14309   1.750   6.747  15.723 -0.3309  0.0652  2.2661
  109CHL1  H22B14310   1.894   6.840  15.689  0.7873 -1.6156 -2.0796
  109CHL1   C2314311   1.945   6.638  15.678  0.3791 -0.2047 -0.6910
  109CHL1  H23A14312   2.049   6.672  15.699  0.5801  0.8101 -3.0337
  109CHL1  H23B14313   1.929   6.538  15.723  0.1952 -0.5296 -1.4694
  109CHL1   C2414314   1.915   6.623  15.532 -0.1352  0.0055 -0.0117
  109CHL1  H24A14315   1.807   6.612  15.508 -0.1190  2.0875 -1.3486
  109CHL1  H24B14316   1.960   6.703  15.468  1.6812 -1.8593 -1.1917
  109CHL1   C2514317   1.975   6.495  15.468 -0.3038  0.5970 -0.5090
  109CHL1   H2514318   2.085   6.493  15.481 -0.4211  0.8193  0.6085
  109CHL1   C2614319   1.909   6.362  15.503  0.3701  0.2848 -0.0086
  109CHL1  H26A14320   1.970   6.282  15.455  0.4195  0.5015 -0.3156
  109CHL1  H26B14321   1.907   6.337  15.611 -1.1804 -1.4039 -0.3920
  109CHL1  H26C14322   1.803   6.354  15.470  0.0652  0.0752  1.0126
  109CHL1   C2714323   1.959   6.506  15.318  0.3212  0.5893 -0.5394
  109CHL1  H27A14324   1.981   6.409  15.268 -0.1991 -0.7654  1.7121
  109CHL1  H27B14325   1.856   6.539  15.294  0.8609  1.2565 -2.0406
  109CHL1  H27C14326   2.024   6.587  15.279  1.3080  0.1384  0.1256
  110CHL1    C314327   1.103   6.378  16.827 -0.3242 -0.2729 -0.2929
  110CHL1    H314328   1.108   6.268  16.814 -0.8347 -0.1838 -1.2824
  110CHL1    O314329   1.001   6.411  16.919 -0.5369 -0.0082 -0.2452
  110CHL1   H3'14330   0.999   6.507  16.920  0.7118  0.0926 -2.3787
  110CHL1    C414331   1.244   6.430  16.881  0.1145  0.5097  0.7763
  110CHL1   H4A14332   1.227   6.540  16.878 -0.9707  0.3287 -0.3239
  110CHL1   H4B14333   1.256   6.389  16.984 -2.1278 -1.4303  0.3343
  110CHL1    C514334   1.349   6.385  16.778  0.0475  0.2569 -0.0582
  110CHL1    C614335   1.444   6.296  16.819  0.6509 -0.7454 -0.2073
  110CHL1    H614336   1.454   6.270  16.925  0.6190  2.2344  0.5938
  110CHL1    C714337   1.555   6.249  16.732  0.1966 -0.0276  0.5397
  110CHL1   H7A14338   1.650   6.234  16.787 -0.9611 -1.9283  2.1235
  110CHL1   H7B14339   1.531   6.143  16.710 -1.0657  0.7874 -2.5567
  110CHL1    C814340   1.567   6.321  16.603  0.0980 -0.0937 -0.0593
  110CHL1    H814341   1.628   6.411  16.623 -0.2624 -0.5557  3.7245
  110CHL1   C1414342   1.645   6.232  16.498  1.1105 -0.1865 -0.1065
  110CHL1   H1414343   1.573   6.151  16.472  0.6237  0.3191 -0.3677
  110CHL1   C1514344   1.782   6.170  16.539  0.9969  0.2516 -0.2817
  110CHL1  H15A14345   1.851   6.245  16.584  1.7681  0.4846 -1.7762
  110CHL1  H15B14346   1.748   6.090  16.608 -0.7760  0.2166 -1.1345
  110CHL1   C1614347   1.843   6.136  16.406 -0.1647 -0.4747  0.0265
  110CHL1  H16A14348   1.945   6.181  16.407  0.1221 -1.1095 -0.4314
  110CHL1  H16B14349   1.849   6.028  16.383  1.6097 -0.2458 -0.7758
  110CHL1   C1714350   1.747   6.187  16.292 -0.1073  0.1217 -0.8278
  110CHL1   H1714351   1.681   6.100  16.272 -1.4902  0.8853  0.2018
  110CHL1   C1314352   1.667   6.298  16.357  0.7535 -0.2026 -0.5123
  110CHL1   C1814353   1.757   6.429  16.367 -0.6466  0.3746 -0.3453
  110CHL1  H18A14354   1.859   6.410  16.406 -0.3763 -0.5523 -1.4600
  110CHL1  H18B14355   1.767   6.482  16.270  0.0730  0.9361  0.0206
  110CHL1  H18C14356   1.707   6.507  16.429 -0.2111  1.0706 -0.8455
  110CHL1   C1214357   1.533   6.336  16.293  0.2292  0.3891  0.4158
  110CHL1  H12A14358   1.544   6.412  16.214 -0.0766 -1.0162 -1.0314
  110CHL1  H12B14359   1.488   6.242  16.256 -0.6224  0.5266  1.0559
  110CHL1   C1114360   1.433   6.401  16.389  0.0296  0.2215 -0.5413
  110CHL1  H11A14361   1.455   6.510  16.395 -1.1317  0.4208  0.7836
  110CHL1  H11B14362   1.330   6.393  16.349 -0.2311 -0.2714  0.2017
  110CHL1    C914363   1.428   6.359  16.540 -0.6147  0.6217 -0.2575
  110CHL1    H914364   1.384   6.257  16.531  2.3189 -0.7201 -0.7417
  110CHL1   C1014365   1.330   6.435  16.633 -0.1636 -0.2149 -0.1266
  110CHL1   C1914366   1.380   6.582  16.639  0.1542  0.2270  0.2507
  110CHL1  H19A14367   1.346   6.637  16.729  2.6714 -0.2851  1.5991
  110CHL1  H19B14368   1.491   6.585  16.636  0.2216 -1.5627 -1.1059
  110CHL1  H19C14369   1.348   6.629  16.544  0.4057 -1.5652 -0.7718
  110CHL1    C114370   1.179   6.422  16.593  0.8959 -0.2235  0.1759
  110CHL1   H1A14371   1.151   6.475  16.499 -2.4601 -0.0105  1.1465
  110CHL1   H1B14372   1.172   6.315  16.565  1.1778  0.0434 -0.9364
  110CHL1    C214373   1.076   6.455  16.699 -0.2643  0.2397  0.0871
  110CHL1   H2A14374   0.980   6.413  16.663 -0.1837  0.2208 -0.1055
  110CHL1   H2B14375   1.066   6.565  16.707  2.1388  0.6683 -1.7622
  110CHL1   C2014376   1.816   6.208  16.152 -0.2266 -0.7775 -0.4595
  110CHL1   H2014377   1.870   6.301  16.181 -0.1587 -1.2609  1.0428
  110CHL1   C2114378   1.712   6.238  16.045 -0.7067 -0.4769 -0.2043
  110CHL1  H21A14379   1.617   6.181  16.045 -0.5375 -0.9339 -2.9434
  110CHL1  H21B14380   1.771   6.231  15.951 -0.1158  1.1496  0.0093
  110CHL1  H21C14381   1.693   6.347  16.054  2.0677  0.2509 -1.9281
  110CHL1   C2214382   1.920   6.101  16.115  1.0508  0.1516 -0.2832
  110CHL1  H22A14383   1.932   6.026  16.196  1.4276  0.5551  0.0360
  110CHL1  H22B14384   1.884   6.044  16.026  1.2034 -1.3486  0.5752
  110CHL1   C2314385   2.065   6.140  16.075  1.4845  0.3247 -0.7770
  110CHL1  H23A14386   2.117   6.196  16.156 -0.9164  0.2239  0.9391
  110CHL1  H23B14387   2.107   6.039  16.057 -2.2678 -2.0765  2.1783
  110CHL1   C2414388   2.067   6.241  15.954  0.4041  0.5559 -0.5464
  110CHL1  H24A14389   2.002   6.191  15.879  0.2368 -1.0453  0.6060
  110CHL1  H24B14390   2.025   6.338  15.988 -1.5227 -0.1613 -0.7745
  110CHL1   C2514391   2.207   6.262  15.905 -0.1191  0.3510 -0.1996
  110CHL1   H2514392   2.271   6.287  15.993  0.7568  0.8713 -0.9661
  110CHL1   C2614393   2.271   6.137  15.833 -0.3209  0.5021 -0.7845
  110CHL1  H26A14394   2.226   6.130  15.731 -1.1457 -1.5671 -0.3163
  110CHL1  H26B14395   2.381   6.149  15.833 -0.2430 -0.2162 -0.5927
  110CHL1  H26C14396   2.251   6.043  15.888 -0.9681  0.7486 -0.5882
  110CHL1   C2714397   2.211   6.386  15.814  0.3595 -0.1856  0.0157
  110CHL1  H27A14398   2.169   6.356  15.716  0.8271 -2.1000  0.3741
  110CHL1  H27B14399   2.156   6.476  15.851  0.2520 -0.2491  0.0103
  110CHL1  H27C14400   2.311   6.421  15.783  0.1500  1.1406  0.7282
  111CHL1    C314401   2.132   0.658  16.939 -0.0986  0.1189  0.5269
  111CHL1    H314402   2.234   0.700  16.931 -1.2754  3.3985  1.3688
  111CHL1    O314403   2.112   0.632  17.076  0.1699  0.3586  0.9634
  111CHL1   H3'14404   2.066   0.704  17.119 -1.7339 -1.3838  2.0103
  111CHL1    C414405   2.032   0.764  16.890  0.5360 -0.2570  0.0598
  111CHL1   H4A14406   1.927   0.753  16.927  0.1642  0.2479 -0.8272
  111CHL1   H4B14407   2.070   0.860  16.930  3.8665 -0.6981 -1.7036
  111CHL1    C514408   2.021   0.778  16.738 -0.2119  0.1590 -0.0793
  111CHL1    C614409   2.028   0.906  16.686 -0.1717  0.3173 -0.4868
  111CHL1    H614410   2.045   0.994  16.749 -0.0580 -0.2417  0.2769
  111CHL1    C714411   2.023   0.941  16.540 -0.2604 -0.5658  0.4290
  111CHL1   H7A14412   1.959   1.030  16.524  0.0756 -0.5402 -0.8743
  111CHL1   H7B14413   2.121   0.968  16.493 -0.9154  1.4549  0.1058
  111CHL1    C814414   1.942   0.824  16.474 -0.0388  0.0297 -0.9994
  111CHL1    H814415   1.840   0.834  16.516  0.2892  2.4050 -0.6697
  111CHL1   C1414416   1.928   0.845  16.324 -0.2591  0.0523 -0.0751
  111CHL1   H1414417   2.029   0.842  16.280 -0.9074  0.1456 -1.6305
  111CHL1   C1514418   1.891   0.977  16.268 -0.2812 -0.2718 -0.3320
  111CHL1  H15A14419   1.809   1.016  16.332  1.6444 -1.5153  3.1792
  111CHL1  H15B14420   1.970   1.054  16.271 -1.0154  0.5155  3.2450
  111CHL1   C1614421   1.845   0.946  16.121 -0.4055  0.2398  0.0106
  111CHL1  H16A14422   1.741   0.984  16.128 -0.0254  1.2343  0.5538
  111CHL1  H16B14423   1.901   1.001  16.042  0.5754  1.2823  1.3803
  111CHL1   C1714424   1.844   0.788  16.099  0.4613  0.5354 -0.1323
  111CHL1   H1714425   1.943   0.765  16.055  0.9581  0.0954  1.2000
  111CHL1   C1314426   1.851   0.734  16.244  0.5883  0.3544 -0.3365
  111CHL1   C1814427   1.702   0.735  16.300  0.0927  0.5252 -0.1324
  111CHL1  H18A14428   1.650   0.643  16.264 -0.2688  0.8119 -0.3433
  111CHL1  H18B14429   1.703   0.735  16.411 -0.7987  1.5624 -0.1149
  111CHL1  H18C14430   1.641   0.818  16.259 -0.1690  0.2454 -0.3184
  111CHL1   C1214431   1.918   0.598  16.268 -0.5267 -0.3824  0.2277
  111CHL1  H12A14432   1.878   0.518  16.203  1.0269 -1.2499  0.2977
  111CHL1  H12B14433   2.022   0.602  16.230  0.2274 -0.5152  2.1611
  111CHL1   C1114434   1.925   0.571  16.424 -0.0454 -0.7346  0.3447
  111CHL1  H11A14435   1.823   0.546  16.459 -0.3198 -0.5868 -0.3426
  111CHL1  H11B14436   1.984   0.480  16.447  1.2450 -0.4165 -1.5154
  111CHL1    C914437   2.003   0.688  16.501  0.5138  0.4977  0.2910
  111CHL1    H914438   2.107   0.688  16.462  0.3250 -0.0099 -0.2228
  111CHL1   C1014439   1.997   0.651  16.652  0.3817 -0.4345 -0.4199
  111CHL1   C1914440   1.855   0.597  16.696 -0.0254  0.3370 -0.2588
  111CHL1  H19A14441   1.844   0.488  16.678  1.6043 -0.0125  0.7014
  111CHL1  H19B14442   1.820   0.635  16.795  0.8933  1.5186 -0.3720
  111CHL1  H19C14443   1.779   0.654  16.640  1.1716  0.9108 -1.3401
  111CHL1    C114444   2.113   0.550  16.698 -0.1141 -0.0647  0.0383
  111CHL1   H1A14445   2.099   0.451  16.650 -1.5781 -0.2436  0.7762
  111CHL1   H1B14446   2.214   0.585  16.667  0.0120  0.4875  1.0096
  111CHL1    C214447   2.120   0.524  16.855 -0.5652  0.6632 -0.2667
  111CHL1   H2A14448   2.208   0.459  16.875 -2.0232 -1.1166  0.7631
  111CHL1   H2B14449   2.039   0.463  16.901  1.0248  0.8120  2.9854
  111CHL1   C2014450   1.745   0.741  15.997  0.5490  0.4382  0.1972
  111CHL1   H2014451   1.641   0.741  16.038  0.3357  1.7409 -0.3276
  111CHL1   C2114452   1.762   0.592  15.967 -0.8986 -0.3851  0.1948
  111CHL1  H21A14453   1.731   0.523  16.047  1.0519 -1.9257 -0.3279
  111CHL1  H21B14454   1.865   0.565  15.936  0.0620  1.2228  1.7633
  111CHL1  H21C14455   1.702   0.577  15.874 -0.5940  1.3857 -0.3356
  111CHL1   C2214456   1.739   0.816  15.859  0.3551  0.0100 -0.0551
  111CHL1  H22A14457   1.653   0.774  15.802 -1.0319  0.2005  1.7953
  111CHL1  H22B14458   1.707   0.916  15.895 -0.4885 -0.0078 -0.7168
  111CHL1   C2314459   1.862   0.820  15.771  0.0844 -0.2107 -0.0665
  111CHL1  H23A14460   1.936   0.867  15.840 -0.0335  1.5590 -1.0962
  111CHL1  H23B14461   1.889   0.714  15.749  0.4516 -0.2422  0.5223
  111CHL1   C2414462   1.833   0.905  15.646  0.1592 -0.4124  0.0937
  111CHL1  H24A14463   1.759   0.855  15.579  2.4928 -1.3852 -1.8948
  111CHL1  H24B14464   1.788   0.999  15.685  0.8140 -0.9457  2.2599
  111CHL1   C2514465   1.968   0.923  15.566  0.3601  0.2875 -1.0568
  111CHL1   H2514466   2.032   0.978  15.638 -0.4827 -1.3273  1.0567
  111CHL1   C2614467   2.025   0.785  15.536 -0.1237 -0.5091 -0.0822
  111CHL1  H26A14468   2.063   0.740  15.631  0.7937  1.6670  0.6297
  111CHL1  H26B14469   1.940   0.726  15.496 -0.5711  0.7293 -0.9865
  111CHL1  H26C14470   2.108   0.799  15.464  1.1268  1.5394  1.6438
  111CHL1   C2714471   1.958   1.008  15.444  0.2706  0.8723 -0.1068
  111CHL1  H27A14472   2.053   1.011  15.386 -0.1341  1.8734 -0.7613
  111CHL1  H27B14473   1.882   0.956  15.382  0.0770 -0.1675  0.9727
  111CHL1  H27C14474   1.924   1.108  15.477 -0.8445  1.3561 -2.4987
  112CHL1    C314475   5.063   2.041  16.483  0.3500  0.1131  0.0712
  112CHL1    H314476   5.003   1.948  16.486  1.5650 -0.6920 -0.1314
  112CHL1    O314477   5.021   2.115  16.599  0.5148 -0.6778  0.2508
  112CHL1   H3'14478   5.056   2.066  16.674  0.6539  0.3980  0.9112
  112CHL1    C414479   5.218   2.020  16.486 -0.2216  0.1895  0.1460
  112CHL1   H4A14480   5.267   2.119  16.495 -1.9940  1.5123 -2.9958
  112CHL1   H4B14481   5.256   1.958  16.570 -2.0882  0.0104  0.9005
  112CHL1    C514482   5.253   1.963  16.352 -0.2651 -0.3785 -0.0724
  112CHL1    C614483   5.318   1.850  16.342 -0.4083 -0.1201  0.0594
  112CHL1    H614484   5.344   1.808  16.440 -1.4618  0.5524  0.6395
  112CHL1    C714485   5.368   1.778  16.215 -0.6870 -0.2762 -0.1960
  112CHL1   H7A14486   5.474   1.747  16.221 -0.8286 -0.6971  0.2465
  112CHL1   H7B14487   5.307   1.686  16.199 -2.3255  0.9268 -1.1151
  112CHL1    C814488   5.350   1.871  16.095 -0.5196  0.4975 -0.0660
  112CHL1    H814489   5.435   1.942  16.097 -0.0750 -0.0358  1.3786
  112CHL1   C1414490   5.349   1.793  15.962 -0.5726 -0.2395 -0.3047
  112CHL1   H1414491   5.258   1.730  15.958 -0.2943 -0.7358  0.8692
  112CHL1   C1514492   5.469   1.702  15.942 -0.3679  0.3206 -0.8275
  112CHL1  H15A14493   5.558   1.757  15.979 -0.5269 -0.0013  0.0580
  112CHL1  H15B14494   5.461   1.606  15.997 -2.8188  0.9692  0.1321
  112CHL1   C1614495   5.476   1.684  15.794  0.1049 -0.6129  0.9240
  112CHL1  H16A14496   5.581   1.705  15.764 -0.4568 -0.1568 -0.7961
  112CHL1  H16B14497   5.446   1.578  15.781 -1.6056 -0.1753  1.0991
  112CHL1   C1714498   5.374   1.774  15.722 -0.1944  0.4365  0.4499
  112CHL1   H1714499   5.282   1.715  15.703  0.1518 -0.4037  1.3169
  112CHL1   C1314500   5.345   1.878  15.837 -0.3683 -0.4215  0.2797
  112CHL1   C1814501   5.468   1.979  15.828  0.4544 -0.2318  0.3718
  112CHL1  H18A14502   5.486   2.022  15.929  0.5384  0.2149  0.1699
  112CHL1  H18B14503   5.564   1.928  15.806  0.7634 -0.6660  2.4882
  112CHL1  H18C14504   5.446   2.066  15.763  0.5340  0.8466  1.7450
  112CHL1   C1214505   5.209   1.950  15.834 -0.5584 -0.2765 -0.1418
  112CHL1  H12A14506   5.202   2.014  15.743  2.6416  0.2202 -0.1445
  112CHL1  H12B14507   5.122   1.880  15.828 -0.1024 -0.8169 -0.4829
  112CHL1   C1114508   5.195   2.035  15.961  0.1993 -0.1929  0.4089
  112CHL1  H11A14509   5.259   2.126  15.956 -0.4988  0.3472  1.1346
  112CHL1  H11B14510   5.091   2.073  15.967  0.2090 -0.1901  0.5501
  112CHL1    C914511   5.220   1.951  16.095  0.1054 -0.0099 -0.7749
  112CHL1    H914512   5.135   1.880  16.093  1.3948 -1.9522  3.2498
  112CHL1   C1014513   5.205   2.041  16.223 -0.2471  0.3509 -0.2121
  112CHL1   C1914514   5.282   2.173  16.214 -0.2071 -0.6739 -0.7552
  112CHL1  H19A14515   5.384   2.163  16.170 -0.4952 -1.9069 -1.1590
  112CHL1  H19B14516   5.230   2.244  16.147  0.5831  1.0029  0.3233
  112CHL1  H19C14517   5.296   2.226  16.311  0.0354 -0.7458 -0.7489
  112CHL1    C114518   5.052   2.070  16.240 -0.4203 -0.1400 -0.0215
  112CHL1   H1A14519   5.024   2.137  16.156  2.8244  2.5247  0.7836
  112CHL1   H1B14520   4.992   1.978  16.229  1.2558 -1.1913 -0.7778
  112CHL1    C214521   5.011   2.129  16.368 -0.3233 -0.3038  0.4748
  112CHL1   H2A14522   4.900   2.118  16.371 -0.2290 -1.3260  0.4194
  112CHL1   H2B14523   5.050   2.233  16.372 -0.3506 -0.3226  1.7023
  112CHL1   C2014524   5.418   1.814  15.582  0.1833 -0.6094 -0.0062
  112CHL1   H2014525   5.513   1.871  15.589 -1.0176  1.3512  1.4001
  112CHL1   C2114526   5.308   1.905  15.508 -0.2473 -0.3551 -0.0816
  112CHL1  H21A14527   5.309   1.904  15.397 -0.7200  0.2569 -0.0963
  112CHL1  H21B14528   5.306   2.009  15.546 -1.1156 -1.0826  2.0431
  112CHL1  H21C14529   5.210   1.859  15.534 -1.2225  0.4264 -2.1289
  112CHL1   C2214530   5.448   1.696  15.485 -0.9477  0.1511  0.2272
  112CHL1  H22A14531   5.519   1.624  15.531  0.7869  0.0035 -2.4790
  112CHL1  H22B14532   5.360   1.633  15.458 -1.1237  0.3031  0.4459
  112CHL1   C2314533   5.524   1.749  15.366 -0.4965  0.0867 -0.1252
  112CHL1  H23A14534   5.461   1.818  15.306 -0.7609 -0.5753 -0.6228
  112CHL1  H23B14535   5.621   1.798  15.391 -1.0300  1.4503 -0.6119
  112CHL1   C2414536   5.580   1.643  15.270  0.0476  0.0815 -0.2766
  112CHL1  H24A14537   5.490   1.589  15.233  0.8104 -1.6912  0.3341
  112CHL1  H24B14538   5.615   1.697  15.179 -0.2700  0.1013 -0.3868
  112CHL1   C2514539   5.704   1.559  15.307  0.6314 -0.1407  0.2783
  112CHL1   H2514540   5.679   1.492  15.392 -0.5341 -0.5289 -0.3413
  112CHL1   C2614541   5.716   1.456  15.200  0.8570  0.3527 -0.2057
  112CHL1  H26A14542   5.772   1.368  15.239 -0.3339 -1.3225 -2.1206
  112CHL1  H26B14543   5.615   1.412  15.190  1.8232 -1.8340 -1.0541
  112CHL1  H26C14544   5.758   1.492  15.103  1.4204 -0.7934 -0.4056
  112CHL1   C2714545   5.835   1.630  15.331 -0.1494  0.4935 -0.5756
  112CHL1  H27A14546   5.921   1.560  15.338 -1.0010 -0.4489  1.1930
  112CHL1  H27B14547   5.857   1.697  15.245  0.6509 -2.0431 -2.4397
  112CHL1  H27C14548   5.833   1.702  15.417 -1.7288  2.4905 -2.1769
  113CHL1    C314549   0.463   6.370  16.491  0.2307  0.5351 -0.1120
  113CHL1    H314550   0.429   6.275  16.446  3.7684 -2.1625  2.3607
  113CHL1    O314551   0.365   6.416  16.586  0.0569  0.1901  0.6317
  113CHL1   H3'14552   0.389   6.500  16.626 -1.8566 -0.5178  3.5937
  113CHL1    C414553   0.590   6.334  16.566 -0.2950 -0.9317  0.6975
  113CHL1   H4A14554   0.628   6.431  16.605 -1.4945 -0.4666  0.7477
  113CHL1   H4B14555   0.578   6.270  16.656  0.2363  0.8231  2.0841
  113CHL1    C514556   0.700   6.293  16.468  1.0259 -0.5989  0.0120
  113CHL1    C614557   0.772   6.181  16.482  0.0409 -0.1389  0.2025
  113CHL1    H614558   0.750   6.111  16.564  2.1807  0.5131  1.3932
  113CHL1    C714559   0.895   6.152  16.395 -0.0078 -0.4793  0.3436
  113CHL1   H7A14560   0.980   6.123  16.460 -0.8070 -0.0520  1.6230
  113CHL1   H7B14561   0.867   6.060  16.338  1.5037 -1.9497  1.8733
  113CHL1    C814562   0.937   6.261  16.300 -0.4531  0.2627 -0.1064
  113CHL1    H814563   1.004   6.333  16.351 -1.3039  1.8432 -1.1351
  113CHL1   C1414564   1.022   6.199  16.186 -0.5800  0.3789 -0.8920
  113CHL1   H1414565   0.952   6.129  16.134  0.5211 -0.5707 -1.1452
  113CHL1   C1514566   1.148   6.120  16.230  0.5539  0.0279  0.6763
  113CHL1  H15A14567   1.200   6.193  16.295  0.0518  1.3690 -0.3903
  113CHL1  H15B14568   1.120   6.019  16.269 -3.7692  0.4201 -0.8495
  113CHL1   C1614569   1.220   6.106  16.094 -0.0185 -0.1944  0.2262
  113CHL1  H16A14570   1.326   6.139  16.100 -0.5984  2.1952 -1.4571
  113CHL1  H16B14571   1.222   6.000  16.059 -0.3443  0.0165 -0.4454
  113CHL1   C1714572   1.142   6.193  15.988  0.2146  0.3358  0.3819
  113CHL1   H1714573   1.063   6.130  15.943 -1.7260  1.7074  1.6689
  113CHL1   C1314574   1.060   6.294  16.077 -1.2021 -1.0371 -0.4463
  113CHL1   C1814575   1.154   6.401  16.127 -0.1077 -0.2809  0.3250
  113CHL1  H18A14576   1.260   6.368  16.137 -0.2609 -1.1935 -0.8493
  113CHL1  H18B14577   1.154   6.484  16.054  1.2507 -0.0937  0.5046
  113CHL1  H18C14578   1.123   6.443  16.225  0.2921  1.1521 -0.1299
  113CHL1   C1214579   0.936   6.355  16.018 -0.0425  0.2025  0.2374
  113CHL1  H12A14580   0.949   6.440  15.947 -0.0411 -0.5585 -0.6958
  113CHL1  H12B14581   0.883   6.272  15.967 -0.9838  0.9527 -0.0380
  113CHL1   C1114582   0.852   6.431  16.127 -0.0091 -0.0999 -0.2042
  113CHL1  H11A14583   0.918   6.513  16.164  2.0902 -1.6586 -0.2766
  113CHL1  H11B14584   0.759   6.480  16.094  0.4344  0.9900  0.1399
  113CHL1    C914585   0.811   6.332  16.238  0.1112  0.1252  0.0381
  113CHL1    H914586   0.752   6.252  16.189  1.6875 -0.8155 -0.4096
  113CHL1   C1014587   0.717   6.391  16.351  0.3511 -0.4881  0.8833
  113CHL1   C1914588   0.794   6.517  16.403  0.0281  0.1442  0.3498
  113CHL1  H19A14589   0.747   6.574  16.486  0.0625 -0.2951  0.6726
  113CHL1  H19B14590   0.893   6.490  16.445  0.5494  2.0134  0.4182
  113CHL1  H19C14591   0.809   6.582  16.313  0.1547 -0.0386  0.2381
  113CHL1    C114592   0.587   6.442  16.289  0.6124 -0.2388  0.2125
  113CHL1   H1A14593   0.604   6.528  16.221 -0.2241 -0.6426 -0.5183
  113CHL1   H1B14594   0.544   6.358  16.230  0.8730 -0.1684 -0.0726
  113CHL1    C214595   0.479   6.482  16.387  0.2426  0.0483 -0.7187
  113CHL1   H2A14596   0.381   6.501  16.339  0.0470  0.4937 -0.1596
  113CHL1   H2B14597   0.511   6.577  16.436 -0.6701  0.4484 -0.8717
  113CHL1   C2014598   1.237   6.254  15.887  0.1643 -0.9348 -0.9121
  113CHL1   H2014599   1.316   6.316  15.935  0.0842 -1.0298 -0.6560
  113CHL1   C2114600   1.171   6.349  15.783  0.6045 -0.8605  0.5774
  113CHL1  H21A14601   1.097   6.294  15.722  0.5837 -0.4819  0.2620
  113CHL1  H21B14602   1.244   6.397  15.714 -0.1877 -0.0399  0.2945
  113CHL1  H21C14603   1.114   6.434  15.825  2.5423  1.0937 -0.5412
  113CHL1   C2214604   1.314   6.141  15.812 -0.8049 -0.1494 -0.2940
  113CHL1  H22A14605   1.381   6.089  15.883 -0.1398 -0.9829 -1.4813
  113CHL1  H22B14606   1.244   6.065  15.771  0.7855 -0.9606 -1.6500
  113CHL1   C2314607   1.405   6.192  15.691 -0.6173 -0.2298  0.4315
  113CHL1  H23A14608   1.341   6.205  15.601  0.2684 -1.0986 -0.3368
  113CHL1  H23B14609   1.467   6.282  15.713  1.2945 -0.7949 -2.2038
  113CHL1   C2414610   1.514   6.090  15.644  0.5080  0.2196 -0.1840
  113CHL1  H24A14611   1.584   6.067  15.727  0.3789  0.3601 -0.0359
  113CHL1  H24B14612   1.472   5.992  15.614  0.6342  0.5767 -1.6350
  113CHL1   C2514613   1.596   6.155  15.529 -0.0582  0.3688  0.2162
  113CHL1   H2514614   1.633   6.257  15.550  1.6075  0.0094 -0.7658
  113CHL1   C2614615   1.713   6.056  15.502  1.1308 -0.0547 -0.5697
  113CHL1  H26A14616   1.766   6.080  15.408  0.2092  1.3396 -0.7710
  113CHL1  H26B14617   1.779   6.056  15.591 -0.3142  2.2958  0.5944
  113CHL1  H26C14618   1.659   5.960  15.488  2.7267 -0.8458 -1.6000
  113CHL1   C2714619   1.512   6.166  15.407 -0.0356  0.3782  0.6439
  113CHL1  H27A14620   1.575   6.172  15.315 -1.8803 -2.8565 -1.0506
  113CHL1  H27B14621   1.451   6.075  15.389 -1.4099  1.3759  0.0962
  113CHL1  H27C14622   1.444   6.253  15.415 -2.9994 -1.8518  1.6141
  114CHL1    C314623   4.626   7.613  16.997  0.3689  0.8705 -0.6022
  114CHL1    H314624   4.627   7.724  16.986  0.1974  1.2233  2.1553
  114CHL1    O314625   4.618   7.589  17.139  0.3166 -0.2305  0.4647
  114CHL1   H3'14626   4.642   7.496  17.147  1.7407  0.1953  1.7155
  114CHL1    C414627   4.494   7.558  16.936 -1.4805 -0.6543 -0.2898
  114CHL1   H4A14628   4.489   7.452  16.968  1.5212 -0.3066  1.7980
  114CHL1   H4B14629   4.408   7.619  16.973 -0.9493  0.7565 -1.3173
  114CHL1    C514630   4.498   7.574  16.786 -0.3923 -1.0647  0.3323
  114CHL1    C614631   4.398   7.630  16.713 -0.0137 -0.3884  0.3355
  114CHL1    H614632   4.313   7.673  16.768  1.4271  1.2631  1.3823
  114CHL1    C714633   4.391   7.640  16.565  0.9368 -0.1304  0.1193
  114CHL1   H7A14634   4.289   7.623  16.522  0.8239 -0.4178  0.5005
  114CHL1   H7B14635   4.425   7.744  16.545  0.7002  0.1908  1.3005
  114CHL1    C814636   4.487   7.544  16.495 -1.2351 -0.3033 -0.1385
  114CHL1    H814637   4.451   7.440  16.507 -3.8166  0.6231  0.9017
  114CHL1   C1414638   4.511   7.579  16.353  0.5268  0.1268  0.1419
  114CHL1   H1414639   4.560   7.678  16.342  0.3450  0.0131 -2.2317
  114CHL1   C1514640   4.380   7.597  16.272  0.2852  0.4475  0.2536
  114CHL1  H15A14641   4.296   7.530  16.299  0.7893  0.0983  0.9798
  114CHL1  H15B14642   4.346   7.701  16.294 -0.2722  0.9697 -2.6647
  114CHL1   C1614643   4.420   7.562  16.126 -0.2515 -0.4369  0.9262
  114CHL1  H16A14644   4.379   7.460  16.106 -1.5332  0.2890 -0.3613
  114CHL1  H16B14645   4.387   7.628  16.043  1.6543 -1.7370 -0.9779
  114CHL1   C1714646   4.573   7.547  16.127  0.1543  0.3955  0.3191
  114CHL1   H1714647   4.617   7.649  16.124  0.3394  0.3359 -3.5286
  114CHL1   C1314648   4.600   7.490  16.266  0.0400  0.1864 -0.2729
  114CHL1   C1814649   4.554   7.338  16.276 -0.4943 -0.9800 -0.0353
  114CHL1  H18A14650   4.553   7.292  16.377  0.4799 -2.8959 -0.8413
  114CHL1  H18B14651   4.458   7.315  16.224 -1.9808  4.2093 -0.0802
  114CHL1  H18C14652   4.638   7.289  16.223  0.8823  2.3633 -1.2023
  114CHL1   C1214653   4.735   7.505  16.328 -0.0665 -0.0117  0.0302
  114CHL1  H12A14654   4.804   7.440  16.271 -2.3864 -4.1285  1.4850
  114CHL1  H12B14655   4.773   7.609  16.337 -1.6544  0.5866  0.0497
  114CHL1   C1114656   4.733   7.463  16.477 -0.4804 -0.5788 -0.1140
  114CHL1  H11A14657   4.712   7.353  16.478 -0.3958 -0.6409 -1.9003
  114CHL1  H11B14658   4.829   7.484  16.530  0.3878 -1.0705 -1.4335
  114CHL1    C914659   4.630   7.549  16.559 -0.2203  0.4409  0.1801
  114CHL1    H914660   4.668   7.653  16.546  0.2270  0.1438 -0.9731
  114CHL1   C1014661   4.624   7.513  16.719  0.3535  0.3270  0.0364
  114CHL1   C1914662   4.612   7.355  16.725 -0.2916  0.8238  0.0259
  114CHL1  H19A14663   4.619   7.325  16.831 -1.0117  2.7768  0.6720
  114CHL1  H19B14664   4.511   7.329  16.687  0.3239 -0.9461 -0.5145
  114CHL1  H19C14665   4.692   7.304  16.667 -1.6976  0.8869 -2.1224
  114CHL1    C114666   4.756   7.555  16.786  0.4060  0.0823 -0.2358
  114CHL1   H1A14667   4.838   7.487  16.754  0.5407 -0.8555  1.9247
  114CHL1   H1B14668   4.782   7.661  16.765  0.5604 -0.2567 -1.9142
  114CHL1    C214669   4.754   7.548  16.941 -0.6309  0.1860 -0.5716
  114CHL1   H2A14670   4.848   7.586  16.987  0.9667 -4.5984  0.6357
  114CHL1   H2B14671   4.753   7.442  16.974  0.2176  1.2100  3.2012
  114CHL1   C2014672   4.631   7.473  16.004  0.7844  0.2332  0.2198
  114CHL1   H2014673   4.617   7.365  16.025 -0.8305  0.1892 -0.8710
  114CHL1   C2114674   4.781   7.493  15.990  0.0906  0.7443  0.5523
  114CHL1  H21A14675   4.797   7.602  15.976 -2.6248  1.0987 -0.5465
  114CHL1  H21B14676   4.816   7.448  15.894 -1.0116  0.1592  0.4070
  114CHL1  H21C14677   4.840   7.470  16.081  1.5278 -0.3422 -0.6085
  114CHL1   C2214678   4.556   7.499  15.874 -0.5338 -0.2579 -0.1289
  114CHL1  H22A14679   4.445   7.505  15.876 -0.5200 -0.1878  1.5251
  114CHL1  H22B14680   4.592   7.601  15.847 -0.3792  0.2834  1.9829
  114CHL1   C2314681   4.593   7.409  15.759 -0.0019 -0.3113  0.8231
  114CHL1  H23A14682   4.701   7.410  15.731  0.1302 -2.0737  1.1295
  114CHL1  H23B14683   4.565   7.303  15.777 -3.9831  0.8338  2.3277
  114CHL1   C2414684   4.525   7.467  15.633  0.1753  0.3514 -0.8008
  114CHL1  H24A14685   4.415   7.480  15.644  0.2791 -0.5460  2.2269
  114CHL1  H24B14686   4.565   7.569  15.614  0.4109  0.6011  0.8447
  114CHL1   C2514687   4.540   7.387  15.507 -0.1937  0.4070  0.3436
  114CHL1   H2514688   4.485   7.291  15.502 -1.0231  0.9167 -1.1786
  114CHL1   C2614689   4.482   7.463  15.387  0.4686  0.4726  0.1574
  114CHL1  H26A14690   4.373   7.479  15.404  0.4044  0.8540 -0.5354
  114CHL1  H26B14691   4.535   7.560  15.383  1.4441 -0.0249 -3.7039
  114CHL1  H26C14692   4.501   7.415  15.288  1.0347  1.3295 -0.1616
  114CHL1   C2714693   4.687   7.346  15.482  0.6619 -0.4046 -0.4702
  114CHL1  H27A14694   4.710   7.341  15.373  2.3530 -0.6640 -0.1372
  114CHL1  H27B14695   4.752   7.426  15.526  1.8699 -0.7349 -1.5792
  114CHL1  H27C14696   4.723   7.255  15.534  0.0659 -0.9254 -0.9689
  115CHL1    C314697   1.211   1.249  16.767 -0.1120 -0.7179  0.8615
  115CHL1    H314698   1.179   1.144  16.746  0.3587 -0.6602 -0.2521
  115CHL1    O314699   1.207   1.278  16.903 -0.1600  0.2883 -0.0643
  115CHL1   H3'14700   1.266   1.349  16.929 -0.2475  0.1575  0.5044
  115CHL1    C414701   1.360   1.257  16.727  0.1583  0.4962 -0.0976
  115CHL1   H4A14702   1.406   1.343  16.781 -0.1322  0.6392 -0.0752
  115CHL1   H4B14703   1.407   1.171  16.778 -0.1564  0.8170  0.7495
  115CHL1    C514704   1.366   1.258  16.576 -0.2973  0.4798  0.2974
  115CHL1    C614705   1.431   1.153  16.518  0.3768  0.0910 -0.0098
  115CHL1    H614706   1.466   1.072  16.584  0.7231  0.9026  0.8375
  115CHL1    C714707   1.450   1.137  16.376  0.1089 -0.6760  0.3004
  115CHL1   H7A14708   1.547   1.084  16.363 -0.8147 -2.3264 -0.2169
  115CHL1   H7B14709   1.376   1.065  16.333  1.5427 -0.6447 -2.4169
  115CHL1    C814710   1.440   1.275  16.299 -0.0669  0.2584  0.2078
  115CHL1    H814711   1.528   1.331  16.335 -0.8778  3.1740 -1.9944
  115CHL1   C1414712   1.434   1.249  16.151 -0.0009 -0.6168 -0.0882
  115CHL1   H1414713   1.340   1.190  16.136  0.1415 -0.9436  0.2932
  115CHL1   C1514714   1.534   1.155  16.086 -0.7023  0.5747 -0.7801
  115CHL1  H15A14715   1.633   1.162  16.136 -0.3990 -0.1278 -1.2684
  115CHL1  H15B14716   1.510   1.048  16.096  1.7564  0.1579  2.1627
  115CHL1   C1614717   1.531   1.201  15.938 -0.2410 -0.6141  0.6633
  115CHL1  H16A14718   1.626   1.251  15.910 -1.1322  1.4043  1.0785
  115CHL1  H16B14719   1.509   1.113  15.874 -0.1505  0.8735 -1.5296
  115CHL1   C1714720   1.423   1.308  15.928 -0.2093  0.8759  0.4357
  115CHL1   H1714721   1.323   1.260  15.919  0.1823  0.2473 -0.7275
  115CHL1   C1314722   1.417   1.374  16.065 -0.2838  0.3992  0.3872
  115CHL1   C1814723   1.547   1.461  16.092 -0.4655  0.1227 -0.9124
  115CHL1  H18A14724   1.643   1.408  16.102  0.3879  1.7692  0.0877
  115CHL1  H18B14725   1.562   1.539  16.014  1.3185 -0.6142 -1.3318
  115CHL1  H18C14726   1.539   1.525  16.183  1.4129  0.9393 -1.2752
  115CHL1   C1214727   1.288   1.456  16.099  0.1518  0.5908 -0.0543
  115CHL1  H12A14728   1.282   1.551  16.043 -0.3600 -0.3958 -1.7363
  115CHL1  H12B14729   1.191   1.408  16.074  0.8127 -0.8261  0.0275
  115CHL1   C1114730   1.286   1.483  16.254  0.0776 -0.2077 -0.4103
  115CHL1  H11A14731   1.353   1.569  16.271  0.0636  0.1974 -2.1750
  115CHL1  H11B14732   1.180   1.516  16.269  0.3775  0.2101  0.8828
  115CHL1    C914733   1.316   1.361  16.342  0.5233  0.3346 -0.2771
  115CHL1    H914734   1.236   1.292  16.309 -0.2130  0.4913  1.1119
  115CHL1   C1014735   1.296   1.373  16.497 -0.3875  0.3634 -0.4328
  115CHL1   C1914736   1.366   1.508  16.535  0.4295  0.6383 -0.5872
  115CHL1  H19A14737   1.389   1.513  16.644 -0.9119  0.6160 -0.2819
  115CHL1  H19B14738   1.465   1.508  16.486  1.8832  0.5258  2.1714
  115CHL1  H19C14739   1.308   1.599  16.510  3.3339  2.4194 -1.3057
  115CHL1    C114740   1.146   1.359  16.543  0.6312 -0.2364 -0.1293
  115CHL1   H1A14741   1.096   1.449  16.503  1.9512  1.0685  1.0275
  115CHL1   H1B14742   1.123   1.260  16.497  1.6394 -0.8297  0.6012
  115CHL1    C214743   1.121   1.347  16.697 -0.0148 -0.4556  0.3701
  115CHL1   H2A14744   1.017   1.322  16.725  0.3684  1.8225  4.5952
  115CHL1   H2B14745   1.134   1.447  16.743 -1.8272  1.5948 -3.1303
  115CHL1   C2014746   1.448   1.401  15.809  0.1526 -0.0529  0.2667
  115CHL1   H2014747   1.523   1.477  15.841  0.3131  0.4787 -1.2921
  115CHL1   C2114748   1.324   1.484  15.789  0.0814 -0.5335 -0.3475
  115CHL1  H21A14749   1.308   1.519  15.685  0.6801  0.1067 -0.2295
  115CHL1  H21B14750   1.326   1.579  15.846  0.1775 -1.0576  0.5492
  115CHL1  H21C14751   1.233   1.427  15.819  0.0229 -1.4889 -2.1758
  115CHL1   C2214752   1.506   1.343  15.674  0.2382  0.0322 -0.0763
  115CHL1  H22A14753   1.601   1.287  15.686  1.4188  1.8761 -0.4558
  115CHL1  H22B14754   1.433   1.284  15.615  1.9811 -1.1070 -1.1985
  115CHL1   C2314755   1.547   1.455  15.577 -0.2737  0.4385 -0.6339
  115CHL1  H23A14756   1.456   1.514  15.552 -1.2809 -1.3385 -1.3580
  115CHL1  H23B14757   1.622   1.520  15.626  0.3943  1.2777 -2.6833
  115CHL1   C2414758   1.602   1.400  15.438  0.5916 -0.7113  0.1656
  115CHL1  H24A14759   1.702   1.355  15.455  2.5311  3.4835  0.9083
  115CHL1  H24B14760   1.528   1.319  15.418 -1.4350 -0.0607  4.1810
  115CHL1   C2514761   1.600   1.511  15.332 -0.0793  0.1473 -0.8195
  115CHL1   H2514762   1.492   1.538  15.332 -0.5141 -1.4127  0.6076
  115CHL1   C2614763   1.688   1.634  15.367 -0.0445 -0.3794  0.9802
  115CHL1  H26A14764   1.689   1.704  15.280  1.1074 -0.3279  1.0162
  115CHL1  H26B14765   1.664   1.687  15.462 -0.7911 -0.1723  0.6825
  115CHL1  H26C14766   1.793   1.596  15.370 -0.4612 -1.7844 -0.5901
  115CHL1   C2714767   1.654   1.464  15.193  0.0342 -0.0065  0.5381
  115CHL1  H27A14768   1.648   1.539  15.111 -0.9585 -0.3592  0.2766
  115CHL1  H27B14769   1.752   1.417  15.214 -1.9860 -4.4872  1.0455
  115CHL1  H27C14770   1.590   1.377  15.167  1.2957 -0.9771  0.6095
  116CHL1    C314771   2.699   0.565  16.810  0.0291  0.0172 -0.0141
  116CHL1    H314772   2.758   0.493  16.749 -2.8886 -1.6288 -1.0954
  116CHL1    O314773   2.724   0.537  16.946 -0.0442  0.1421  0.0680
  116CHL1   H3'14774   2.675   0.456  16.963 -0.0457 -0.3168 -1.8587
  116CHL1    C414775   2.740   0.710  16.763  0.4569 -0.1980 -0.3076
  116CHL1   H4A14776   2.688   0.782  16.830 -2.3192 -1.4913 -0.9224
  116CHL1   H4B14777   2.851   0.717  16.763  0.3978  2.3975 -2.5840
  116CHL1    C514778   2.684   0.748  16.622 -0.4587  0.8278 -0.5421
  116CHL1    C614779   2.772   0.785  16.530  0.2327 -0.9193  0.7560
  116CHL1    H614780   2.875   0.810  16.559  0.6146  0.8955 -1.7958
  116CHL1    C714781   2.744   0.828  16.385 -0.1113  0.1101 -0.4561
  116CHL1   H7A14782   2.789   0.924  16.350  1.0687  0.0069  0.6844
  116CHL1   H7B14783   2.788   0.755  16.313 -0.4752  0.0863 -0.6531
  116CHL1    C814784   2.593   0.837  16.367  0.1905  0.3008  0.4046
  116CHL1    H814785   2.552   0.932  16.408 -1.9762 -0.0391 -0.8269
  116CHL1   C1414786   2.563   0.847  16.219  0.6997  0.5826 -0.5856
  116CHL1   H1414787   2.608   0.759  16.170  1.3233  1.3167 -1.3745
  116CHL1   C1514788   2.632   0.959  16.149  0.0689  0.5363  0.4342
  116CHL1  H15A14789   2.623   1.058  16.200 -1.4500 -0.4559  2.2237
  116CHL1  H15B14790   2.736   0.927  16.128 -0.7617 -1.0087 -1.6706
  116CHL1   C1614791   2.566   0.959  16.010 -0.2639 -0.4101 -1.5944
  116CHL1  H16A14792   2.552   1.069  16.002 -1.3621 -0.3361  0.6428
  116CHL1  H16B14793   2.623   0.925  15.921 -0.3082  0.8397 -2.1244
  116CHL1   C1714794   2.434   0.871  16.029 -0.4696 -0.3056 -0.9211
  116CHL1   H1714795   2.457   0.773  15.983  0.1065 -0.1747 -0.9164
  116CHL1   C1314796   2.420   0.851  16.176  0.6968  0.3137 -0.3203
  116CHL1   C1814797   2.347   0.971  16.242  0.6677 -0.0038 -0.0218
  116CHL1  H18A14798   2.362   0.978  16.351 -2.0051 -0.1610  0.4247
  116CHL1  H18B14799   2.377   1.070  16.201 -0.8186  1.1708  1.6124
  116CHL1  H18C14800   2.238   0.960  16.226  0.4293  2.2867 -0.2989
  116CHL1   C1214801   2.362   0.718  16.232 -0.1099  0.7252 -0.8063
  116CHL1  H12A14802   2.256   0.704  16.202 -0.1682 -2.1265  0.4761
  116CHL1  H12B14803   2.418   0.629  16.197 -2.4652 -2.5538  2.8335
  116CHL1   C1114804   2.377   0.707  16.389 -0.1742 -0.1332  0.2965
  116CHL1  H11A14805   2.313   0.785  16.435  0.0715 -1.2124  2.5906
  116CHL1  H11B14806   2.343   0.606  16.422 -1.0453 -1.2887 -3.6045
  116CHL1    C914807   2.518   0.718  16.435  0.1403  0.5556  0.5423
  116CHL1    H914808   2.570   0.625  16.402  1.6697  1.5977 -0.0611
  116CHL1   C1014809   2.541   0.713  16.587 -0.3887  0.3514 -0.3034
  116CHL1   C1914810   2.438   0.804  16.660  0.4111  0.0920  0.0640
  116CHL1  H19A14811   2.418   0.897  16.603 -0.1956  0.7520  1.3029
  116CHL1  H19B14812   2.339   0.753  16.657  0.5913 -0.2647  0.1071
  116CHL1  H19C14813   2.458   0.830  16.766 -0.1032  1.1112 -0.0776
  116CHL1    C114814   2.520   0.573  16.638  0.1053  0.1428 -0.0518
  116CHL1   H1A14815   2.417   0.533  16.625  0.8746 -2.0649  0.1389
  116CHL1   H1B14816   2.584   0.502  16.581  2.8076  1.9980  0.4450
  116CHL1    C214817   2.549   0.548  16.785  0.5091 -0.1520  0.7471
  116CHL1   H2A14818   2.527   0.440  16.797 -1.9708 -0.0089 -1.4612
  116CHL1   H2B14819   2.468   0.592  16.847 -0.3241  0.6323 -0.8414
  116CHL1   C2014820   2.317   0.917  15.943  0.4842 -0.0430 -0.4157
  116CHL1   H2014821   2.273   1.004  15.996 -0.0484 -1.0645  0.8653
  116CHL1   C2114822   2.212   0.803  15.934 -0.6742 -0.1556 -0.3171
  116CHL1  H21A14823   2.265   0.712  15.899  0.7139  0.0971  1.0237
  116CHL1  H21B14824   2.135   0.818  15.855 -1.6367 -2.3414  0.1282
  116CHL1  H21C14825   2.170   0.775  16.032 -0.5849  2.1178  0.4245
  116CHL1   C2214826   2.362   0.962  15.798  0.0107 -0.3389  0.1828
  116CHL1  H22A14827   2.268   0.997  15.749 -0.9453 -1.4959  1.1312
  116CHL1  H22B14828   2.424   1.053  15.813 -0.5696  0.1608 -0.3522
  116CHL1   C2314829   2.419   0.845  15.715  0.7815 -0.4044 -0.0247
  116CHL1  H23A14830   2.495   0.791  15.775 -0.4142  0.8335  2.7894
  116CHL1  H23B14831   2.330   0.785  15.686  0.3917 -0.0615  0.4520
  116CHL1   C2414832   2.490   0.907  15.594 -0.2989  0.0973 -0.2633
  116CHL1  H24A14833   2.419   0.975  15.541 -1.3324 -0.8446 -0.1309
  116CHL1  H24B14834   2.586   0.956  15.619 -0.6075  1.5701 -1.7598
  116CHL1   C2514835   2.533   0.807  15.485  0.0983 -0.2805  0.4945
  116CHL1   H2514836   2.575   0.716  15.531 -0.4081 -0.5507  0.4295
  116CHL1   C2614837   2.420   0.762  15.393  0.2618  0.3188  0.5672
  116CHL1  H26A14838   2.336   0.726  15.456  0.1720 -0.5638 -0.0400
  116CHL1  H26B14839   2.375   0.847  15.337 -0.6471 -1.2977 -1.2801
  116CHL1  H26C14840   2.458   0.675  15.336  3.5089  0.6298  2.0475
  116CHL1   C2714841   2.644   0.871  15.394  0.1676  0.2978 -0.5970
  116CHL1  H27A14842   2.661   0.799  15.311 -1.1396 -1.2062  0.3961
  116CHL1  H27B14843   2.604   0.965  15.350 -2.3024 -0.0730  0.7147
  116CHL1  H27C14844   2.736   0.906  15.445 -1.6039  1.8297  1.7586
  117CHL1    C314845   4.984   0.955  16.892  0.9265  0.4490 -0.2252
  117CHL1    H314846   5.044   1.049  16.893  0.0542  1.0338  1.6608
  117CHL1    O314847   4.953   0.909  17.025 -0.1389 -0.0454 -0.2775
  117CHL1   H3'14848   5.037   0.884  17.064 -0.1173 -1.1357 -0.9917
  117CHL1    C414849   4.855   0.981  16.812 -0.2814  0.3715 -0.4562
  117CHL1   H4A14850   4.799   0.887  16.830  1.2876 -0.3602  0.8875
  117CHL1   H4B14851   4.789   1.062  16.851 -0.7553  0.2481 -0.9889
  117CHL1    C514852   4.872   0.996  16.660  0.9810  0.2259  0.5447
  117CHL1    C614853   4.811   1.103  16.601 -0.4635 -0.3301 -0.4334
  117CHL1    H614854   4.758   1.171  16.669  1.2111 -0.7563  1.4017
  117CHL1    C714855   4.808   1.127  16.453 -0.1017 -0.3216  0.1215
  117CHL1   H7A14856   4.703   1.135  16.418 -0.4751 -1.1682  0.9983
  117CHL1   H7B14857   4.868   1.217  16.427 -0.2225 -0.2693  0.0210
  117CHL1    C814858   4.867   1.010  16.370 -0.0238  0.0522 -0.2536
  117CHL1    H814859   4.786   0.935  16.359  0.9895 -1.1009 -0.1525
  117CHL1   C1414860   4.916   1.072  16.238  0.7666  0.1780 -0.6710
  117CHL1   H1414861   5.000   1.141  16.261  1.8878 -1.6868  1.1544
  117CHL1   C1514862   4.816   1.148  16.151  0.0299 -0.7931 -0.0905
  117CHL1  H15A14863   4.718   1.096  16.152 -0.3954 -0.0318 -1.2778
  117CHL1  H15B14864   4.795   1.249  16.193  1.0118 -1.2906  1.7023
  117CHL1   C1614865   4.866   1.150  16.012 -0.1007  0.6335  0.7531
  117CHL1  H16A14866   4.789   1.098  15.950 -0.9825 -0.5521  2.7475
  117CHL1  H16B14867   4.882   1.252  15.970  0.8232  0.3505  0.4035
  117CHL1   C1714868   4.991   1.056  16.016 -0.7924  0.1338 -0.0128
  117CHL1   H1714869   5.072   1.129  16.040  0.8399 -2.1231  1.7452
  117CHL1   C1314870   4.975   0.972  16.144  0.1125  1.0635  0.4611
  117CHL1   C1814871   4.866   0.857  16.112 -0.1869  0.8466  0.0281
  117CHL1  H18A14872   4.785   0.891  16.044  0.4259  1.6798 -0.2964
  117CHL1  H18B14873   4.921   0.773  16.065 -0.6198  0.1888  0.6616
  117CHL1  H18C14874   4.827   0.820  16.209 -0.2659  0.8054 -0.0196
  117CHL1   C1214875   5.106   0.914  16.207  0.4177 -0.7846 -0.2501
  117CHL1  H12A14876   5.156   0.839  16.143  1.0721 -2.2753  1.8866
  117CHL1  H12B14877   5.176   0.999  16.223  0.2454 -0.3772 -1.5533
  117CHL1   C1114878   5.069   0.851  16.342 -0.7112  0.5339 -0.2691
  117CHL1  H11A14879   5.009   0.761  16.316 -2.7652  1.1984  1.8024
  117CHL1  H11B14880   5.162   0.813  16.390  0.2909 -0.3359 -2.7527
  117CHL1    C914881   4.989   0.945  16.437  0.0016  0.2480  0.6532
  117CHL1    H914882   5.050   1.035  16.459  2.2164 -0.3566 -2.4811
  117CHL1   C1014883   4.953   0.887  16.582 -0.2415 -0.5801 -0.1223
  117CHL1   C1914884   4.861   0.766  16.573  0.1548  0.1517  0.1521
  117CHL1  H19A14885   4.922   0.683  16.532  0.3300  0.2594  0.1970
  117CHL1  H19B14886   4.818   0.732  16.669  0.9019  0.7344  0.7017
  117CHL1  H19C14887   4.780   0.797  16.502 -2.8382  2.9879  4.3167
  117CHL1    C114888   5.083   0.874  16.669  0.6549  0.8523 -0.0094
  117CHL1   H1A14889   5.131   0.788  16.617 -0.5180 -0.2770  0.7164
  117CHL1   H1B14890   5.151   0.960  16.653  1.4675  0.2934  0.3743
  117CHL1    C214891   5.061   0.841  16.816 -0.2023  0.2105 -0.3356
  117CHL1   H2A14892   5.161   0.815  16.858 -0.5243 -0.5702 -0.0184
  117CHL1   H2B14893   4.996   0.751  16.828 -2.5450  2.1592  3.6101
  117CHL1   C2014894   5.023   0.971  15.891 -0.2650  1.1605  0.0186
  117CHL1   H2014895   4.995   0.865  15.909  1.9400  0.6294  0.6643
  117CHL1   C2114896   5.178   0.956  15.866 -0.0531  0.1721 -0.3246
  117CHL1  H21A14897   5.223   1.055  15.845 -0.2552  0.2749 -0.2695
  117CHL1  H21B14898   5.187   0.889  15.778 -0.9762 -1.9048  1.0675
  117CHL1  H21C14899   5.236   0.911  15.950 -0.9466 -0.2169  0.0953
  117CHL1   C2214900   4.961   1.026  15.758 -0.3803 -1.0397 -0.1119
  117CHL1  H22A14901   4.854   1.052  15.774 -1.0988 -1.8053 -3.0507
  117CHL1  H22B14902   5.011   1.122  15.732  0.7741 -1.5682  0.0684
  117CHL1   C2314903   4.969   0.938  15.633 -0.2943  0.0709  0.3435
  117CHL1  H23A14904   5.064   0.951  15.576 -0.5338  0.7515  0.0844
  117CHL1  H23B14905   4.954   0.831  15.656 -2.9287  0.7393  2.1658
  117CHL1   C2414906   4.860   0.966  15.532  0.9314 -0.8107 -0.4423
  117CHL1  H24A14907   4.762   0.966  15.584  0.7415  2.6207 -0.5495
  117CHL1  H24B14908   4.873   1.072  15.501 -1.1415 -1.4632 -4.1319
  117CHL1   C2514909   4.848   0.884  15.404 -0.8929 -0.3465 -0.5044
  117CHL1   H2514910   4.851   0.774  15.416  1.5249 -0.4529 -1.5896
  117CHL1   C2614911   4.714   0.922  15.345  0.0125 -0.0854  0.5054
  117CHL1  H26A14912   4.637   0.901  15.422  0.8679 -0.5340  1.2585
  117CHL1  H26B14913   4.696   1.024  15.305  1.6333  0.1650  0.3377
  117CHL1  H26C14914   4.697   0.862  15.253 -1.7388 -0.1727  0.8706
  117CHL1   C2714915   4.966   0.914  15.303  0.3888 -0.4331 -0.2577
  117CHL1  H27A14916   4.996   1.021  15.303 -0.7419 -0.1094 -0.5676
  117CHL1  H27B14917   5.060   0.860  15.327  0.3692  0.4135  1.9221
  117CHL1  H27C14918   4.939   0.877  15.202 -1.1389  0.9890 -0.4197
  118CHL1    C314919   7.535   2.358  16.983 -0.9133 -0.4973  0.0253
  118CHL1    H314920   7.533   2.467  16.966  0.9176 -0.5765 -0.9161
  118CHL1    O314921   7.509   2.324  17.117  0.0714 -0.1491  0.3687
  118CHL1   H3'14922   7.413   2.322  17.122  0.0824 -2.1841  0.5996
  118CHL1    C414923   7.433   2.287  16.896 -0.2255 -0.0491  0.7761
  118CHL1   H4A14924   7.430   2.184  16.939  0.6186  1.2373  4.2540
  118CHL1   H4B14925   7.333   2.329  16.921 -1.1001 -1.3222 -0.3748
  118CHL1    C514926   7.451   2.273  16.748  0.6676  0.4367 -0.0073
  118CHL1    C614927   7.356   2.296  16.660  0.2945 -0.2264  0.7315
  118CHL1    H614928   7.254   2.316  16.697 -0.7019 -1.1225 -1.4040
  118CHL1    C714929   7.376   2.305  16.510 -0.4760  0.3789  0.1892
  118CHL1   H7A14930   7.312   2.232  16.457  0.9174 -1.8518  1.4079
  118CHL1   H7B14931   7.365   2.407  16.467 -1.0661 -0.4270 -1.6669
  118CHL1    C814932   7.516   2.248  16.458  0.4897 -0.2320  0.4618
  118CHL1    H814933   7.503   2.138  16.452 -0.6013 -0.0569 -0.9146
  118CHL1   C1414934   7.550   2.304  16.323  0.4671 -0.1016 -0.4225
  118CHL1   H1414935   7.556   2.414  16.331  1.2022 -0.2565  2.8009
  118CHL1   C1514936   7.442   2.285  16.213  0.1089  0.0459 -0.9261
  118CHL1  H15A14937   7.412   2.179  16.221  0.5106  0.0744  2.6222
  118CHL1  H15B14938   7.356   2.353  16.229 -0.8718 -1.2334 -0.5880
  118CHL1   C1614939   7.527   2.328  16.091  0.2206  0.2291  0.4651
  118CHL1  H16A14940   7.501   2.253  16.014  0.8118  1.5838 -1.1098
  118CHL1  H16B14941   7.489   2.426  16.054 -1.7790  0.0196  1.7814
  118CHL1   C1714942   7.679   2.332  16.128  0.0271  0.2558  0.0136
  118CHL1   H1714943   7.705   2.439  16.143 -0.0102  0.6014 -2.0535
  118CHL1   C1314944   7.680   2.256  16.265  0.0154 -0.0301 -0.9280
  118CHL1   C1814945   7.668   2.103  16.236  0.4336 -0.2348  0.2694
  118CHL1  H18A14946   7.758   2.056  16.193 -1.1551 -2.4372 -0.8486
  118CHL1  H18B14947   7.648   2.058  16.336  1.8114 -1.0818  0.1891
  118CHL1  H18C14948   7.586   2.075  16.166 -1.5620 -1.4227  2.9157
  118CHL1   C1214949   7.795   2.293  16.361 -0.3686  0.7433  0.3566
  118CHL1  H12A14950   7.886   2.248  16.316 -0.1902  0.7469  0.7137
  118CHL1  H12B14951   7.804   2.404  16.358 -0.1250  0.7627  1.5644
  118CHL1   C1114952   7.762   2.246  16.503 -0.1418  0.1469  0.0704
  118CHL1  H11A14953   7.775   2.135  16.506  2.5499  0.3800 -0.0541
  118CHL1  H11B14954   7.846   2.274  16.571  0.0903  1.0715 -0.5913
  118CHL1    C914955   7.625   2.287  16.558 -0.0118 -0.6776 -0.0071
  118CHL1    H914956   7.630   2.398  16.553 -0.6352 -0.6942 -1.3946
  118CHL1   C1014957   7.601   2.238  16.703 -0.0672  0.3243  0.2338
  118CHL1   C1914958   7.623   2.087  16.713 -0.4490 -0.2442  0.5585
  118CHL1  H19A14959   7.592   2.052  16.814  0.4634 -2.1831  0.2265
  118CHL1  H19B14960   7.551   2.039  16.643 -1.7556 -2.1350  3.0073
  118CHL1  H19C14961   7.730   2.063  16.696 -0.6715 -2.5493  1.8879
  118CHL1    C114962   7.702   2.312  16.792 -0.4274 -1.0725 -0.0415
  118CHL1   H1A14963   7.802   2.265  16.782 -0.3283 -0.5708 -1.7343
  118CHL1   H1B14964   7.699   2.420  16.766 -0.2857 -0.9021  0.6383
  118CHL1    C214965   7.669   2.300  16.941  0.0195  0.6978 -0.0877
  118CHL1   H2A14966   7.753   2.354  16.991 -0.0545 -0.2784  1.1460
  118CHL1   H2B14967   7.679   2.191  16.962 -1.3717  0.4652 -0.5493
  118CHL1   C2014968   7.759   2.274  16.011 -0.4334  0.1531  0.0767
  118CHL1   H2014969   7.720   2.175  15.978 -0.0546  0.3588 -1.0130
  118CHL1   C2114970   7.907   2.263  16.048  0.5052 -0.4274  0.1630
  118CHL1  H21A14971   7.923   2.176  16.116  0.8421 -0.3778  0.1484
  118CHL1  H21B14972   7.938   2.358  16.096 -1.3826  0.7514 -0.8070
  118CHL1  H21C14973   7.965   2.273  15.954 -0.6781  4.2431 -0.3040
  118CHL1   C2214974   7.757   2.350  15.875  0.4322 -0.3139 -0.1149
  118CHL1  H22A14975   7.814   2.300  15.794  0.0555 -0.5297 -0.2501
  118CHL1  H22B14976   7.648   2.361  15.857  0.9659  1.5942 -2.6299
  118CHL1   C2314977   7.812   2.496  15.883 -0.3758 -0.2233  0.7407
  118CHL1  H23A14978   7.747   2.568  15.938 -0.4807 -0.1138  0.4757
  118CHL1  H23B14979   7.913   2.493  15.928  0.3433  0.2402 -0.7899
  118CHL1   C2414980   7.833   2.546  15.740 -0.3570  0.1639 -0.2420
  118CHL1  H24A14981   7.907   2.487  15.683 -0.4049  0.5708 -0.7270
  118CHL1  H24B14982   7.739   2.536  15.681  1.1327 -1.6461 -2.4602
  118CHL1   C2514983   7.882   2.692  15.737 -0.6448 -0.3872 -0.2789
  118CHL1   H2514984   7.815   2.746  15.807  2.1261  0.6759  1.7260
  118CHL1   C2614985   8.019   2.724  15.800 -0.1019 -0.3068 -0.0290
  118CHL1  H26A14986   8.037   2.834  15.791 -1.6439  0.1034  1.3555
  118CHL1  H26B14987   8.030   2.687  15.904 -3.5447 -1.5946 -0.0267
  118CHL1  H26C14988   8.100   2.674  15.743  0.4451 -0.6728  1.0270
  118CHL1   C2714989   7.875   2.750  15.594 -0.1372 -0.0140  0.2899
  118CHL1  H27A14990   7.908   2.855  15.595 -0.1339 -0.0135  1.8566
  118CHL1  H27B14991   7.930   2.684  15.523  0.2126 -0.8274  1.2942
  118CHL1  H27C14992   7.766   2.743  15.571 -0.1328  0.4528  0.1299
  119CHL1    C314993   0.867   1.027  16.729 -0.0687  0.8755  0.1783
  119CHL1    H314994   0.928   1.120  16.735  1.6723 -0.2032 -0.2598
  119CHL1    O314995   0.799   1.010  16.853 -0.1268 -0.1458  0.2969
  119CHL1   H3'14996   0.793   0.915  16.863  2.3612 -0.3736  0.3406
  119CHL1    C414997   0.765   1.031  16.610  0.0510  0.2151 -0.4542
  119CHL1   H4A14998   0.703   0.940  16.624  0.2965  0.2976  1.5634
  119CHL1   H4B14999   0.703   1.123  16.622 -2.1279 -1.0270 -1.5852
  119CHL1    C515000   0.835   1.033  16.483 -0.2790 -0.5413  0.6490
  119CHL1    C615001   0.809   1.132  16.395 -0.0898  0.2693 -0.0671
  119CHL1    H615002   0.736   1.210  16.423 -0.4536  0.1154 -0.5621
  119CHL1    C715003   0.857   1.139  16.250 -0.3100  0.4589 -0.9748
  119CHL1   H7A15004   0.762   1.140  16.192  0.2880 -1.5028 -2.0839
  119CHL1   H7B15005   0.917   1.227  16.220  1.4838 -0.9230 -1.6918
  119CHL1    C815006   0.936   1.011  16.202  0.6314 -0.4735 -0.8665
  119CHL1    H815007   0.861   0.933  16.176  1.4029 -0.8566 -1.9796
  119CHL1   C1415008   1.015   1.044  16.081 -0.5907  0.0070  0.0070
  119CHL1   H1415009   1.088   1.120  16.116 -1.0538 -0.1355  1.3312
  119CHL1   C1515010   0.952   1.116  15.962 -0.1986 -0.2139 -0.0106
  119CHL1  H15A15011   0.882   1.050  15.907  0.7588 -2.9029  1.7659
  119CHL1  H15B15012   0.918   1.218  15.988  0.0758  0.2691 -1.5053
  119CHL1   C1615013   1.071   1.118  15.874  0.4210  0.3589  0.6967
  119CHL1  H16A15014   1.024   1.095  15.776 -0.7483  1.1034  1.0588
  119CHL1  H16B15015   1.123   1.216  15.874  1.0257  0.1104 -1.7250
  119CHL1   C1715016   1.177   1.012  15.914 -0.2426  0.3230  0.2341
  119CHL1   H1715017   1.254   1.079  15.958 -0.7341  0.7936  0.3981
  119CHL1   C1315018   1.112   0.937  16.031  0.8249  0.0053  0.4742
  119CHL1   C1815019   1.036   0.809  15.982 -0.1572 -0.3036 -0.4878
  119CHL1  H18A15020   0.962   0.783  16.061 -0.9403 -1.5874 -1.6113
  119CHL1  H18B15021   0.968   0.834  15.898 -2.3061  1.2793  1.5699
  119CHL1  H18C15022   1.107   0.733  15.943  0.3237  0.6590 -1.5525
  119CHL1   C1215023   1.209   0.896  16.147 -0.4235  0.7363  0.3157
  119CHL1  H12A15024   1.269   0.809  16.115  2.0186  1.7902  1.7918
  119CHL1  H12B15025   1.278   0.979  16.171 -1.4232  1.1307  2.0527
  119CHL1   C1115026   1.126   0.856  16.272  0.7793  0.6517  0.2648
  119CHL1  H11A15027   1.074   0.764  16.238 -0.3874  1.6936 -0.9365
  119CHL1  H11B15028   1.190   0.828  16.357  0.4318 -3.3334 -0.5911
  119CHL1    C915029   1.021   0.959  16.322  0.3424 -0.4400  0.1532
  119CHL1    H915030   1.086   1.046  16.344 -2.5266  1.6541  0.8935
  119CHL1   C1015031   0.938   0.923  16.452 -0.3263  0.4297  0.1862
  119CHL1   C1915032   0.873   0.782  16.442 -0.2374 -0.0793 -0.0755
  119CHL1  H19A15033   0.813   0.765  16.534 -0.3977  0.8381 -0.0066
  119CHL1  H19B15034   0.809   0.780  16.351  0.2484 -0.3160 -0.4129
  119CHL1  H19C15035   0.948   0.700  16.434 -0.3011 -0.0609 -0.9797
  119CHL1    C115036   1.039   0.918  16.579  0.3950 -0.4317  0.3925
  119CHL1   H1A15037   1.094   0.821  16.572 -0.2924 -0.7889 -0.1697
  119CHL1   H1B15038   1.110   1.003  16.582  0.0394 -0.1473  0.6903
  119CHL1    C215039   0.967   0.915  16.715 -0.4590  0.7787 -0.3859
  119CHL1   H2A15040   1.043   0.922  16.796 -2.9840 -0.7091  2.3053
  119CHL1   H2B15041   0.915   0.817  16.724 -0.2356  0.5405 -1.4964
  119CHL1   C2015042   1.233   0.925  15.805 -0.0797 -0.2257  0.3019
  119CHL1   H2015043   1.155   0.857  15.762  0.5270 -1.1747  0.6708
  119CHL1   C2115044   1.349   0.837  15.856 -0.1153 -0.3222 -0.5827
  119CHL1  H21A15045   1.304   0.750  15.909  0.3251  0.0738  0.4669
  119CHL1  H21B15046   1.410   0.888  15.933  1.1486 -0.9476 -1.1325
  119CHL1  H21C15047   1.413   0.798  15.773  2.2970  0.6566  0.7361
  119CHL1   C2215048   1.278   1.013  15.682 -0.2485 -0.1361  0.2101
  119CHL1  H22A15049   1.193   1.081  15.657 -0.3039  0.9021  2.8256
  119CHL1  H22B15050   1.364   1.079  15.707 -1.9565  2.5289 -0.5040
  119CHL1   C2315051   1.307   0.939  15.546  0.7055 -0.3372 -0.5791
  119CHL1  H23A15052   1.364   0.845  15.560  0.9139 -0.5386 -2.4792
  119CHL1  H23B15053   1.209   0.909  15.502 -1.0188  1.3695  1.8745
  119CHL1   C2415054   1.371   1.033  15.451  0.2784 -0.1474  0.3496
  119CHL1  H24A15055   1.308   1.124  15.442 -0.4841 -0.8124 -1.4682
  119CHL1  H24B15056   1.474   1.060  15.484 -0.3845  0.4504  2.0013
  119CHL1   C2515057   1.382   0.971  15.314 -0.2268 -0.2184 -0.3248
  119CHL1   H2515058   1.421   0.868  15.323  0.1342 -0.4063 -3.0483
  119CHL1   C2615059   1.247   0.954  15.235 -0.1133 -0.1180  0.1670
  119CHL1  H26A15060   1.169   0.926  15.308  0.7861 -4.1794 -0.1721
  119CHL1  H26B15061   1.229   1.050  15.182 -0.5249  1.0374  2.2812
  119CHL1  H26C15062   1.261   0.876  15.157  2.6163  0.1537  0.2720
  119CHL1   C2715063   1.485   1.051  15.227  0.6076  0.3001 -0.0338
  119CHL1  H27A15064   1.590   1.040  15.260  1.1298  0.7563 -1.4815
  119CHL1  H27B15065   1.478   1.004  15.126 -0.4523 -0.8720  0.5598
  119CHL1  H27C15066   1.448   1.154  15.209 -0.4039 -0.2994 -1.6589
  120CHL1    C315067   6.783   1.814  17.036 -0.0311  0.2823  0.6513
  120CHL1    H315068   6.726   1.887  16.975  0.5224  1.1348  1.1326
  120CHL1    O315069   6.760   1.849  17.164  0.0877 -0.5862 -0.2119
  120CHL1   H3'15070   6.830   1.813  17.219  0.4055  0.0292 -0.2056
  120CHL1    C415071   6.737   1.675  17.013 -0.2743  0.2218  0.3946
  120CHL1   H4A15072   6.794   1.602  17.075  4.5746  1.1611 -2.4075
  120CHL1   H4B15073   6.632   1.664  17.046 -1.1308  0.1463 -2.1425
  120CHL1    C515074   6.756   1.628  16.868  0.2011  0.0622 -0.2277
  120CHL1    C615075   6.650   1.580  16.792  0.0100 -0.7293  0.5982
  120CHL1    H615076   6.549   1.587  16.835  0.0505  0.4346  0.5581
  120CHL1    C715077   6.671   1.542  16.651 -0.0458  0.2459  0.3347
  120CHL1   H7A15078   6.596   1.462  16.633  0.8204 -0.8628  1.4676
  120CHL1   H7B15079   6.647   1.627  16.585  0.1398 -0.9660 -1.3569
  120CHL1    C815080   6.820   1.503  16.622  0.1417 -0.2444  0.3908
  120CHL1    H815081   6.841   1.408  16.676 -1.8539 -0.5650  0.6498
  120CHL1   C1415082   6.828   1.496  16.479  0.7737  0.1712 -0.3664
  120CHL1   H1415083   6.810   1.599  16.440  1.6502  0.1811 -0.7741
  120CHL1   C1515084   6.735   1.401  16.405  0.2869 -0.2708 -0.0639
  120CHL1  H15A15085   6.748   1.298  16.442  1.2951  0.5247  1.9132
  120CHL1  H15B15086   6.633   1.444  16.399  0.4155  0.0066 -0.3292
  120CHL1   C1615087   6.797   1.385  16.261  0.4402 -0.3052 -0.2864
  120CHL1  H16A15088   6.796   1.278  16.229 -0.5055 -0.3942  0.0161
  120CHL1  H16B15089   6.734   1.438  16.187  0.8603  0.2858 -0.2276
  120CHL1   C1715090   6.938   1.442  16.272 -0.2546  0.0710  0.3148
  120CHL1   H1715091   6.940   1.549  16.243  1.1042 -0.5908 -2.4080
  120CHL1   C1315092   6.968   1.458  16.429  0.6963  0.4573 -0.0199
  120CHL1   C1815093   7.025   1.325  16.480  0.0404  0.0971 -0.0202
  120CHL1  H18A15094   7.133   1.307  16.459  0.0151 -1.0390  0.7102
  120CHL1  H18B15095   7.005   1.321  16.589  0.5042 -1.4618  0.0390
  120CHL1  H18C15096   6.965   1.241  16.438  1.4398 -1.1093  0.3051
  120CHL1   C1215097   7.058   1.573  16.474  0.2983  0.6280 -0.7368
  120CHL1  H12A15098   7.161   1.561  16.434  0.7656  0.6725  0.4150
  120CHL1  H12B15099   7.010   1.665  16.434 -1.1667  0.6281  0.8905
  120CHL1   C1115100   7.057   1.593  16.625  0.0568 -0.1757  0.4011
  120CHL1  H11A15101   7.111   1.501  16.655 -0.1485 -0.6408 -0.6438
  120CHL1  H11B15102   7.121   1.678  16.658 -0.2956  0.8298 -1.3939
  120CHL1    C915103   6.918   1.612  16.674  0.4824 -0.4227  0.0320
  120CHL1    H915104   6.877   1.704  16.626 -1.7383  0.0951  2.6837
  120CHL1   C1015105   6.906   1.642  16.822  0.0111  0.1515  0.3557
  120CHL1   C1915106   6.997   1.536  16.895 -0.4692  0.3440  0.2671
  120CHL1  H19A15107   6.975   1.440  16.843  0.2978  0.0621  0.4476
  120CHL1  H19B15108   7.106   1.551  16.878 -0.3694 -1.3671 -0.9593
  120CHL1  H19C15109   6.979   1.536  17.005  2.3512  2.2069  0.8511
  120CHL1    C115110   6.968   1.781  16.856 -0.2482  0.1815  0.3661
  120CHL1   H1A15111   7.078   1.777  16.841 -0.1659 -1.9841  1.1504
  120CHL1   H1B15112   6.925   1.852  16.782 -0.3249  1.1455  1.3119
  120CHL1    C215113   6.934   1.827  16.999  0.1051  0.6087 -0.2168
  120CHL1   H2A15114   6.962   1.933  17.010  0.6770  0.6803 -2.0957
  120CHL1   H2B15115   7.001   1.769  17.066  0.7338  1.8286  0.2305
  120CHL1   C2015116   7.033   1.370  16.171 -0.4107 -0.3060 -0.2979
  120CHL1   H2015117   7.015   1.262  16.190 -0.7564 -0.2113 -0.0657
  120CHL1   C2115118   7.187   1.399  16.193  0.8361 -0.1881  0.2433
  120CHL1  H21A15119   7.222   1.377  16.296 -0.5787  0.6661  0.9311
  120CHL1  H21B15120   7.197   1.507  16.170 -2.0704  0.3823  1.1864
  120CHL1  H21C15121   7.254   1.334  16.133 -1.5326 -1.5795 -1.0661
  120CHL1   C2215122   6.987   1.395  16.022 -0.1998 -0.4698 -0.2872
  120CHL1  H22A15123   7.008   1.304  15.962  0.3693 -0.1822 -0.5254
  120CHL1  H22B15124   6.876   1.398  16.014 -0.3498 -0.3038  1.4969
  120CHL1   C2315125   7.032   1.525  15.950  0.1144 -0.4799 -0.4946
  120CHL1  H23A15126   6.990   1.613  16.003 -0.9389 -0.1879 -1.7838
  120CHL1  H23B15127   7.140   1.548  15.965 -0.5145  3.2009 -0.5942
  120CHL1   C2415128   7.003   1.514  15.797  0.6281  0.1898 -0.2554
  120CHL1  H24A15129   7.063   1.428  15.761 -1.7582 -2.1041  0.9324
  120CHL1  H24B15130   6.896   1.493  15.778  0.1398  2.4567 -0.3502
  120CHL1   C2515131   7.039   1.646  15.720 -0.4170  0.1891 -0.1767
  120CHL1   H2515132   6.995   1.730  15.778  2.8453  2.2165 -0.3444
  120CHL1   C2615133   7.188   1.670  15.714  0.4953  0.2217  0.2977
  120CHL1  H26A15134   7.200   1.778  15.689  0.5532  0.4787  1.3812
  120CHL1  H26B15135   7.237   1.659  15.813 -0.0934 -3.3368  0.3210
  120CHL1  H26C15136   7.246   1.611  15.640 -0.1328 -1.3159  0.9975
  120CHL1   C2715137   6.972   1.660  15.585  0.0450  0.3280  0.2816
  120CHL1  H27A15138   6.866   1.627  15.579 -0.2824  0.9214  2.0542
  120CHL1  H27B15139   6.983   1.766  15.553  0.5823 -0.2057 -1.4041
  120CHL1  H27C15140   7.021   1.597  15.507 -0.7412 -0.0756  0.1010
  121CHL1    C315141   4.983   5.369  13.888 -0.2818  0.0438  0.0980
  121CHL1    H315142   4.882   5.411  13.906  0.2365  1.7162 -0.6520
  121CHL1    O315143   5.067   5.462  13.816  0.1361  1.2686  0.2336
  121CHL1   H3'15144   5.151   5.419  13.798 -1.0700 -0.5242 -1.4893
  121CHL1    C415145   5.061   5.333  14.020  0.4370 -0.2448  0.7546
  121CHL1   H4A15146   5.166   5.306  13.994  0.3682 -0.1131  0.3303
  121CHL1   H4B15147   5.055   5.427  14.080 -1.1334 -0.4644  0.9769
  121CHL1    C515148   4.988   5.231  14.099 -0.6624  0.0623 -0.1383
  121CHL1    C615149   4.951   5.246  14.226 -0.0241  0.0961  0.1449
  121CHL1    H615150   4.989   5.333  14.282 -1.2173  0.2635  0.7133
  121CHL1    C715151   4.891   5.146  14.311 -0.0303 -0.3206  0.3178
  121CHL1   H7A15152   4.938   5.137  14.411 -0.3919 -0.8288  0.4434
  121CHL1   H7B15153   4.790   5.189  14.326 -0.1884 -0.6824  0.3036
  121CHL1    C815154   4.865   5.015  14.234  0.8398  0.2510  0.7948
  121CHL1    H815155   4.958   4.954  14.238  1.1838  0.8289  2.3021
  121CHL1   C1415156   4.762   4.934  14.307 -0.1348 -0.0854 -0.5715
  121CHL1   H1415157   4.673   4.999  14.293 -0.8448 -1.0765 -0.8327
  121CHL1   C1515158   4.756   4.919  14.463 -0.6368 -0.2495  0.5575
  121CHL1  H15A15159   4.859   4.894  14.496 -0.8679 -1.5824  0.3352
  121CHL1  H15B15160   4.720   5.015  14.505 -0.4755  0.4978 -0.9267
  121CHL1   C1615161   4.661   4.802  14.489  0.0471 -0.4448  0.0408
  121CHL1  H16A15162   4.719   4.729  14.549 -0.5946 -1.4196 -0.5132
  121CHL1  H16B15163   4.569   4.837  14.540 -0.5017 -1.5238 -0.1950
  121CHL1   C1715164   4.616   4.754  14.350  0.8172 -0.2566 -0.1089
  121CHL1   H1715165   4.529   4.821  14.329  1.0297  0.4510  1.1839
  121CHL1   C1315166   4.729   4.795  14.254 -0.3299  0.4158 -0.1987
  121CHL1   C1815167   4.848   4.705  14.278 -0.3547  0.4236  0.1541
  121CHL1  H18A15168   4.869   4.673  14.382  2.2833 -1.7782 -0.9168
  121CHL1  H18B15169   4.826   4.610  14.225  0.3384  0.1970  0.2678
  121CHL1  H18C15170   4.942   4.741  14.231  1.2413 -3.0425  0.3524
  121CHL1   C1215171   4.698   4.808  14.104  0.0493 -0.3906  0.2490
  121CHL1  H12A15172   4.692   4.709  14.055 -1.9449  0.5308 -1.5472
  121CHL1  H12B15173   4.597   4.855  14.102  0.3496  0.3811  1.6490
  121CHL1   C1115174   4.784   4.899  14.018 -0.3000 -0.5121  0.4357
  121CHL1  H11A15175   4.881   4.852  13.990  0.3062  1.2612 -0.6426
  121CHL1  H11B15176   4.727   4.920  13.925 -0.0768 -3.5348 -0.4949
  121CHL1    C915177   4.830   5.031  14.089  0.4098 -0.2192 -0.0425
  121CHL1    H915178   4.741   5.097  14.097  1.4904  1.0402  3.3052
  121CHL1   C1015179   4.942   5.106  14.016 -0.2515 -1.1523  0.9049
  121CHL1   C1915180   5.075   5.015  14.003 -0.2810 -0.0058 -0.3525
  121CHL1  H19A15181   5.164   5.071  13.967 -0.5275  0.8025  0.2762
  121CHL1  H19B15182   5.095   4.954  14.094  0.6108  0.2390 -0.3795
  121CHL1  H19C15183   5.051   4.934  13.930 -0.2373  0.3713 -0.7912
  121CHL1    C115184   4.884   5.141  13.876  0.6292 -0.3142  0.3601
  121CHL1   H1A15185   4.873   5.055  13.807 -1.5281  0.7548 -0.7238
  121CHL1   H1B15186   4.782   5.184  13.884  1.2674  1.3216  0.2062
  121CHL1    C215187   4.984   5.241  13.804  0.1671  0.3697 -0.2467
  121CHL1   H2A15188   4.957   5.273  13.701 -0.5781  1.4865  0.2765
  121CHL1   H2B15189   5.085   5.197  13.794 -0.1245 -0.1926 -0.7666
  121CHL1   C2015190   4.551   4.613  14.349  0.4120 -0.0577 -0.2708
  121CHL1   H2015191   4.638   4.545  14.361 -0.0902 -0.5600  0.5797
  121CHL1   C2115192   4.474   4.590  14.214 -0.9755  0.5659 -0.1527
  121CHL1  H21A15193   4.418   4.494  14.216  2.4830 -1.6343 -0.6634
  121CHL1  H21B15194   4.544   4.583  14.128 -3.5913 -0.1652 -2.3549
  121CHL1  H21C15195   4.400   4.670  14.193 -1.2165  0.0963 -1.1504
  121CHL1   C2215196   4.460   4.589  14.466  0.0514  1.1258  0.6414
  121CHL1  H22A15197   4.411   4.492  14.445  1.1332  1.0850 -2.1055
  121CHL1  H22B15198   4.512   4.569  14.562 -0.0365 -1.3054  0.2443
  121CHL1   C2315199   4.332   4.677  14.482 -0.3060  0.0176  0.1334
  121CHL1  H23A15200   4.373   4.765  14.536 -1.3250  0.0391  0.8842
  121CHL1  H23B15201   4.304   4.711  14.380  0.2695 -2.6000 -0.9691
  121CHL1   C2415202   4.231   4.594  14.559  0.1062 -0.4002  0.0482
  121CHL1  H24A15203   4.206   4.498  14.509 -1.3324  0.6586 -1.4274
  121CHL1  H24B15204   4.272   4.561  14.656 -1.4453 -0.5363  0.6974
  121CHL1   C2515205   4.093   4.659  14.575  0.1170  0.3185 -0.1966
  121CHL1   H2515206   4.029   4.674  14.485 -1.0657 -1.0045  0.3809
  121CHL1   C2615207   3.999   4.579  14.676 -0.1271 -0.0555  0.1102
  121CHL1  H26A15208   3.895   4.617  14.664  0.3247  2.0242  2.0092
  121CHL1  H26B15209   4.015   4.471  14.656  1.5935  0.4630 -1.6043
  121CHL1  H26C15210   4.025   4.594  14.783 -0.7734 -2.1255  0.5957
  121CHL1   C2715211   4.105   4.796  14.639  0.0110 -0.0729  0.0490
  121CHL1  H27A15212   4.004   4.836  14.660  0.5207 -0.0175  2.8258
  121CHL1  H27B15213   4.150   4.795  14.741 -0.9256 -0.2952  0.4765
  121CHL1  H27C15214   4.150   4.867  14.567 -0.5691 -1.7514 -2.0500
  122CHL1    C315215   4.043   5.195  13.938  0.1407 -0.3864  0.2251
  122CHL1    H315216   4.136   5.225  13.884  0.4691 -3.4592 -1.0768
  122CHL1    O315217   3.953   5.164  13.830  0.4179 -0.3453  0.5598
  122CHL1   H3'15218   3.886   5.231  13.841  0.0918 -0.8123  1.5021
  122CHL1    C415219   4.062   5.078  14.022  0.6819  0.3788  0.2857
  122CHL1   H4A15220   3.961   5.046  14.054 -0.6392  1.7017 -2.2779
  122CHL1   H4B15221   4.093   4.991  13.960  1.0579  2.0139 -1.9145
  122CHL1    C515222   4.151   5.104  14.147 -0.3060 -0.3725 -0.6898
  122CHL1    C615223   4.265   5.037  14.176  0.3556 -0.1559 -0.7507
  122CHL1    H615224   4.299   4.954  14.113 -2.4773 -0.6627 -1.7528
  122CHL1    C715225   4.339   5.056  14.302 -0.5194  0.1895  0.6281
  122CHL1   H7A15226   4.372   4.955  14.332  2.1192  1.1412  1.1726
  122CHL1   H7B15227   4.428   5.121  14.289 -0.3702  0.7413  3.6535
  122CHL1    C815228   4.266   5.136  14.415 -0.0129 -0.1326 -0.1028
  122CHL1    H815229   4.184   5.075  14.457 -2.0422  0.5138 -2.8919
  122CHL1   C1415230   4.349   5.183  14.536  0.2530 -0.2739 -0.3345
  122CHL1   H1415231   4.428   5.244  14.487 -0.6261  1.6774  0.6017
  122CHL1   C1515232   4.426   5.076  14.618 -0.2313 -1.0610  0.4573
  122CHL1  H15A15233   4.349   5.002  14.649 -1.6327 -0.9232 -2.4063
  122CHL1  H15B15234   4.503   5.033  14.551 -0.3313 -0.2044 -0.2227
  122CHL1   C1615235   4.478   5.164  14.739 -0.5007  0.2979 -0.2965
  122CHL1  H16A15236   4.472   5.114  14.838 -0.2263  1.5213  0.3576
  122CHL1  H16B15237   4.585   5.194  14.730 -0.2332  0.4853  2.6952
  122CHL1   C1715238   4.392   5.302  14.737  0.3338  0.3182 -0.1255
  122CHL1   H1715239   4.453   5.388  14.701 -0.0792  0.9997  0.7480
  122CHL1   C1315240   4.281   5.278  14.634 -0.1034  0.5603  0.8901
  122CHL1   C1815241   4.160   5.201  14.704 -0.5831 -0.2374 -0.0028
  122CHL1  H18A15242   4.203   5.117  14.764 -2.1184 -0.5700  0.6692
  122CHL1  H18B15243   4.101   5.267  14.771  0.5581 -0.6636  1.5014
  122CHL1  H18C15244   4.097   5.161  14.623 -1.8107 -0.1769  0.8962
  122CHL1   C1215245   4.234   5.398  14.560  0.2159 -0.7867 -0.9452
  122CHL1  H12A15246   4.196   5.472  14.633  0.8227 -0.1899 -1.2216
  122CHL1  H12B15247   4.324   5.449  14.518 -0.2665  1.0071  0.1236
  122CHL1   C1115248   4.136   5.365  14.445 -0.4637 -0.1286 -0.3999
  122CHL1  H11A15249   4.037   5.340  14.487  0.5728 -3.0100  0.6023
  122CHL1  H11B15250   4.112   5.450  14.377 -0.7398 -0.6887 -1.0083
  122CHL1    C915251   4.195   5.260  14.351 -0.3728 -0.0323 -0.2951
  122CHL1    H915252   4.277   5.306  14.293  0.6206 -0.8917  0.3825
  122CHL1   C1015253   4.095   5.217  14.238  0.0514  0.0613  0.4664
  122CHL1   C1915254   3.969   5.157  14.309 -0.4373 -0.9847  0.0072
  122CHL1  H19A15255   3.894   5.122  14.235  2.0126 -0.7975 -2.7767
  122CHL1  H19B15256   3.999   5.079  14.382 -0.5645 -0.8783  0.1744
  122CHL1  H19C15257   3.914   5.240  14.359 -2.0404 -1.9992 -0.0084
  122CHL1    C115258   4.070   5.342  14.150 -0.0278  0.1312  0.0314
  122CHL1   H1A15259   4.012   5.410  14.216  0.2721 -0.4006  0.8585
  122CHL1   H1B15260   4.168   5.386  14.123  0.0117  0.1114  0.1386
  122CHL1    C215261   3.991   5.315  14.021  0.5745 -0.4617  0.2132
  122CHL1   H2A15262   3.993   5.397  13.946  0.2428 -1.0487 -0.4518
  122CHL1   H2B15263   3.889   5.282  14.048  1.1479 -3.2586 -0.6731
  122CHL1   C2015264   4.353   5.334  14.874 -0.2889 -0.2282 -0.0897
  122CHL1   H2015265   4.295   5.253  14.924  1.9482 -0.4912  2.2582
  122CHL1   C2115266   4.278   5.471  14.885 -0.2376  0.2057 -0.0821
  122CHL1  H21A15267   4.338   5.540  14.822  0.7679 -1.1432 -0.6510
  122CHL1  H21B15268   4.270   5.508  14.990 -0.1812  1.6647 -0.5708
  122CHL1  H21C15269   4.178   5.457  14.838 -0.2470  1.3766 -0.4340
  122CHL1   C2215270   4.473   5.357  14.978 -0.2295  0.3545 -0.3401
  122CHL1  H22A15271   4.429   5.402  15.069 -0.8578 -2.4687  0.8610
  122CHL1  H22B15272   4.515   5.265  15.024  1.8329  1.2135 -0.4281
  122CHL1   C2315273   4.595   5.440  14.934 -0.4281  0.0590  0.5339
  122CHL1  H23A15274   4.648   5.381  14.856  0.6010  1.5599  0.0611
  122CHL1  H23B15275   4.555   5.533  14.889 -1.2165 -0.1536  0.7819
  122CHL1   C2415276   4.691   5.480  15.055 -0.4893 -0.2456  0.5186
  122CHL1  H24A15277   4.734   5.388  15.101  1.2301 -0.6099 -1.6508
  122CHL1  H24B15278   4.774   5.536  15.007 -0.5427 -0.4721  0.1554
  122CHL1   C2515279   4.623   5.562  15.174  0.2664 -0.6030 -0.0301
  122CHL1   H2515280   4.526   5.510  15.188  0.5595 -1.6284 -1.5613
  122CHL1   C2615281   4.705   5.566  15.307  0.4856 -0.6559  0.1727
  122CHL1  H26A15282   4.648   5.601  15.396  1.8032 -3.0688  2.0908
  122CHL1  H26B15283   4.757   5.471  15.332 -0.3157 -0.6865  1.8169
  122CHL1  H26C15284   4.789   5.637  15.292 -1.6829  2.1712  0.7515
  122CHL1   C2715285   4.599   5.705  15.128  0.0512 -0.0312 -0.5511
  122CHL1  H27A15286   4.541   5.759  15.206  1.8648  1.4696 -0.1569
  122CHL1  H27B15287   4.686   5.771  15.108 -0.4047  0.7163 -0.1127
  122CHL1  H27C15288   4.537   5.717  15.036  0.9963  1.6566 -1.0054
  123CHL1    C315289   6.258   5.298  13.499 -0.0957 -0.1896 -0.1958
  123CHL1    H315290   6.247   5.406  13.521  2.4460  0.7721 -3.0328
  123CHL1    O315291   6.241   5.288  13.363  0.5374  0.8604 -0.0614
  123CHL1   H3'15292   6.288   5.207  13.341  1.9391  1.7089 -0.3422
  123CHL1    C415293   6.412   5.279  13.530 -0.3049  0.5943 -0.1017
  123CHL1   H4A15294   6.454   5.187  13.486  0.7960  1.4196 -0.8386
  123CHL1   H4B15295   6.460   5.364  13.475  0.4232  0.6787  0.6490
  123CHL1    C515296   6.430   5.299  13.679  0.4602  0.4269 -0.6147
  123CHL1    C615297   6.507   5.397  13.720 -0.3036  0.1278  0.5083
  123CHL1    H615298   6.560   5.462  13.649  0.3531 -0.5779  0.3269
  123CHL1    C715299   6.532   5.414  13.867  0.5305  0.1614 -0.5353
  123CHL1   H7A15300   6.640   5.439  13.871  1.5685 -3.7953  1.4276
  123CHL1   H7B15301   6.479   5.501  13.912  0.5809 -0.1790  0.2025
  123CHL1    C815302   6.496   5.295  13.960 -0.0983  0.1052 -0.7790
  123CHL1    H815303   6.562   5.212  13.928  0.3173  1.2131 -3.0058
  123CHL1   C1415304   6.500   5.326  14.114 -0.5340 -0.1505 -0.0743
  123CHL1   H1415305   6.433   5.410  14.141 -1.6771 -0.9165 -0.4326
  123CHL1   C1515306   6.633   5.363  14.183 -0.3272  0.0155  0.2393
  123CHL1  H15A15307   6.707   5.283  14.159 -0.8767 -0.5305  0.3295
  123CHL1  H15B15308   6.671   5.462  14.151 -0.5058 -0.1201 -0.4040
  123CHL1   C1615309   6.608   5.353  14.336 -0.6072  0.3606 -0.3173
  123CHL1  H16A15310   6.699   5.312  14.386 -0.5462  0.6246 -0.2071
  123CHL1  H16B15311   6.591   5.456  14.374 -0.3310  0.4092 -0.3209
  123CHL1   C1715312   6.485   5.259  14.346  0.2627  0.0212 -0.0741
  123CHL1   H1715313   6.396   5.324  14.366 -2.2183 -2.6448 -1.6081
  123CHL1   C1315314   6.451   5.210  14.202  0.3936  0.3314 -0.3334
  123CHL1   C1815315   6.528   5.077  14.182 -0.0722 -0.3555  0.0406
  123CHL1  H18A15316   6.547   5.057  14.074  0.3069 -0.0584  0.0513
  123CHL1  H18B15317   6.630   5.093  14.223 -0.4856  1.9051  0.3440
  123CHL1  H18C15318   6.488   4.982  14.224 -1.2192  0.6016  1.1889
  123CHL1   C1215319   6.303   5.194  14.169  0.1402 -0.0417 -0.3146
  123CHL1  H12A15320   6.256   5.109  14.223 -1.5253  0.4018 -1.0130
  123CHL1  H12B15321   6.246   5.287  14.185  1.0161  0.5992 -0.8136
  123CHL1   C1115322   6.282   5.159  14.018  0.4570 -0.5515  0.2694
  123CHL1  H11A15323   6.327   5.057  14.009  2.0796  0.1534 -0.0227
  123CHL1  H11B15324   6.175   5.158  13.991  0.4598  1.6551 -0.0031
  123CHL1    C915325   6.351   5.258  13.922 -0.2088 -0.1030 -0.1322
  123CHL1    H915326   6.288   5.349  13.933 -0.3860 -0.0008 -1.7030
  123CHL1   C1015327   6.340   5.212  13.769  0.1437 -0.8181 -0.5160
  123CHL1   C1915328   6.409   5.076  13.755  0.2855  0.6319 -0.8673
  123CHL1  H19A15329   6.413   5.045  13.648 -1.3834  0.1182 -0.8073
  123CHL1  H19B15330   6.514   5.069  13.791  0.2046  1.1296 -0.5263
  123CHL1  H19C15331   6.346   4.993  13.792 -0.0494  1.5322  0.6394
  123CHL1    C115332   6.186   5.208  13.721 -0.2320 -0.2361 -0.1206
  123CHL1   H1A15333   6.133   5.131  13.782 -2.0305  0.9352 -0.1253
  123CHL1   H1B15334   6.145   5.303  13.759  0.6859 -0.1913  0.7835
  123CHL1    C215335   6.160   5.207  13.568  0.3380  0.0909 -0.8570
  123CHL1   H2A15336   6.054   5.240  13.558  0.1286  0.5591  2.0411
  123CHL1   H2B15337   6.165   5.112  13.510  3.3397 -0.3174 -0.0468
  123CHL1   C2015338   6.482   5.158  14.460 -0.5025  0.4034 -0.4917
  123CHL1   H2015339   6.435   5.066  14.419  0.4691 -1.1205  1.6372
  123CHL1   C2115340   6.389   5.198  14.573  0.7574  0.4340  0.4905
  123CHL1  H21A15341   6.425   5.291  14.621 -0.1439  0.8347  0.3945
  123CHL1  H21B15342   6.382   5.115  14.648  3.5212 -1.4486 -1.1444
  123CHL1  H21C15343   6.287   5.208  14.531  0.7148  1.8838  0.8937
  123CHL1   C2215344   6.610   5.102  14.511  0.2077  0.1544 -0.6713
  123CHL1  H22A15345   6.593   5.010  14.571  0.0770  0.5854 -0.0359
  123CHL1  H22B15346   6.667   5.073  14.421  1.7496 -2.9073  1.1029
  123CHL1   C2315347   6.675   5.190  14.618 -0.1218  0.1681  0.0843
  123CHL1  H23A15348   6.685   5.296  14.585 -0.9118  0.4491  0.7016
  123CHL1  H23B15349   6.608   5.203  14.706  0.3979  2.1850  0.2197
  123CHL1   C2415350   6.808   5.135  14.672  0.1320 -0.2723  0.1150
  123CHL1  H24A15351   6.783   5.029  14.696  0.2562 -0.8115 -1.9987
  123CHL1  H24B15352   6.881   5.122  14.589 -1.6159  2.1492 -1.9551
  123CHL1   C2515353   6.868   5.196  14.807 -0.1556  0.2652 -0.0744
  123CHL1   H2515354   6.871   5.307  14.803  2.6763  0.3281  1.4827
  123CHL1   C2615355   6.770   5.154  14.917 -0.1147 -0.0396  0.6889
  123CHL1  H26A15356   6.803   5.187  15.018  0.2827 -1.9433  1.2246
  123CHL1  H26B15357   6.664   5.185  14.900 -0.3200 -0.6487  0.8343
  123CHL1  H26C15358   6.763   5.043  14.920 -1.2225  0.0206  0.7557
  123CHL1   C2715359   7.007   5.155  14.845 -0.0498 -0.5577  0.1078
  123CHL1  H27A15360   7.079   5.201  14.774  1.2029  1.0403  2.3190
  123CHL1  H27B15361   7.035   5.192  14.946  2.2803  0.0102 -0.6683
  123CHL1  H27C15362   7.023   5.046  14.859 -0.1964 -0.9063 -2.0069
  124CHL1    C315363   4.267   6.190  14.069 -0.7827 -0.1961 -0.1795
  124CHL1    H315364   4.240   6.128  14.157 -0.5188 -0.1686 -0.0802
  124CHL1    O315365   4.163   6.202  13.976  0.6273  0.9313 -1.0971
  124CHL1   H3'15366   4.142   6.295  13.969 -0.4875  0.7813 -0.1312
  124CHL1    C415367   4.306   6.335  14.110  0.4306 -0.6027 -0.0248
  124CHL1   H4A15368   4.334   6.395  14.021  0.5630  0.4722  0.7257
  124CHL1   H4B15369   4.214   6.373  14.160  0.6525 -2.1685  1.6840
  124CHL1    C515370   4.415   6.324  14.213 -0.3456  0.3600  0.2035
  124CHL1    C615371   4.390   6.366  14.334 -0.2424 -0.0232 -0.1262
  124CHL1    H615372   4.292   6.410  14.359  0.8544  2.2403  0.4795
  124CHL1    C715373   4.488   6.375  14.439 -0.2262 -0.5231 -0.8307
  124CHL1   H7A15374   4.487   6.467  14.501 -2.0417  0.8924 -2.8035
  124CHL1   H7B15375   4.476   6.290  14.510  3.4692 -0.5381 -0.0451
  124CHL1    C815376   4.632   6.352  14.387 -0.6560 -0.4416 -0.1256
  124CHL1    H815377   4.656   6.445  14.330  1.3449 -2.0924 -2.1640
  124CHL1   C1415378   4.729   6.325  14.509 -0.0258  0.1748  0.6391
  124CHL1   H1415379   4.697   6.230  14.557 -0.4747  1.1482  2.3787
  124CHL1   C1515380   4.727   6.424  14.618  0.2968 -0.1510 -0.6355
  124CHL1  H15A15381   4.722   6.533  14.597 -5.5593 -0.0728 -0.5524
  124CHL1  H15B15382   4.649   6.400  14.694  1.2118 -0.6617  0.1755
  124CHL1   C1615383   4.853   6.390  14.703  0.4506 -0.2430  0.1289
  124CHL1  H16A15384   4.923   6.475  14.722  0.0315  0.0069  0.5606
  124CHL1  H16B15385   4.826   6.348  14.802  0.6127 -0.5053  0.0618
  124CHL1   C1715386   4.928   6.285  14.616  0.4182  0.1043 -0.0022
  124CHL1   H1715387   4.883   6.189  14.651 -1.1457  0.8420  0.0990
  124CHL1   C1315388   4.872   6.297  14.470  0.0695 -0.3018  0.0444
  124CHL1   C1815389   4.929   6.422  14.399 -0.2583 -0.3715  0.1116
  124CHL1  H18A15390   4.919   6.511  14.465 -0.3644 -0.4237  0.1656
  124CHL1  H18B15391   5.037   6.408  14.375 -0.7403  0.1498 -2.6382
  124CHL1  H18C15392   4.872   6.446  14.307  0.2385 -0.1153 -0.1312
  124CHL1   C1215393   4.871   6.174  14.379  0.2366 -0.0699  0.3106
  124CHL1  H12A15394   4.974   6.147  14.349 -0.1470 -0.6896 -0.5004
  124CHL1  H12B15395   4.831   6.094  14.445 -1.7851 -1.0145 -1.9005
  124CHL1   C1115396   4.779   6.188  14.252  0.2282 -0.5581  0.4397
  124CHL1  H11A15397   4.834   6.257  14.185 -0.7105 -1.4409 -1.3145
  124CHL1  H11B15398   4.783   6.087  14.207  0.1647 -0.5143  0.3383
  124CHL1    C915399   4.638   6.235  14.286  0.0550 -0.0562 -0.3689
  124CHL1    H915400   4.599   6.149  14.344 -1.4208  0.6432 -0.2734
  124CHL1   C1015401   4.542   6.262  14.165  0.1017  0.2472 -0.2490
  124CHL1   C1915402   4.618   6.353  14.069 -0.3690  0.5102  0.3600
  124CHL1  H19A15403   4.560   6.396  13.984 -1.2544 -1.6110 -0.1749
  124CHL1  H19B15404   4.660   6.440  14.123  2.6526  0.4872 -1.7270
  124CHL1  H19C15405   4.702   6.294  14.026  0.5997  2.5192 -0.6486
  124CHL1    C115406   4.516   6.131  14.091  1.1896 -0.5511 -0.2002
  124CHL1   H1A15407   4.608   6.097  14.040  0.1334 -1.1633 -1.7907
  124CHL1   H1B15408   4.500   6.058  14.174  1.0922  1.0122  1.2002
  124CHL1    C215409   4.391   6.139  13.997 -0.0741  0.2760 -0.0022
  124CHL1   H2A15410   4.375   6.042  13.946  0.4053 -1.0770  2.2367
  124CHL1   H2B15411   4.422   6.206  13.915  2.4417 -1.1254 -0.3100
  124CHL1   C2015412   5.075   6.283  14.638  0.2733  0.1918  0.1227
  124CHL1   H2015413   5.104   6.390  14.626 -0.9983  0.2845 -3.0432
  124CHL1   C2115414   5.149   6.194  14.534  0.1543 -0.2188 -0.1758
  124CHL1  H21A15415   5.160   6.246  14.436 -1.8054  0.9674  0.1777
  124CHL1  H21B15416   5.101   6.096  14.514  0.9975 -0.5516 -0.6521
  124CHL1  H21C15417   5.253   6.187  14.574 -0.3620  1.6888  1.7224
  124CHL1   C2215418   5.117   6.242  14.782  0.7957  0.0841  0.5521
  124CHL1  H22A15419   5.227   6.248  14.795  1.0179  0.7822 -1.2485
  124CHL1  H22B15420   5.082   6.323  14.849  0.6269 -0.6173  1.3220
  124CHL1   C2315421   5.067   6.109  14.826  0.5930 -0.1289 -0.1123
  124CHL1  H23A15422   4.956   6.103  14.837  0.6745  1.6502  2.9800
  124CHL1  H23B15423   5.107   6.037  14.752  1.5274  1.4121 -1.1515
  124CHL1   C2415424   5.131   6.077  14.959  0.8627 -0.0879 -0.2214
  124CHL1  H24A15425   5.095   5.977  14.990  2.5537 -0.8156 -0.4917
  124CHL1  H24B15426   5.239   6.063  14.935  0.8668 -2.0412  0.7116
  124CHL1   C2515427   5.114   6.171  15.080  0.1216  0.0572  0.5989
  124CHL1   H2515428   5.127   6.279  15.055 -2.6018 -0.1412 -2.2663
  124CHL1   C2615429   4.972   6.156  15.136  0.5733 -0.5052  0.1465
  124CHL1  H26A15430   4.884   6.169  15.070  0.2816 -0.6134  0.5114
  124CHL1  H26B15431   4.969   6.052  15.175 -1.5585 -1.1036 -1.4205
  124CHL1  H26C15432   4.948   6.224  15.221  1.1104 -0.0503 -0.0556
  124CHL1   C2715433   5.222   6.156  15.185 -0.2591 -0.5469 -0.5712
  124CHL1  H27A15434   5.321   6.198  15.157  0.1418 -0.5228  0.7923
  124CHL1  H27B15435   5.183   6.208  15.275  4.3332 -0.9800  1.9764
  124CHL1  H27C15436   5.233   6.050  15.219 -1.9191 -0.9393 -1.1518
  125CHL1    C315437   4.655   6.709  13.639  0.4553 -0.0867 -0.1731
  125CHL1    H315438   4.753   6.761  13.647 -0.1420  1.7886 -3.3148
  125CHL1    O315439   4.636   6.643  13.516  0.3828  0.3509  0.2347
  125CHL1   H3'15440   4.541   6.632  13.515  0.0189  2.3587 -3.0059
  125CHL1    C415441   4.671   6.608  13.753 -0.2100  0.8209  0.2770
  125CHL1   H4A15442   4.574   6.554  13.763  0.2247  0.2323  1.6937
  125CHL1   H4B15443   4.741   6.526  13.727  0.4539  1.5997 -0.4240
  125CHL1    C515444   4.710   6.676  13.882  0.4019 -0.0789 -0.4247
  125CHL1    C615445   4.822   6.635  13.945  0.5899  0.4454 -0.3719
  125CHL1    H615446   4.878   6.553  13.899  0.7619  0.7539 -0.7109
  125CHL1    C715447   4.861   6.685  14.082 -1.2375  0.1226  0.3651
  125CHL1   H7A15448   4.892   6.609  14.156 -2.7000 -0.2367  0.6492
  125CHL1   H7B15449   4.948   6.750  14.062 -0.1109 -1.1880  0.8891
  125CHL1    C815450   4.740   6.759  14.150 -0.0683 -0.0211  0.6364
  125CHL1    H815451   4.665   6.685  14.187  0.4729  0.1746  2.1948
  125CHL1   C1415452   4.790   6.846  14.269 -0.2983  0.7207 -0.1377
  125CHL1   H1415453   4.853   6.924  14.221  2.9309 -1.1668  0.7183
  125CHL1   C1515454   4.884   6.776  14.367  0.2505  0.4969 -0.7538
  125CHL1  H15A15455   4.853   6.674  14.399  1.5269 -0.2274 -1.7400
  125CHL1  H15B15456   4.991   6.785  14.339  0.6821  2.2179  1.1593
  125CHL1   C1615457   4.867   6.868  14.495 -0.0791  0.0452 -0.1584
  125CHL1  H16A15458   4.830   6.806  14.579  0.9290 -0.7272 -0.2654
  125CHL1  H16B15459   4.965   6.919  14.507 -0.2170  1.6286 -4.1355
  125CHL1   C1715460   4.760   6.979  14.460  0.4040 -0.1500  0.2852
  125CHL1   H1715461   4.808   7.065  14.408  2.1214 -1.7394 -0.8824
  125CHL1   C1315462   4.680   6.915  14.350  0.3940  0.8100 -0.2369
  125CHL1   C1815463   4.584   6.806  14.408  0.6727  0.0110  0.1009
  125CHL1  H18A15464   4.514   6.769  14.330  0.3184 -1.3597  1.0128
  125CHL1  H18B15465   4.635   6.712  14.439  0.8907 -0.6813 -2.1901
  125CHL1  H18C15466   4.523   6.839  14.495  1.8040  0.6525  0.6736
  125CHL1   C1215467   4.613   7.016  14.251 -0.5544 -0.2608  0.2479
  125CHL1  H12A15468   4.533   7.074  14.302  0.3252 -0.0196  1.3861
  125CHL1  H12B15469   4.680   7.092  14.206  0.2457 -1.0406  0.0905
  125CHL1   C1115470   4.559   6.936  14.130 -0.0167 -0.1891  0.4350
  125CHL1  H11A15471   4.472   6.882  14.172 -0.2801 -0.2946 -0.2382
  125CHL1  H11B15472   4.526   7.004  14.049 -1.5113 -0.6571  0.6300
  125CHL1    C915473   4.665   6.849  14.050  0.1063  0.0970 -0.1051
  125CHL1    H915474   4.745   6.916  14.012 -0.1839  0.5075 -0.0038
  125CHL1   C1015475   4.611   6.773  13.927 -0.6079  0.3158 -0.4199
  125CHL1   C1915476   4.486   6.697  13.983  1.1539  0.5435  0.6180
  125CHL1  H19A15477   4.431   6.629  13.914  0.9018  2.1669 -0.8569
  125CHL1  H19B15478   4.516   6.623  14.060 -2.3480 -2.3980 -0.5295
  125CHL1  H19C15479   4.404   6.757  14.027 -0.3865  0.3881 -1.8550
  125CHL1    C115480   4.578   6.869  13.813 -1.1893  0.3985 -0.0351
  125CHL1   H1A15481   4.492   6.934  13.838 -2.6202 -1.2317 -0.4708
  125CHL1   H1B15482   4.663   6.939  13.805 -0.5573 -0.4535 -1.1395
  125CHL1    C215483   4.546   6.812  13.675  0.5969  0.5728 -0.0991
  125CHL1   H2A15484   4.544   6.882  13.588  0.5203 -1.6619 -1.9770
  125CHL1   H2B15485   4.444   6.770  13.687  0.0616  1.1236 -2.2471
  125CHL1   C2015486   4.696   7.032  14.590  0.2531 -0.1062  0.0359
  125CHL1   H2015487   4.657   6.946  14.648 -1.6404  1.2861  0.9497
  125CHL1   C2115488   4.578   7.118  14.557  0.3038 -0.0058  0.6864
  125CHL1  H21A15489   4.549   7.178  14.646  0.8347  3.6441 -1.3946
  125CHL1  H21B15490   4.487   7.070  14.514 -0.5595  2.6061 -0.6414
  125CHL1  H21C15491   4.613   7.196  14.485 -2.4713 -0.4827 -1.3586
  125CHL1   C2215492   4.794   7.103  14.683  0.5540 -0.2360  0.5621
  125CHL1  H22A15493   4.876   7.033  14.710  1.0732  0.7959  1.7855
  125CHL1  H22B15494   4.831   7.187  14.620 -2.1766  0.9249  0.3396
  125CHL1   C2315495   4.747   7.176  14.812 -0.3768  0.1605 -0.5483
  125CHL1  H23A15496   4.839   7.235  14.835  0.1970 -0.7030 -0.6061
  125CHL1  H23B15497   4.667   7.247  14.782 -0.5504 -0.1647 -0.8621
  125CHL1   C2415498   4.733   7.086  14.933  0.4802  0.2576 -0.8717
  125CHL1  H24A15499   4.643   7.026  14.909  0.3237 -0.8337  2.0474
  125CHL1  H24B15500   4.821   7.019  14.941  1.7554  1.8081 -1.2483
  125CHL1   C2515501   4.703   7.165  15.061 -0.0715  0.0136 -0.2820
  125CHL1   H2515502   4.639   7.256  15.047 -0.0565  0.2830  1.2393
  125CHL1   C2615503   4.639   7.073  15.171  0.5506 -0.3174  0.3462
  125CHL1  H26A15504   4.542   7.036  15.133 -0.2776 -0.0979  2.1780
  125CHL1  H26B15505   4.703   6.990  15.210  1.1983  0.0510  0.0898
  125CHL1  H26C15506   4.624   7.136  15.260  0.5051 -0.6461  0.5736
  125CHL1   C2715507   4.844   7.205  15.116  0.0712  0.3718  0.8875
  125CHL1  H27A15508   4.822   7.254  15.214 -0.5058 -0.2790  1.0915
  125CHL1  H27B15509   4.902   7.110  15.122  0.3603  0.4661 -0.2675
  125CHL1  H27C15510   4.891   7.272  15.041 -0.1201 -1.2773 -0.7599
  126CHL1    C315511   1.965   6.379  14.118  0.3557  0.8972 -1.1095
  126CHL1    H315512   1.936   6.276  14.090 -0.7857  1.7197 -3.1662
  126CHL1    O315513   1.903   6.485  14.049 -0.6048 -0.0289  0.4801
  126CHL1   H3'15514   1.964   6.559  14.056 -2.2901  1.7263 -1.7413
  126CHL1    C415515   1.927   6.400  14.270 -0.8066  0.2954  0.1680
  126CHL1   H4A15516   1.949   6.507  14.293 -0.3447  0.3939 -0.6772
  126CHL1   H4B15517   1.818   6.384  14.262 -0.6649 -0.1863 -1.1389
  126CHL1    C515518   2.000   6.309  14.361  0.0285  0.7742 -0.1328
  126CHL1    C615519   1.931   6.233  14.448 -0.6084  1.7084 -0.1563
  126CHL1    H615520   1.821   6.234  14.448 -0.7276 -1.0363 -1.2301
  126CHL1    C715521   1.999   6.142  14.554 -0.2589  0.9090 -0.0377
  126CHL1   H7A15522   1.948   6.150  14.652  1.0725 -0.6169  0.8257
  126CHL1   H7B15523   1.988   6.034  14.529  1.5677  0.5266  0.6238
  126CHL1    C815524   2.146   6.165  14.567 -0.5395 -0.5749  0.6109
  126CHL1    H815525   2.159   6.261  14.622 -1.7407 -0.4435  0.7003
  126CHL1   C1415526   2.212   6.045  14.643 -0.8292 -0.1912 -0.2064
  126CHL1   H1415527   2.203   5.956  14.577 -2.0486 -0.8571  0.8131
  126CHL1   C1515528   2.156   6.003  14.775 -0.4380  0.4700 -0.3041
  126CHL1  H15A15529   2.127   6.095  14.832 -0.0354  0.5713 -0.2552
  126CHL1  H15B15530   2.067   5.937  14.774  1.1712 -1.8060 -1.4527
  126CHL1   C1615531   2.273   5.920  14.841  0.5378  0.2331  0.2108
  126CHL1  H16A15532   2.292   5.968  14.940  0.4079  1.5370 -0.3806
  126CHL1  H16B15533   2.220   5.822  14.850  0.2114  0.5378  1.9398
  126CHL1   C1715534   2.394   5.933  14.746  0.6378 -0.1155  0.2009
  126CHL1   H1715535   2.384   5.849  14.674 -0.8056  0.8938 -0.8282
  126CHL1   C1315536   2.364   6.052  14.655  0.0622 -0.7209 -0.7090
  126CHL1   C1815537   2.400   6.185  14.723  0.4238  0.4087 -0.0349
  126CHL1  H18A15538   2.343   6.201  14.817  0.3994 -1.4199  0.2874
  126CHL1  H18B15539   2.511   6.194  14.723  0.6383 -1.1603 -2.9843
  126CHL1  H18C15540   2.358   6.275  14.672 -2.2953  1.1824  3.1847
  126CHL1   C1215541   2.422   6.054  14.517  0.0534 -0.3963  0.4406
  126CHL1  H12A15542   2.532   6.066  14.532 -0.2607 -0.2054  3.0761
  126CHL1  H12B15543   2.410   5.961  14.457  0.6393  0.1151 -0.4952
  126CHL1   C1115544   2.366   6.175  14.428 -0.1687  0.2302 -0.4529
  126CHL1  H11A15545   2.413   6.271  14.460 -1.0843  1.3438 -2.3234
  126CHL1  H11B15546   2.406   6.159  14.326  3.2050  1.5625  0.5119
  126CHL1    C915547   2.211   6.184  14.425  0.4051 -0.0603  0.3336
  126CHL1    H915548   2.172   6.098  14.367 -0.7580 -0.3116  1.4482
  126CHL1   C1015549   2.153   6.308  14.349 -0.3875  0.0842  0.3098
  126CHL1   C1915550   2.205   6.439  14.415 -0.4026 -0.0438 -0.3302
  126CHL1  H19A15551   2.316   6.435  14.411 -0.4666 -1.0586 -1.8194
  126CHL1  H19B15552   2.175   6.531  14.361 -2.3599  0.7011  1.8905
  126CHL1  H19C15553   2.180   6.446  14.523  0.5790  1.1838 -0.1655
  126CHL1    C115554   2.197   6.297  14.203  0.2430  0.8085 -0.6751
  126CHL1   H1A15555   2.307   6.299  14.186  0.2399 -0.3437 -0.9212
  126CHL1   H1B15556   2.174   6.199  14.156 -0.0680  0.6403 -0.1780
  126CHL1    C215557   2.115   6.393  14.108  0.0199 -0.1189  0.5154
  126CHL1   H2A15558   2.152   6.375  14.005  0.1745 -0.6201  0.6555
  126CHL1   H2B15559   2.141   6.496  14.141 -0.0398  0.0698 -0.0235
  126CHL1   C2015560   2.535   5.910  14.804 -0.5721 -0.1964 -0.4252
  126CHL1   H2015561   2.606   5.943  14.725 -0.7625 -0.2482 -0.6185
  126CHL1   C2115562   2.556   5.753  14.831  0.1199 -0.7346 -0.6294
  126CHL1  H21A15563   2.582   5.695  14.740  0.2899 -1.2301 -0.2681
  126CHL1  H21B15564   2.459   5.720  14.874 -0.2526  0.1451 -0.7784
  126CHL1  H21C15565   2.634   5.738  14.909 -1.8021 -3.1210  0.9666
  126CHL1   C2215566   2.562   5.992  14.930  0.3597 -0.3422  0.0331
  126CHL1  H22A15567   2.525   6.096  14.917  1.0423 -0.0228  0.5850
  126CHL1  H22B15568   2.511   5.952  15.020  1.3316 -0.0852  0.7130
  126CHL1   C2315569   2.713   6.012  14.962  0.0095  0.1365 -0.1797
  126CHL1  H23A15570   2.767   5.920  14.991  0.2618 -0.1633 -1.5292
  126CHL1  H23B15571   2.760   6.044  14.867  1.7485 -0.3221  0.4941
  126CHL1   C2415572   2.718   6.124  15.072  0.1236  0.0320  0.5523
  126CHL1  H24A15573   2.660   6.204  15.020 -0.4765  1.3893  3.1274
  126CHL1  H24B15574   2.659   6.090  15.160 -0.0415 -2.0015 -0.2971
  126CHL1   C2515575   2.856   6.166  15.111 -0.3452  0.2951  0.1704
  126CHL1   H2515576   2.913   6.179  15.017  0.4669 -0.1812  0.5812
  126CHL1   C2615577   2.855   6.297  15.186 -0.4465 -0.0762  0.0604
  126CHL1  H26A15578   2.818   6.387  15.133  0.6071  0.4564  0.1936
  126CHL1  H26B15579   2.801   6.291  15.283  2.0437  1.4765  1.6587
  126CHL1  H26C15580   2.957   6.328  15.218 -1.0118  0.6058  1.2530
  126CHL1   C2715581   2.928   6.055  15.194  0.2004 -0.1472 -0.3216
  126CHL1  H27A15582   2.868   6.044  15.286  0.2693  4.0165  0.4084
  126CHL1  H27B15583   2.930   5.967  15.126 -0.6685 -0.0546 -0.4729
  126CHL1  H27C15584   3.027   6.097  15.221  0.0381 -0.2283  0.4052
  127CHL1    C315585   3.109   7.207  13.857  0.6117 -0.0535 -0.3057
  127CHL1    H315586   3.055   7.129  13.915 -0.4170  0.2300 -0.8705
  127CHL1    O315587   3.129   7.160  13.730  0.0677  0.4648  0.4459
  127CHL1   H3'15588   3.038   7.144  13.705 -0.7767  1.6469  2.4776
  127CHL1    C415589   3.039   7.348  13.847  0.0146 -0.2275 -0.2992
  127CHL1   H4A15590   3.109   7.410  13.787 -0.6653  0.9680  0.1104
  127CHL1   H4B15591   2.941   7.346  13.795  0.1085 -0.8626 -0.4652
  127CHL1    C515592   3.020   7.405  13.988 -0.4584 -0.1619 -0.3569
  127CHL1    C615593   2.899   7.441  14.035  0.0613  0.2134  0.1546
  127CHL1    H615594   2.811   7.427  13.971  0.2888 -1.0505  0.0785
  127CHL1    C715595   2.871   7.498  14.174 -0.4070  0.1976  0.4937
  127CHL1   H7A15596   2.817   7.596  14.169 -1.4369 -0.2727  1.7895
  127CHL1   H7B15597   2.814   7.430  14.241  0.8511  0.6137  2.0567
  127CHL1    C815598   3.001   7.527  14.258  0.8951 -0.3909 -0.3090
  127CHL1    H815599   3.040   7.627  14.228  1.3263 -0.5475 -0.2814
  127CHL1   C1415600   2.954   7.524  14.405  0.1334  0.2866 -0.7474
  127CHL1   H1415601   2.901   7.431  14.434  2.0505 -0.2818  1.2079
  127CHL1   C1515602   2.854   7.627  14.457  0.0485 -0.0626  0.5394
  127CHL1  H15A15603   2.863   7.728  14.410 -1.0684  1.1490  2.7752
  127CHL1  H15B15604   2.750   7.591  14.439  1.1096 -2.8153 -0.5343
  127CHL1   C1615605   2.871   7.637  14.608 -0.0805 -0.2498 -1.1287
  127CHL1  H16A15606   2.913   7.736  14.635  0.4322 -1.0159  1.0555
  127CHL1  H16B15607   2.781   7.626  14.672  0.4620 -0.1267 -0.3245
  127CHL1   C1715608   2.989   7.542  14.646 -0.1586  0.2787  0.2838
  127CHL1   H1715609   2.952   7.441  14.670  1.2016 -0.3037  0.0395
  127CHL1   C1315610   3.063   7.526  14.513  0.1674 -0.6745 -0.5786
  127CHL1   C1815611   3.147   7.654  14.483  0.1334  0.2694 -0.0597
  127CHL1  H18A15612   3.231   7.662  14.556 -0.5331 -0.5350  0.8294
  127CHL1  H18B15613   3.185   7.668  14.380 -1.3462 -1.1384 -0.8468
  127CHL1  H18C15614   3.084   7.746  14.487 -1.3237 -0.7369  1.1313
  127CHL1   C1215615   3.139   7.394  14.481 -0.2815  0.2049  0.2133
  127CHL1  H12A15616   3.223   7.373  14.550 -0.0041  0.8100  0.0665
  127CHL1  H12B15617   3.065   7.311  14.488 -2.3139  1.9782  0.9458
  127CHL1   C1115618   3.208   7.391  14.341  0.9973  0.3365 -0.5398
  127CHL1  H11A15619   3.276   7.478  14.337  2.4535 -0.8141 -2.0349
  127CHL1  H11B15620   3.264   7.296  14.327  0.0278 -0.2062 -0.8525
  127CHL1    C915621   3.100   7.410  14.236  0.3217 -0.5336  0.2073
  127CHL1    H915622   3.039   7.318  14.247  0.2370 -0.3057  1.9306
  127CHL1   C1015623   3.148   7.407  14.084 -0.3422  0.3843 -0.0903
  127CHL1   C1915624   3.236   7.530  14.041  0.7148  0.0125  0.3704
  127CHL1  H19A15625   3.321   7.546  14.110  0.1076  1.3130  0.8619
  127CHL1  H19B15626   3.275   7.519  13.938  0.5716 -0.2825  0.3455
  127CHL1  H19C15627   3.181   7.627  14.040  1.5597  0.5009 -0.9011
  127CHL1    C115628   3.239   7.281  14.060  0.0161  0.4952  0.4463
  127CHL1   H1A15629   3.341   7.299  14.101 -0.1858 -0.0588  1.2252
  127CHL1   H1B15630   3.193   7.197  14.117 -2.8719  0.7573 -1.2964
  127CHL1    C215631   3.247   7.231  13.916  0.1436  0.4490 -0.0462
  127CHL1   H2A15632   3.312   7.142  13.913  0.7182  0.7589  1.8491
  127CHL1   H2B15633   3.290   7.311  13.852 -1.0356  0.9956 -0.2014
  127CHL1   C2015634   3.073   7.577  14.767 -0.3915  0.0393  0.1188
  127CHL1   H2015635   3.132   7.667  14.739  0.1656 -0.5352 -0.5861
  127CHL1   C2115636   3.159   7.462  14.813  1.0228  0.3883 -0.1926
  127CHL1  H21A15637   3.239   7.432  14.742  0.1306 -2.0179 -0.2867
  127CHL1  H21B15638   3.095   7.371  14.811  1.2712  0.1780 -3.2062
  127CHL1  H21C15639   3.207   7.487  14.910  0.4124  0.6566  0.0455
  127CHL1   C2215640   2.980   7.618  14.885 -0.1842  0.5491  0.0244
  127CHL1  H22A15641   3.042   7.657  14.969  0.4117 -0.9982  0.3357
  127CHL1  H22B15642   2.910   7.700  14.860 -1.4008 -0.3392  0.4202
  127CHL1   C2315643   2.898   7.496  14.934 -0.3934  0.0361 -0.1155
  127CHL1  H23A15644   2.859   7.432  14.852 -1.9566 -1.7542  1.9290
  127CHL1  H23B15645   2.957   7.438  15.008  1.5697  3.7891  1.5467
  127CHL1   C2415646   2.779   7.557  15.007  0.1458 -0.1708 -0.1825
  127CHL1  H24A15647   2.815   7.601  15.102 -2.1875  0.3679  0.5177
  127CHL1  H24B15648   2.726   7.630  14.942  1.3689  0.4794 -0.4579
  127CHL1   C2515649   2.670   7.453  15.045  0.4866 -0.2960  0.1449
  127CHL1   H2515650   2.652   7.389  14.956 -2.1033  1.1848 -0.5097
  127CHL1   C2615651   2.717   7.367  15.157  0.5885  0.6010 -0.1331
  127CHL1  H26A15652   2.740   7.432  15.244  1.1918  0.4412 -0.1716
  127CHL1  H26B15653   2.640   7.292  15.186 -0.4919  1.3132 -1.1027
  127CHL1  H26C15654   2.813   7.320  15.126 -0.1550 -0.1274 -1.4147
  127CHL1   C2715655   2.534   7.516  15.083 -0.0951  0.0491 -0.1420
  127CHL1  H27A15656   2.539   7.580  15.173 -3.5668  2.7612 -1.6210
  127CHL1  H27B15657   2.489   7.567  14.995  1.7847 -1.3216 -1.9941
  127CHL1  H27C15658   2.451   7.445  15.103 -1.7218  2.1048  0.7770
  128CHL1    C315659   4.190   2.268  13.551 -0.2387  0.1080  0.3210
  128CHL1    H315660   4.286   2.320  13.572 -0.8211  1.6381 -0.6963
  128CHL1    O315661   4.202   2.214  13.417 -0.3132 -0.0836 -0.6313
  128CHL1   H3'15662   4.282   2.162  13.429 -0.4674  0.1668  2.3661
  128CHL1    C415663   4.168   2.148  13.649 -0.3300 -0.2572  0.1325
  128CHL1   H4A15664   4.080   2.089  13.617 -1.4539  1.4853 -0.1452
  128CHL1   H4B15665   4.251   2.075  13.638  0.1299  0.3851 -0.8534
  128CHL1    C515666   4.152   2.197  13.790 -0.2873  0.3912  0.7043
  128CHL1    C615667   4.233   2.168  13.893  0.1804 -0.5449  1.0461
  128CHL1    H615668   4.320   2.105  13.869  0.0357  0.2045 -1.8017
  128CHL1    C715669   4.209   2.203  14.036  0.0734 -0.2202  0.1288
  128CHL1   H7A15670   4.241   2.120  14.104 -3.3327 -1.5553  0.3182
  128CHL1   H7B15671   4.279   2.284  14.066 -0.8420  0.0589  1.6128
  128CHL1    C815672   4.062   2.245  14.058 -0.5294  0.0146  0.1913
  128CHL1    H815673   4.002   2.152  14.056 -0.1258 -0.2363 -1.1446
  128CHL1   C1415674   4.060   2.308  14.194  0.1581  0.0855  0.3898
  128CHL1   H1415675   4.123   2.399  14.181  0.5847 -0.2906 -0.2523
  128CHL1   C1515676   4.118   2.227  14.318  0.1852 -0.1892  0.2508
  128CHL1  H15A15677   4.068   2.130  14.300  0.0028  0.0177 -0.3738
  128CHL1  H15B15678   4.228   2.215  14.317  0.2357  0.0520 -1.9943
  128CHL1   C1615679   4.051   2.285  14.444 -0.5758  0.3500  0.3524
  128CHL1  H16A15680   3.978   2.214  14.487 -0.5588  0.4214  0.4982
  128CHL1  H16B15681   4.131   2.306  14.518  1.3143  1.5226 -1.8827
  128CHL1   C1715682   3.960   2.401  14.386 -0.1707  0.3329 -0.5432
  128CHL1   H1715683   4.027   2.489  14.378 -0.5553  0.6874  0.0572
  128CHL1   C1315684   3.924   2.363  14.239  0.1117  0.2550  0.3788
  128CHL1   C1815685   3.819   2.253  14.243 -0.5691 -0.4681  0.3306
  128CHL1  H18A15686   3.722   2.300  14.272 -0.6504 -0.0232 -0.5998
  128CHL1  H18B15687   3.802   2.203  14.145 -1.6502  0.6168 -0.0566
  128CHL1  H18C15688   3.851   2.174  14.314 -0.9384  0.6539  1.7780
  128CHL1   C1215689   3.884   2.480  14.138 -0.4772 -0.2876  0.5617
  128CHL1  H12A15690   3.776   2.504  14.155 -0.1494  0.5972  1.4923
  128CHL1  H12B15691   3.941   2.575  14.148 -0.3291 -0.0822 -1.7952
  128CHL1   C1115692   3.896   2.430  13.988  0.5709 -1.0758 -0.4349
  128CHL1  H11A15693   3.797   2.383  13.973 -1.4917  2.6548  0.1565
  128CHL1  H11B15694   3.901   2.517  13.919  0.8404  0.1910  1.1344
  128CHL1    C915695   4.022   2.347  13.949 -0.5701  1.0487 -0.4272
  128CHL1    H915696   4.101   2.424  13.964  0.0901 -0.0835  2.7054
  128CHL1   C1015697   4.025   2.290  13.801 -0.7594 -0.3738 -0.8930
  128CHL1   C1915698   3.898   2.207  13.773 -0.9241 -0.4758 -1.0573
  128CHL1  H19A15699   3.866   2.135  13.851 -2.0801 -0.1926 -1.2433
  128CHL1  H19B15700   3.810   2.273  13.758  0.4653  1.2188 -2.2726
  128CHL1  H19C15701   3.908   2.149  13.679 -0.7137 -1.3243 -0.5224
  128CHL1    C115702   4.037   2.406  13.695  0.3477 -0.5026 -0.5088
  128CHL1   H1A15703   3.934   2.446  13.701 -0.1981 -2.0182  0.7730
  128CHL1   H1B15704   4.108   2.488  13.722 -0.8483  0.0559  1.1561
  128CHL1    C215705   4.074   2.359  13.553  0.0064 -0.2860 -0.2782
  128CHL1   H2A15706   4.090   2.454  13.498 -0.7497 -0.9240 -1.6718
  128CHL1   H2B15707   3.992   2.303  13.501 -1.2648  1.9030 -0.7564
  128CHL1   C2015708   3.849   2.439  14.482  0.5805  0.8561 -0.2817
  128CHL1   H2015709   3.764   2.371  14.462  0.9270  0.6563 -1.0913
  128CHL1   C2115710   3.807   2.589  14.462 -0.1776 -0.2222  0.5915
  128CHL1  H21A15711   3.723   2.622  14.526  0.7019  1.7656  0.7838
  128CHL1  H21B15712   3.781   2.617  14.358  1.4678 -1.0554 -0.0865
  128CHL1  H21C15713   3.893   2.652  14.493  0.3428 -1.5516  1.9543
  128CHL1   C2215714   3.875   2.414  14.643 -0.0208  0.7343 -0.8509
  128CHL1  H22A15715   3.890   2.305  14.656  1.6475  0.9608 -0.6871
  128CHL1  H22B15716   3.970   2.467  14.667  1.8611 -2.9445  0.6838
  128CHL1   C2315717   3.771   2.449  14.750  0.0941 -0.0620  1.0225
  128CHL1  H23A15718   3.780   2.559  14.763  1.7683  0.0716 -0.8633
  128CHL1  H23B15719   3.666   2.431  14.720  0.1942  0.7512  0.1398
  128CHL1   C2415720   3.809   2.382  14.883 -0.9881 -0.6778  0.2674
  128CHL1  H24A15721   3.855   2.281  14.870  0.6033 -0.0399  0.8110
  128CHL1  H24B15722   3.890   2.445  14.924  0.0522 -1.8071  0.0051
  128CHL1   C2515723   3.692   2.367  14.979 -0.1220 -0.3528 -0.2483
  128CHL1   H2515724   3.608   2.312  14.931 -0.2162 -0.5898  0.1777
  128CHL1   C2615725   3.730   2.291  15.108 -0.4938 -0.1481  0.1453
  128CHL1  H26A15726   3.812   2.351  15.154  0.1815  2.1472 -3.6353
  128CHL1  H26B15727   3.648   2.285  15.183  0.4474 -0.6880  1.1586
  128CHL1  H26C15728   3.772   2.193  15.077 -2.7925  0.0217 -4.3810
  128CHL1   C2715729   3.627   2.499  15.020 -0.2518 -0.2568 -0.4354
  128CHL1  H27A15730   3.533   2.476  15.074 -0.2591 -0.1082 -0.3840
  128CHL1  H27B15731   3.692   2.558  15.088 -0.6722  0.9974 -1.0850
  128CHL1  H27C15732   3.605   2.563  14.932  1.8580  1.7587  0.3775
  129CHL1    C315733   4.485   7.328  13.698 -0.3374  0.0812 -0.1229
  129CHL1    H315734   4.389   7.292  13.739  0.1228 -0.4106  0.5386
  129CHL1    O315735   4.493   7.300  13.554 -0.7855 -0.4057 -0.2448
  129CHL1   H3'15736   4.401   7.292  13.530 -0.7086 -0.7793 -0.4200
  129CHL1    C415737   4.498   7.480  13.709  0.3961  0.0441 -0.8735
  129CHL1   H4A15738   4.582   7.520  13.648 -1.2203  1.1421 -2.4860
  129CHL1   H4B15739   4.401   7.508  13.661 -0.7801  1.7366  2.2279
  129CHL1    C515740   4.509   7.514  13.859  0.1852 -0.2502  0.3118
  129CHL1    C615741   4.428   7.607  13.911  0.9244  0.0380 -0.6784
  129CHL1    H615742   4.349   7.651  13.849 -1.6321 -0.0673  2.2922
  129CHL1    C715743   4.442   7.669  14.049  0.1577 -0.1608  0.4042
  129CHL1   H7A15744   4.433   7.779  14.042  0.3495 -0.1698  0.0388
  129CHL1   H7B15745   4.357   7.650  14.119  1.2721 -0.2021  1.7763
  129CHL1    C815746   4.572   7.627  14.117  0.4802  0.4538 -0.5383
  129CHL1    H815747   4.650   7.697  14.080 -0.3135  1.4153 -0.4369
  129CHL1   C1415748   4.560   7.647  14.269  0.6152  0.5534 -0.5996
  129CHL1   H1415749   4.480   7.578  14.303  1.8198 -0.1241  1.0464
  129CHL1   C1515750   4.522   7.789  14.314 -0.1427 -0.7915  0.1645
  129CHL1  H15A15751   4.582   7.852  14.244 -2.1170 -0.4825 -1.3068
  129CHL1  H15B15752   4.414   7.808  14.301  0.1231 -0.0116 -1.0457
  129CHL1   C1615753   4.573   7.796  14.458 -0.0698  0.4597 -0.3992
  129CHL1  H16A15754   4.634   7.889  14.462 -1.1004  1.1693 -0.6956
  129CHL1  H16B15755   4.488   7.809  14.529  0.1530 -1.8094  0.3768
  129CHL1   C1715756   4.652   7.666  14.490  0.2679  0.5733  0.3910
  129CHL1   H1715757   4.572   7.595  14.519 -0.2402 -1.7088 -5.3156
  129CHL1   C1315758   4.684   7.614  14.349 -0.5613  1.0489 -0.1935
  129CHL1   C1815759   4.806   7.706  14.300 -0.2021  0.4385 -0.8217
  129CHL1  H18A15760   4.813   7.686  14.191  1.6562  0.7621 -0.7909
  129CHL1  H18B15761   4.809   7.816  14.313  0.1506  0.3597 -0.2026
  129CHL1  H18C15762   4.896   7.657  14.343 -1.6927 -1.7799 -0.0495
  129CHL1   C1215763   4.713   7.464  14.334  0.2962 -0.3640  0.8140
  129CHL1  H12A15764   4.802   7.431  14.393 -0.4144 -2.8296  0.5972
  129CHL1  H12B15765   4.630   7.407  14.380  0.3897 -1.1955 -0.0254
  129CHL1   C1115766   4.732   7.432  14.179 -0.0376  0.1488 -0.7930
  129CHL1  H11A15767   4.828   7.473  14.142 -0.2797  1.1112 -0.3765
  129CHL1  H11B15768   4.736   7.321  14.167 -0.1404 -0.1349  1.4017
  129CHL1    C915769   4.611   7.482  14.087  0.8530  0.0903 -1.3196
  129CHL1    H915770   4.523   7.419  14.113  1.7340 -1.3814 -1.7416
  129CHL1   C1015771   4.628   7.457  13.933 -0.3504  0.3331 -0.6947
  129CHL1   C1915772   4.762   7.511  13.885 -0.0888  0.1473  0.5887
  129CHL1  H19A15773   4.779   7.497  13.777 -2.7915 -1.2224  0.2451
  129CHL1  H19B15774   4.762   7.621  13.900 -0.2636  0.3481 -0.7812
  129CHL1  H19C15775   4.841   7.452  13.935 -1.1080  0.7213  3.0394
  129CHL1    C115776   4.618   7.303  13.912 -0.3325  0.3420  0.3983
  129CHL1   H1A15777   4.709   7.261  13.960 -1.1218 -1.7517  0.1594
  129CHL1   H1B15778   4.529   7.261  13.963  0.1178  1.4083  2.1743
  129CHL1    C215779   4.603   7.260  13.764 -0.2703  0.0377 -0.6172
  129CHL1   H2A15780   4.591   7.150  13.759  1.3087 -0.1453 -1.0612
  129CHL1   H2B15781   4.698   7.283  13.711  0.0805 -2.3213 -1.0782
  129CHL1   C2015782   4.754   7.679  14.597 -0.1458  0.1348 -0.0754
  129CHL1   H2015783   4.838   7.741  14.560  0.3820 -1.3798 -1.5384
  129CHL1   C2115784   4.828   7.551  14.626 -0.0693  0.0818 -0.8475
  129CHL1  H21A15785   4.888   7.515  14.540  0.8067  3.5069 -1.7862
  129CHL1  H21B15786   4.749   7.476  14.650  1.6969 -1.5049  0.2845
  129CHL1  H21C15787   4.891   7.562  14.716 -1.2660  2.2344 -0.2056
  129CHL1   C2215788   4.701   7.740  14.729  0.7773 -0.1285 -1.2202
  129CHL1  H22A15789   4.783   7.748  14.803 -1.7927  0.3729  1.8011
  129CHL1  H22B15790   4.665   7.844  14.713  0.2277 -0.2437 -0.7807
  129CHL1   C2315791   4.586   7.652  14.799 -0.6512 -0.6426 -0.1119
  129CHL1  H23A15792   4.494   7.638  14.738 -1.7903  1.4444  1.0316
  129CHL1  H23B15793   4.628   7.553  14.826  2.7892  0.7031  0.0465
  129CHL1   C2415794   4.542   7.711  14.929 -0.1701  0.1751 -0.5557
  129CHL1  H24A15795   4.504   7.815  14.918  0.0039  0.8477  3.5156
  129CHL1  H24B15796   4.448   7.665  14.966  0.6124 -0.6721  0.4650
  129CHL1   C2515797   4.645   7.714  15.045  0.5767 -0.5587 -0.7271
  129CHL1   H2515798   4.732   7.775  15.011  0.9220 -0.4866  0.2284
  129CHL1   C2615799   4.594   7.787  15.175  0.2753 -0.5821 -0.0513
  129CHL1  H26A15800   4.656   7.765  15.264  0.6630  0.0172 -0.1636
  129CHL1  H26B15801   4.581   7.897  15.173 -0.7342 -0.6662  1.1626
  129CHL1  H26C15802   4.497   7.753  15.217  0.8009  0.7846  2.4394
  129CHL1   C2715803   4.695   7.574  15.081  0.3963 -0.5512  0.6679
  129CHL1  H27A15804   4.650   7.489  15.026  0.3137 -1.5524  2.2265
  129CHL1  H27B15805   4.802   7.581  15.052  0.3151 -1.3523  0.1516
  129CHL1  H27C15806   4.698   7.561  15.191  0.0620 -0.3835  0.6983
  130CHL1    C315807   2.998   0.518  13.946  0.6306 -0.1294  0.1974
  130CHL1    H315808   2.952   0.619  13.949  0.5825 -0.0502 -1.7145
  130CHL1    O315809   3.000   0.465  13.815  0.0173  0.4435  0.0538
  130CHL1   H3'15810   3.075   0.503  13.768 -0.4200 -0.7026 -1.6628
  130CHL1    C415811   3.139   0.532  14.002  0.0720  0.5109 -0.5151
  130CHL1   H4A15812   3.203   0.445  13.977 -1.6357 -0.5321 -1.3795
  130CHL1   H4B15813   3.190   0.616  13.949  3.4663 -1.4391 -0.6128
  130CHL1    C515814   3.153   0.542  14.152 -0.5510  0.3716  0.3428
  130CHL1    C615815   3.232   0.630  14.214  0.1318  0.0853 -0.5022
  130CHL1    H615816   3.299   0.703  14.165  0.5591  0.2728  0.3461
  130CHL1    C715817   3.242   0.636  14.367  0.2426  0.1361 -0.2525
  130CHL1   H7A15818   3.348   0.662  14.391  0.3788 -1.0050  0.4599
  130CHL1   H7B15819   3.182   0.719  14.410 -1.8675 -2.1198  1.4444
  130CHL1    C815820   3.188   0.516  14.448 -0.1995 -0.2290  0.3760
  130CHL1    H815821   3.261   0.434  14.430  0.6175  0.6160 -0.2776
  130CHL1   C1415822   3.170   0.557  14.594 -0.6033 -0.0259  0.5887
  130CHL1   H1415823   3.099   0.641  14.607  0.4176  1.1067 -0.8194
  130CHL1   C1515824   3.286   0.632  14.671  0.8903 -0.2811  0.0020
  130CHL1  H15A15825   3.377   0.579  14.636  1.5113 -0.0549  1.2249
  130CHL1  H15B15826   3.299   0.739  14.641  2.2759  0.1252  1.8974
  130CHL1   C1615827   3.244   0.618  14.814 -0.6679 -0.2822  0.1547
  130CHL1  H16A15828   3.333   0.569  14.859 -1.0128  1.1847  2.6002
  130CHL1  H16B15829   3.215   0.713  14.864 -1.6609  0.2947 -1.4320
  130CHL1   C1715830   3.126   0.515  14.821  0.1159 -0.3100 -0.3484
  130CHL1   H1715831   3.034   0.577  14.819  0.7164  0.5838 -0.8609
  130CHL1   C1315832   3.114   0.443  14.683 -0.3593 -0.1015 -0.2128
  130CHL1   C1815833   3.217   0.323  14.692  0.9475 -0.3368 -0.0008
  130CHL1  H18A15834   3.187   0.238  14.758  3.3591 -1.5903 -0.4019
  130CHL1  H18B15835   3.223   0.283  14.588 -2.4853 -4.6203  1.1049
  130CHL1  H18C15836   3.315   0.363  14.725 -0.3653  0.8316  2.7501
  130CHL1   C1215837   2.974   0.407  14.625 -0.0613  0.2248 -0.0784
  130CHL1  H12A15838   2.919   0.324  14.674  1.3871 -1.0893 -0.5946
  130CHL1  H12B15839   2.905   0.494  14.628  0.1198  0.3525  0.7810
  130CHL1   C1115840   2.983   0.371  14.473  1.1237  0.0054  0.2990
  130CHL1  H11A15841   3.030   0.271  14.462 -1.0457 -0.8930 -1.6734
  130CHL1  H11B15842   2.880   0.355  14.434  0.6404  2.2198  0.5155
  130CHL1    C915843   3.053   0.477  14.379 -0.3940  0.2869 -0.5264
  130CHL1    H915844   2.993   0.570  14.390 -1.3568 -0.3254 -0.4652
  130CHL1   C1015845   3.062   0.441  14.229  0.2455 -0.4109 -0.2049
  130CHL1   C1915846   3.111   0.301  14.207  0.6350  0.3079 -0.3529
  130CHL1  H19A15847   3.120   0.265  14.103 -1.7483  1.0056 -0.8674
  130CHL1  H19B15848   3.213   0.291  14.251  0.4564 -0.8967 -0.1951
  130CHL1  H19C15849   3.040   0.235  14.261 -1.4711  2.1365 -0.7476
  130CHL1    C115850   2.916   0.450  14.173 -0.7349  0.0311 -0.9350
  130CHL1   H1A15851   2.857   0.376  14.232  0.5316  1.6837  2.7187
  130CHL1   H1B15852   2.881   0.551  14.202  0.1111  0.2164 -0.5300
  130CHL1    C215853   2.909   0.420  14.025 -0.0835  0.2879 -0.0316
  130CHL1   H2A15854   2.807   0.429  13.982  0.7807  4.7040 -1.6360
  130CHL1   H2B15855   2.925   0.310  14.012 -0.7492  0.1611  0.1597
  130CHL1   C2015856   3.122   0.434  14.954  0.1857  0.4811  0.5869
  130CHL1   H2015857   3.189   0.345  14.954 -0.0408  0.2478 -1.8734
  130CHL1   C2115858   2.973   0.388  14.960  0.3702 -0.6204 -0.0320
  130CHL1  H21A15859   2.908   0.478  14.966  0.1442 -0.8934  2.2786
  130CHL1  H21B15860   2.963   0.323  15.049 -0.0603  2.0394  2.0063
  130CHL1  H21C15861   2.938   0.320  14.879 -0.8213 -0.6007  0.4564
  130CHL1   C2215862   3.159   0.510  15.078  0.2999  0.1370  0.4244
  130CHL1  H22A15863   3.254   0.565  15.066  0.3877  0.0163  0.5582
  130CHL1  H22B15864   3.086   0.589  15.104  2.2273  2.0683  0.2034
  130CHL1   C2315865   3.178   0.423  15.208  0.5303  0.7379  0.9671
  130CHL1  H23A15866   3.080   0.390  15.248  0.9249  0.0232  1.3790
  130CHL1  H23B15867   3.237   0.336  15.170 -0.6111  0.8694 -1.2470
  130CHL1   C2415868   3.255   0.482  15.326 -0.0216  0.1763 -0.7014
  130CHL1  H24A15869   3.349   0.522  15.283  0.4879 -2.5769 -2.3780
  130CHL1  H24B15870   3.196   0.567  15.367 -0.8762 -1.2827  1.2939
  130CHL1   C2515871   3.281   0.391  15.448 -0.2254 -0.1391  0.0132
  130CHL1   H2515872   3.182   0.369  15.492  0.3953 -0.8784  1.0749
  130CHL1   C2615873   3.362   0.263  15.423  0.0247  0.4302  0.5353
  130CHL1  H26A15874   3.380   0.200  15.512 -0.8190 -0.2513  0.2391
  130CHL1  H26B15875   3.316   0.199  15.344  0.7371  1.2872 -0.6235
  130CHL1  H26C15876   3.465   0.293  15.394  0.7139 -1.8406  0.4691
  130CHL1   C2715877   3.346   0.476  15.560 -0.1026  0.4567  0.0664
  130CHL1  H27A15878   3.342   0.408  15.647 -0.6847 -1.3346 -1.2838
  130CHL1  H27B15879   3.453   0.502  15.544  0.2411 -0.6702  0.4830
  130CHL1  H27C15880   3.282   0.562  15.591 -2.2765 -0.6728 -1.0435
  131CHL1    C315881   1.056   7.261  13.793 -0.3178 -0.1635 -0.2265
  131CHL1    H315882   0.987   7.347  13.808 -0.4880 -0.5293  1.2514
  131CHL1    O315883   1.038   7.205  13.664  0.2809  0.4314 -0.1346
  131CHL1   H3'15884   1.048   7.278  13.602 -2.2022  2.2451  1.4121
  131CHL1    C415885   1.205   7.297  13.809  0.0273 -0.8065 -0.3128
  131CHL1   H4A15886   1.271   7.211  13.784  1.8805 -0.8505  3.8296
  131CHL1   H4B15887   1.218   7.380  13.737  0.9336 -1.0122 -0.4038
  131CHL1    C515888   1.242   7.339  13.947  0.9882 -0.5350  0.6367
  131CHL1    C615889   1.297   7.458  13.970  0.3368 -0.3242  0.1792
  131CHL1    H615890   1.303   7.530  13.886 -1.2720  2.5276  2.3287
  131CHL1    C715891   1.328   7.522  14.107  0.0276  0.4234  0.7807
  131CHL1   H7A15892   1.429   7.568  14.106  0.9310 -1.4125 -0.9155
  131CHL1   H7B15893   1.252   7.599  14.127  0.1644  0.8684 -0.3536
  131CHL1    C815894   1.316   7.418  14.220 -0.1519  0.3694 -0.0061
  131CHL1    H815895   1.406   7.353  14.214  0.2115  0.5923  2.1388
  131CHL1   C1415896   1.297   7.495  14.352  0.0837 -0.0446  0.7261
  131CHL1   H1415897   1.200   7.548  14.343  0.8999  1.3026 -0.7955
  131CHL1   C1515898   1.395   7.608  14.385  0.3706  0.4187 -0.3932
  131CHL1  H15A15899   1.499   7.570  14.391 -0.1985 -1.0939  0.4805
  131CHL1  H15B15900   1.384   7.696  14.318 -2.4328  1.1193  0.8251
  131CHL1   C1615901   1.372   7.643  14.530  0.6863  0.6167 -0.8049
  131CHL1  H16A15902   1.466   7.654  14.589  0.1752 -0.6983  0.3223
  131CHL1  H16B15903   1.319   7.740  14.539 -1.6191 -0.6538  0.3288
  131CHL1   C1715904   1.275   7.527  14.579 -0.6252 -0.4115  0.2618
  131CHL1   H1715905   1.175   7.576  14.585  0.7260  2.4231  1.0145
  131CHL1   C1315906   1.281   7.414  14.476 -0.1682 -0.4286  1.1424
  131CHL1   C1815907   1.405   7.322  14.487 -0.2741  0.0063 -0.3029
  131CHL1  H18A15908   1.436   7.269  14.393  0.2686 -1.3679  0.6156
  131CHL1  H18B15909   1.497   7.372  14.522 -0.1547 -0.4149 -0.0119
  131CHL1  H18C15910   1.385   7.244  14.564 -1.2320 -0.2788 -0.8233
  131CHL1   C1215911   1.146   7.330  14.457 -0.3488  0.2273 -0.0253
  131CHL1  H12A15912   1.125   7.259  14.540  0.1644  0.0194 -0.0680
  131CHL1  H12B15913   1.062   7.400  14.443 -0.8259 -0.5078 -0.9532
  131CHL1   C1115914   1.153   7.241  14.327 -0.2988  0.0752  1.1178
  131CHL1  H11A15915   1.234   7.167  14.341  0.2784  0.5835  0.4995
  131CHL1  H11B15916   1.053   7.194  14.312  0.0088 -0.1807 -0.2515
  131CHL1    C915917   1.199   7.323  14.200 -0.1526 -0.3928 -0.2788
  131CHL1    H915918   1.110   7.389  14.193 -0.7873 -1.3030 -0.9159
  131CHL1   C1015919   1.196   7.246  14.063 -0.7604  0.1485 -0.5884
  131CHL1   C1915920   1.294   7.120  14.062  0.2824 -0.0163 -0.2560
  131CHL1  H19A15921   1.270   7.042  14.138  0.1424  1.1865  0.9796
  131CHL1  H19B15922   1.292   7.081  13.958 -1.2275  0.2791 -0.3653
  131CHL1  H19C15923   1.397   7.154  14.085 -0.3579  0.2971  2.5724
  131CHL1    C115924   1.055   7.205  14.037 -0.8144 -0.0801 -0.4782
  131CHL1   H1A15925   1.025   7.121  14.104 -1.2229  0.9976  0.7320
  131CHL1   H1B15926   0.972   7.276  14.055 -0.9496  0.4380 -2.8228
  131CHL1    C215927   1.027   7.151  13.895 -0.0960 -0.6749  0.3885
  131CHL1   H2A15928   0.927   7.103  13.899  0.9116 -2.8635  1.0068
  131CHL1   H2B15929   1.098   7.066  13.888  1.3562  0.4980  0.3967
  131CHL1   C2015930   1.297   7.482  14.728  0.2045  0.4134  0.7991
  131CHL1   H2015931   1.394   7.429  14.720 -0.4241 -0.7514  0.5892
  131CHL1   C2115932   1.190   7.378  14.773 -0.1514 -0.2081 -0.2249
  131CHL1  H21A15933   1.092   7.415  14.736  0.1250 -0.2323 -1.0007
  131CHL1  H21B15934   1.190   7.365  14.884  0.9969 -2.3903 -0.4223
  131CHL1  H21C15935   1.200   7.277  14.730  2.3880  0.6025 -1.7477
  131CHL1   C2215936   1.305   7.605  14.823 -0.1413 -0.0925  0.2706
  131CHL1  H22A15937   1.350   7.699  14.786 -0.4255  0.2588  0.7984
  131CHL1  H22B15938   1.201   7.636  14.847 -0.7308 -0.7433 -1.3351
  131CHL1   C2315939   1.377   7.582  14.953 -0.3548  0.2358  0.1412
  131CHL1  H23A15940   1.345   7.498  15.018  1.4215 -0.6681 -0.0877
  131CHL1  H23B15941   1.481   7.554  14.926 -0.7270 -1.0003 -0.0625
  131CHL1   C2415942   1.396   7.707  15.042 -0.1725  1.0152  0.8558
  131CHL1  H24A15943   1.410   7.792  14.972 -0.4724  0.2726 -0.1222
  131CHL1  H24B15944   1.303   7.729  15.099 -0.8473  0.2734  0.0656
  131CHL1   C2515945   1.506   7.687  15.151 -0.2994  0.5714  0.8799
  131CHL1   H2515946   1.511   7.577  15.166 -0.1094  0.2905 -1.0227
  131CHL1   C2615947   1.645   7.732  15.103  0.1686  0.0059 -0.5627
  131CHL1  H26A15948   1.632   7.843  15.100 -2.9624 -0.2557  0.1328
  131CHL1  H26B15949   1.718   7.700  15.179 -1.0465  1.6648  1.4153
  131CHL1  H26C15950   1.662   7.696  14.999 -2.5435 -0.7761 -0.8040
  131CHL1   C2715951   1.479   7.753  15.281  0.1131  0.2549 -0.7506
  131CHL1  H27A15952   1.428   7.851  15.279 -1.7844 -0.6214  1.2571
  131CHL1  H27B15953   1.412   7.688  15.341 -0.1274  0.0681 -1.2188
  131CHL1  H27C15954   1.569   7.769  15.344 -0.9277  0.1934  0.7993
  132CHL1    C315955   5.429   1.953  13.849 -1.0094  0.3359 -0.3565
  132CHL1    H315956   5.387   2.054  13.873  1.0896  1.3850 -0.8826
  132CHL1    O315957   5.450   1.935  13.706  0.2217 -0.1725 -0.3926
  132CHL1   H3'15958   5.363   1.960  13.675  0.0764  1.0758  0.9531
  132CHL1    C415959   5.571   1.937  13.934 -0.1379 -0.2021 -0.5713
  132CHL1   H4A15960   5.626   1.847  13.900  1.8916 -0.2997  2.5153
  132CHL1   H4B15961   5.643   2.016  13.902 -0.3304  0.4929  0.6163
  132CHL1    C515962   5.555   1.939  14.084 -0.5012 -0.8946 -0.3386
  132CHL1    C615963   5.608   2.034  14.169 -0.4832 -0.4478  0.2640
  132CHL1    H615964   5.686   2.103  14.133  1.2479 -2.2179  0.4797
  132CHL1    C715965   5.594   2.040  14.321 -0.5506 -1.0714  0.3895
  132CHL1   H7A15966   5.683   2.079  14.376  0.3206 -2.2533 -0.1322
  132CHL1   H7B15967   5.517   2.113  14.353  2.3166  2.9111 -0.9139
  132CHL1    C815968   5.548   1.911  14.379 -0.3610 -0.0469  0.7684
  132CHL1    H815969   5.623   1.832  14.358 -1.5465 -1.0481  0.1699
  132CHL1   C1415970   5.507   1.936  14.519  0.5118 -0.1621 -0.1739
  132CHL1   H1415971   5.425   2.011  14.510 -0.5837 -1.3674 -0.4384
  132CHL1   C1515972   5.612   2.003  14.607  0.0509  0.0993  0.0356
  132CHL1  H15A15973   5.699   1.937  14.587  0.1953  0.4153 -0.3869
  132CHL1  H15B15974   5.639   2.109  14.588 -1.8146  0.4474 -0.9040
  132CHL1   C1615975   5.549   1.991  14.745 -0.2599  0.0689 -0.0059
  132CHL1  H16A15976   5.632   1.963  14.814 -0.4582 -1.5966 -0.3993
  132CHL1  H16B15977   5.513   2.090  14.779  2.6274  1.9640 -2.0320
  132CHL1   C1715978   5.439   1.879  14.731 -0.3180 -0.9937  0.1393
  132CHL1   H1715979   5.342   1.933  14.727  0.1254 -0.2655 -2.3854
  132CHL1   C1315980   5.457   1.813  14.599  0.3500  0.0883  0.0747
  132CHL1   C1815981   5.571   1.702  14.608  0.4939 -0.0451 -0.6433
  132CHL1  H18A15982   5.529   1.607  14.646 -1.4232  1.2880  0.7732
  132CHL1  H18B15983   5.611   1.690  14.505  0.6438  0.2125 -0.6181
  132CHL1  H18C15984   5.657   1.735  14.671  2.5755 -3.3823 -1.4997
  132CHL1   C1215985   5.323   1.769  14.516 -0.5636 -0.2835  0.2721
  132CHL1  H12A15986   5.280   1.678  14.562 -2.9411  0.1169 -1.0129
  132CHL1  H12B15987   5.247   1.849  14.507 -1.4924 -1.3949 -3.5772
  132CHL1   C1115988   5.359   1.734  14.366  0.2685 -0.6480 -0.0019
  132CHL1  H11A15989   5.443   1.662  14.370  0.3517 -0.4782  2.3308
  132CHL1  H11B15990   5.271   1.695  14.311  1.1877 -0.5590 -1.6000
  132CHL1    C915991   5.429   1.856  14.294  0.0708 -0.2869  0.4765
  132CHL1    H915992   5.359   1.942  14.300  1.5434  0.8925  1.6645
  132CHL1   C1015993   5.468   1.826  14.145 -0.0976 -0.3549  0.2980
  132CHL1   C1915994   5.550   1.698  14.128 -0.4394  0.0526  0.1248
  132CHL1  H19A15995   5.493   1.613  14.171 -0.8005  0.6169  0.7698
  132CHL1  H19B15996   5.572   1.676  14.021  3.4445  0.1091  0.7684
  132CHL1  H19C15997   5.645   1.710  14.184 -0.0104  1.8793 -0.9264
  132CHL1    C115998   5.334   1.823  14.057  0.1756 -0.2456  0.5601
  132CHL1   H1A15999   5.278   1.730  14.076  2.0932 -1.4994  0.3503
  132CHL1   H1B16000   5.265   1.906  14.082 -0.1949  0.4883 -2.5141
  132CHL1    C216001   5.350   1.834  13.901 -0.1292  0.1025 -0.9870
  132CHL1   H2A16002   5.248   1.848  13.859 -0.6844 -0.5469  0.1001
  132CHL1   H2B16003   5.397   1.739  13.870  1.9053 -0.2224  2.5574
  132CHL1   C2016004   5.429   1.787  14.856 -0.9967 -0.3173 -0.3245
  132CHL1   H2016005   5.520   1.723  14.855  0.5424  1.7531  0.8060
  132CHL1   C2116006   5.307   1.699  14.849  0.0131  0.8116 -0.1633
  132CHL1  H21A16007   5.287   1.647  14.945 -1.2700 -2.6857 -2.1426
  132CHL1  H21B16008   5.303   1.631  14.762  0.0382  1.0675 -0.3655
  132CHL1  H21C16009   5.217   1.764  14.841 -1.2442 -0.6405  1.3422
  132CHL1   C2216010   5.437   1.869  14.990  0.8102  0.2755  0.5443
  132CHL1  H22A16011   5.461   1.801  15.075  0.6805  1.2937  1.4061
  132CHL1  H22B16012   5.526   1.934  14.984 -0.3812  1.9361  0.2178
  132CHL1   C2316013   5.315   1.961  15.021 -0.1999 -1.0421 -0.1375
  132CHL1  H23A16014   5.285   2.032  14.941 -1.1221 -2.7053 -1.3405
  132CHL1  H23B16015   5.223   1.906  15.052 -0.0723 -0.3550  1.5481
  132CHL1   C2416016   5.342   2.061  15.139 -0.1429 -0.0967  0.0393
  132CHL1  H24A16017   5.369   2.000  15.228  0.7080  2.7187  1.8772
  132CHL1  H24B16018   5.438   2.108  15.106 -0.3899 -1.1824 -2.4146
  132CHL1   C2516019   5.226   2.155  15.166  0.1794 -0.0315  0.1489
  132CHL1   H2516020   5.193   2.192  15.067 -1.7734  1.6653  1.3430
  132CHL1   C2616021   5.097   2.089  15.226  0.1053 -0.6484 -0.3903
  132CHL1  H26A16022   5.120   2.007  15.297  0.2736  1.9703  2.7854
  132CHL1  H26B16023   5.036   2.165  15.280 -1.8152 -3.0716  1.0986
  132CHL1  H26C16024   5.039   2.048  15.140 -0.7815  0.2260 -0.2292
  132CHL1   C2716025   5.274   2.280  15.242 -0.3937 -0.3204  0.2795
  132CHL1  H27A16026   5.196   2.356  15.258 -0.5661 -0.9757  2.9167
  132CHL1  H27B16027   5.289   2.242  15.345  0.7060  2.4389  1.2106
  132CHL1  H27C16028   5.367   2.328  15.205 -1.4900 -0.0970 -2.4632
  133CHL1    C316029   2.094   3.656  14.040  0.2628 -0.3522 -0.2106
  133CHL1    H316030   2.075   3.549  14.015 -0.8607  0.2861 -2.3422
  133CHL1    O316031   2.142   3.707  13.920  0.1303 -0.2833 -0.6413
  133CHL1   H3'16032   2.224   3.657  13.914  0.0963 -0.6829  1.4989
  133CHL1    C416033   1.958   3.723  14.057 -0.3777  0.8235  0.7817
  133CHL1   H4A16034   1.974   3.833  14.053  1.5058  0.5445 -1.1946
  133CHL1   H4B16035   1.908   3.699  13.961  0.8405  0.2684  0.2605
  133CHL1    C516036   1.889   3.685  14.182 -0.2385 -0.0592  0.3782
  133CHL1    C616037   1.768   3.635  14.174 -0.5005 -0.4637  0.4393
  133CHL1    H616038   1.714   3.621  14.079 -3.4331  0.1353  1.8930
  133CHL1    C716039   1.683   3.606  14.295  0.5878  0.3384  0.1198
  133CHL1   H7A16040   1.588   3.665  14.298 -1.4282 -2.6801  0.3979
  133CHL1   H7B16041   1.637   3.505  14.302 -1.5142  1.0527 -1.9468
  133CHL1    C816042   1.747   3.655  14.432 -0.3963 -0.4250 -0.6186
  133CHL1    H816043   1.727   3.764  14.441  1.5910 -0.0775  0.0286
  133CHL1   C1416044   1.688   3.587  14.550 -0.5275  0.3568  0.0286
  133CHL1   H1416045   1.711   3.479  14.534 -1.6697  0.2527 -1.0991
  133CHL1   C1516046   1.531   3.572  14.563  0.4703  0.0555 -0.3852
  133CHL1  H15A16047   1.480   3.671  14.558 -1.2961 -0.8429 -0.8982
  133CHL1  H15B16048   1.481   3.492  14.504  0.8570 -0.4366 -0.0599
  133CHL1   C1616049   1.518   3.533  14.713 -0.2895  0.1200 -0.0175
  133CHL1  H16A16050   1.443   3.598  14.763 -0.1453  0.0733  0.2596
  133CHL1  H16B16051   1.474   3.431  14.711 -1.5614  0.6557 -0.5101
  133CHL1   C1716052   1.662   3.526  14.775  0.0647 -0.0932 -0.1599
  133CHL1   H1716053   1.698   3.422  14.760  1.6452  0.1570  1.5148
  133CHL1   C1316054   1.746   3.620  14.687 -0.3119 -0.3676  0.2294
  133CHL1   C1816055   1.724   3.773  14.727  0.2490  0.2433  0.4635
  133CHL1  H18A16056   1.757   3.794  14.831 -0.6274  2.6458  0.3063
  133CHL1  H18B16057   1.776   3.840  14.655 -0.2305  0.0126 -0.0950
  133CHL1  H18C16058   1.617   3.800  14.727  0.1526 -0.0557  1.7590
  133CHL1   C1216059   1.896   3.590  14.680 -0.1116  0.4410 -0.1155
  133CHL1  H12A16060   1.932   3.620  14.781  2.3767  0.5306 -0.9677
  133CHL1  H12B16061   1.909   3.481  14.665  0.8444  0.4173  0.7497
  133CHL1   C1116062   1.969   3.666  14.570  0.3047 -0.0217  0.2643
  133CHL1  H11A16063   1.951   3.775  14.583 -3.3020 -0.3537 -0.7715
  133CHL1  H11B16064   2.078   3.646  14.564  0.4387  0.4347  1.0386
  133CHL1    C916065   1.900   3.632  14.434 -0.4116 -0.4799  0.4656
  133CHL1    H916066   1.913   3.522  14.422 -2.0627 -0.5668 -0.8278
  133CHL1   C1016067   1.971   3.705  14.309 -0.0157 -0.0983  0.4295
  133CHL1   C1916068   1.997   3.856  14.342  0.1931 -0.1065 -0.5661
  133CHL1  H19A16069   2.042   3.920  14.263  0.4033  0.5223  0.0468
  133CHL1  H19B16070   1.908   3.911  14.381  0.0148  1.0571 -2.4663
  133CHL1  H19C16071   2.077   3.863  14.419  0.7353 -2.6833 -0.8176
  133CHL1    C116072   2.112   3.643  14.298 -0.0200 -0.5637 -0.0362
  133CHL1   H1A16073   2.177   3.665  14.385 -0.8033 -0.6879  0.5950
  133CHL1   H1B16074   2.104   3.532  14.296 -0.7857 -0.5315  0.8368
  133CHL1    C216075   2.189   3.680  14.166  0.1206  0.4409  0.2224
  133CHL1   H2A16076   2.279   3.616  14.159 -1.2536 -1.4817 -1.3804
  133CHL1   H2B16077   2.209   3.788  14.178  1.5126 -0.0242  2.6855
  133CHL1   C2016078   1.653   3.544  14.932  0.0526 -0.1205  0.8810
  133CHL1   H2016079   1.625   3.648  14.956  0.5388 -0.2213  1.9489
  133CHL1   C2116080   1.789   3.521  14.995  0.0282  0.1649 -0.6424
  133CHL1  H21A16081   1.822   3.423  14.954 -0.7308 -0.2207 -0.3523
  133CHL1  H21B16082   1.770   3.516  15.105 -3.9393  2.7832 -0.9878
  133CHL1  H21C16083   1.863   3.603  14.986 -0.3935  1.0245  2.5012
  133CHL1   C2216084   1.558   3.447  15.016 -0.1617 -0.2745  0.0994
  133CHL1  H22A16085   1.483   3.408  14.943 -0.1726  1.4641 -0.8648
  133CHL1  H22B16086   1.619   3.365  15.061  1.7994  1.2450  0.3454
  133CHL1   C2316087   1.499   3.518  15.141  0.2036 -0.6371  0.5658
  133CHL1  H23A16088   1.581   3.548  15.210  0.1068  1.6658 -0.2217
  133CHL1  H23B16089   1.451   3.612  15.107 -0.1123 -0.9296  0.1899
  133CHL1   C2416090   1.405   3.430  15.220 -0.3069  0.0536 -0.0854
  133CHL1  H24A16091   1.313   3.412  15.160 -1.1417  0.7576  0.9434
  133CHL1  H24B16092   1.445   3.327  15.235  2.7506  1.0882 -0.3626
  133CHL1   C2516093   1.356   3.475  15.356 -0.3399 -0.0638 -0.5183
  133CHL1   H2516094   1.296   3.568  15.343 -0.0022  0.2409  0.0571
  133CHL1   C2616095   1.259   3.371  15.399 -0.1199 -0.0502 -0.3300
  133CHL1  H26A16096   1.222   3.400  15.500 -0.6667  2.4105 -1.1682
  133CHL1  H26B16097   1.176   3.353  15.328 -1.4635  0.6616  0.9844
  133CHL1  H26C16098   1.311   3.273  15.407 -1.8874 -1.0857 -1.0551
  133CHL1   C2716099   1.467   3.509  15.460  0.0495  0.3822 -1.1477
  133CHL1  H27A16100   1.535   3.585  15.416  0.4269  0.7038 -0.0366
  133CHL1  H27B16101   1.422   3.561  15.547  0.9871  0.7004 -0.8521
  133CHL1  H27C16102   1.525   3.420  15.489  0.1705  0.6149 -0.6659
  134CHL1    C316103   6.576   4.033  13.796 -0.5392  0.6675  0.3439
  134CHL1    H316104   6.651   3.964  13.841  0.6931  1.3860 -0.5527
  134CHL1    O316105   6.596   4.056  13.653 -0.1485  0.1838 -0.0293
  134CHL1   H3'16106   6.633   4.145  13.656 -0.8548  0.4699  1.1512
  134CHL1    C416107   6.440   3.955  13.807  0.1184 -0.1076 -0.4493
  134CHL1   H4A16108   6.356   4.021  13.778  1.2940  2.3044  1.2648
  134CHL1   H4B16109   6.441   3.866  13.741 -1.2479 -0.2788 -0.2642
  134CHL1    C516110   6.410   3.919  13.949  0.0573 -0.1922 -0.0364
  134CHL1    C616111   6.385   3.790  13.980  0.4352  0.0637  0.2087
  134CHL1    H616112   6.381   3.710  13.905  0.5345 -0.5796  0.8777
  134CHL1    C716113   6.362   3.744  14.118 -0.4940  0.8143  0.0124
  134CHL1   H7A16114   6.272   3.680  14.130  0.3684 -0.4511 -0.1065
  134CHL1   H7B16115   6.451   3.690  14.157  2.0958  3.3416 -1.9821
  134CHL1    C816116   6.337   3.860  14.210  0.3920 -0.3196 -0.0157
  134CHL1    H816117   6.231   3.891  14.194  0.3985  0.5554  1.4797
  134CHL1   C1416118   6.345   3.815  14.353  0.3371 -0.6141 -0.3366
  134CHL1   H1416119   6.449   3.780  14.369  0.6319  1.1524  2.2320
  134CHL1   C1516120   6.261   3.694  14.395  0.5130  0.1306 -0.4664
  134CHL1  H15A16121   6.160   3.694  14.350 -0.1764 -2.4883  0.8819
  134CHL1  H15B16122   6.314   3.602  14.364  1.1461  0.7359 -1.2347
  134CHL1   C1616123   6.254   3.708  14.549 -0.5239 -0.2347  0.3333
  134CHL1  H16A16124   6.145   3.716  14.570 -0.8258 -0.5828 -1.0159
  134CHL1  H16B16125   6.288   3.610  14.590 -0.3672 -0.6872 -0.8629
  134CHL1   C1716126   6.326   3.841  14.586  0.0924  0.2498  0.1287
  134CHL1   H1716127   6.428   3.802  14.607  0.3269  1.2606  0.9098
  134CHL1   C1316128   6.317   3.925  14.459  0.8631 -0.0372  0.3486
  134CHL1   C1816129   6.171   3.982  14.445  0.5055 -0.0154 -0.1086
  134CHL1  H18A16130   6.151   4.010  14.339  0.4859 -0.1855 -0.1503
  134CHL1  H18B16131   6.089   3.919  14.487 -0.6605  0.7342 -1.1671
  134CHL1  H18C16132   6.179   4.073  14.508  1.8445 -0.1507 -0.0627
  134CHL1   C1216133   6.420   4.036  14.444  0.1001  0.5109 -0.1178
  134CHL1  H12A16134   6.385   4.122  14.506 -1.9318 -0.5401  0.2927
  134CHL1  H12B16135   6.517   3.993  14.475 -0.7548 -3.2832 -2.1692
  134CHL1   C1116136   6.425   4.087  14.299 -0.0333  0.6477  0.4741
  134CHL1  H11A16137   6.338   4.156  14.295  0.5358  1.4038  0.8031
  134CHL1  H11B16138   6.511   4.155  14.282 -0.3186  0.2842 -3.0592
  134CHL1    C916139   6.433   3.980  14.187  0.1426 -0.1508 -1.0431
  134CHL1    H916140   6.531   3.929  14.197 -0.1265 -0.3672  0.6136
  134CHL1   C1016141   6.427   4.039  14.046  0.1289 -0.3138  0.0688
  134CHL1   C1916142   6.304   4.131  14.029 -0.5894  0.2432 -0.0663
  134CHL1  H19A16143   6.210   4.080  14.059  0.4465 -1.1767  0.9135
  134CHL1  H19B16144   6.319   4.218  14.097  2.3959  0.6552 -1.1127
  134CHL1  H19C16145   6.281   4.164  13.925 -0.2413  0.0536 -0.2040
  134CHL1    C116146   6.558   4.131  14.026 -0.1688  0.2077 -0.1091
  134CHL1   H1A16147   6.537   4.224  14.084  1.9196 -0.4283  1.8006
  134CHL1   H1B16148   6.649   4.088  14.073 -0.5779 -0.9299 -0.3410
  134CHL1    C216149   6.580   4.160  13.879  1.2738  0.2508 -0.5603
  134CHL1   H2A16150   6.679   4.210  13.867  1.6544  0.4411  2.5117
  134CHL1   H2B16151   6.498   4.227  13.847  0.3841  0.2849  1.6494
  134CHL1   C2016152   6.283   3.904  14.715 -0.0847  0.6288 -0.3251
  134CHL1   H2016153   6.202   3.977  14.689  0.4547  0.7838 -1.6850
  134CHL1   C2116154   6.400   3.990  14.773  0.0572  0.0505 -0.0921
  134CHL1  H21A16155   6.452   4.048  14.693 -1.9674 -1.4757 -2.6888
  134CHL1  H21B16156   6.479   3.924  14.816  0.6677  0.9565  0.2083
  134CHL1  H21C16157   6.358   4.051  14.856  0.3661  1.0483 -0.6477
  134CHL1   C2216158   6.216   3.807  14.818  0.2581 -0.1028  0.7140
  134CHL1  H22A16159   6.119   3.765  14.785  0.4456 -0.6338  0.8216
  134CHL1  H22B16160   6.275   3.714  14.835 -1.3663 -1.2591  0.2037
  134CHL1   C2316161   6.209   3.864  14.958 -0.3676  0.1910 -0.0122
  134CHL1  H23A16162   6.309   3.885  15.000 -1.5241  2.4856  1.7737
  134CHL1  H23B16163   6.146   3.955  14.956  2.5902  2.3788 -1.6187
  134CHL1   C2416164   6.164   3.747  15.051 -0.4742  0.0516 -0.7037
  134CHL1  H24A16165   6.059   3.730  15.018 -0.3815  0.2586 -1.1002
  134CHL1  H24B16166   6.230   3.661  15.027  0.3173  0.8241 -1.3575
  134CHL1   C2516167   6.175   3.766  15.205 -0.4749 -0.1594  0.2485
  134CHL1   H2516168   6.283   3.777  15.230 -0.3192 -1.2787  0.1221
  134CHL1   C2616169   6.107   3.891  15.260  0.0365  0.6019  0.6436
  134CHL1  H26A16170   5.998   3.876  15.251  0.3348 -0.2554 -3.4377
  134CHL1  H26B16171   6.117   3.915  15.368  1.4811  0.1706  0.6299
  134CHL1  H26C16172   6.130   3.976  15.192 -0.9667  0.4483  0.1020
  134CHL1   C2716173   6.119   3.641  15.280  0.5218  0.0784  0.2419
  134CHL1  H27A16174   6.152   3.644  15.386 -1.4111 -2.0387  1.0062
  134CHL1  H27B16175   6.008   3.648  15.285  0.5330  0.0324  4.8997
  134CHL1  H27C16176   6.151   3.547  15.229 -0.6137 -0.6781  0.8596
  135CHL1    C316177   6.976   3.006  13.859 -0.1785  0.1610  0.1797
  135CHL1    H316178   6.888   3.068  13.831  0.4890  1.2384  0.3949
  135CHL1    O316179   6.973   2.891  13.779 -0.3764  0.0724  0.2356
  135CHL1   H3'16180   6.909   2.830  13.815 -0.2714  0.7831  1.6723
  135CHL1    C416181   7.105   3.083  13.849 -0.4893 -0.1228 -0.7697
  135CHL1   H4A16182   7.193   3.016  13.863 -0.5995 -0.3138 -1.0010
  135CHL1   H4B16183   7.122   3.119  13.746 -0.9503  1.0142 -0.4621
  135CHL1    C516184   7.112   3.196  13.951 -0.2043  0.4604 -0.6874
  135CHL1    C616185   7.128   3.323  13.915 -0.6927 -0.0763  0.1460
  135CHL1    H616186   7.143   3.341  13.807 -2.6323  0.8117 -0.0243
  135CHL1    C716187   7.136   3.441  14.013  0.4703 -0.3473  0.0449
  135CHL1   H7A16188   7.207   3.518  13.976  0.4170  0.2332  1.1272
  135CHL1   H7B16189   7.034   3.484  14.016  0.3507 -0.6791  0.8875
  135CHL1    C816190   7.173   3.397  14.156  0.1380  0.1658 -0.1249
  135CHL1    H816191   7.279   3.366  14.163 -0.2213 -0.8552  1.0035
  135CHL1   C1416192   7.144   3.509  14.256  0.2314  0.7371 -0.6786
  135CHL1   H1416193   7.036   3.535  14.255 -0.2651 -0.8451  1.7324
  135CHL1   C1516194   7.209   3.647  14.240  0.1072 -0.2567 -0.4958
  135CHL1  H15A16195   7.311   3.627  14.200 -0.4363 -1.5511 -1.3064
  135CHL1  H15B16196   7.149   3.698  14.161  0.7938  2.3862  0.5744
  135CHL1   C1616197   7.203   3.713  14.370 -0.0727 -0.0107  0.3968
  135CHL1  H16A16198   7.311   3.733  14.387  0.0266  0.6530 -0.8702
  135CHL1  H16B16199   7.149   3.810  14.355 -1.6103 -0.9909 -0.7747
  135CHL1   C1716200   7.137   3.618  14.474  0.6367  0.4193  0.1626
  135CHL1   H1716201   7.027   3.632  14.462  0.7581  2.4893  1.1665
  135CHL1   C1316202   7.162   3.480  14.403 -0.2522 -0.0053  0.2332
  135CHL1   C1816203   7.315   3.436  14.424  0.3485  0.5645 -0.9703
  135CHL1  H18A16204   7.330   3.333  14.384 -1.4888  0.2724 -1.0198
  135CHL1  H18B16205   7.385   3.506  14.373 -0.6120  2.9048  0.7773
  135CHL1  H18C16206   7.332   3.429  14.533 -1.2964 -0.6475 -0.7397
  135CHL1   C1216207   7.067   3.369  14.439 -0.2560 -0.4601 -0.0530
  135CHL1  H12A16208   7.089   3.340  14.545  0.7394 -0.8974 -0.3676
  135CHL1  H12B16209   6.962   3.406  14.434  0.3445  1.8378  2.0449
  135CHL1   C1116210   7.079   3.246  14.347 -0.3759  0.1949  0.4699
  135CHL1  H11A16211   7.178   3.199  14.369 -0.7770 -0.7368  0.3389
  135CHL1  H11B16212   7.011   3.167  14.385  0.5726 -0.7270  0.3048
  135CHL1    C916213   7.075   3.279  14.192 -0.1371  0.3380 -0.2077
  135CHL1    H916214   6.974   3.324  14.181 -0.1707  0.7631  1.5042
  135CHL1   C1016215   7.090   3.156  14.097  0.1843  0.2026 -0.3596
  135CHL1   C1916216   7.211   3.075  14.149 -0.6485 -0.2318 -0.5416
  135CHL1  H19A16217   7.194   3.029  14.248 -0.0113  1.0708  0.2019
  135CHL1  H19B16218   7.241   2.990  14.085 -0.0339 -0.0708 -0.4755
  135CHL1  H19C16219   7.296   3.146  14.153 -0.7315 -0.2000  1.5103
  135CHL1    C116220   6.957   3.071  14.112 -0.7701 -0.1700  0.1483
  135CHL1   H1A16221   6.954   3.024  14.213 -0.5814 -0.1180  0.1795
  135CHL1   H1B16222   6.867   3.133  14.094 -0.0772  0.4258 -1.4392
  135CHL1    C216223   6.951   2.959  14.002 -0.1487 -1.3203  0.0977
  135CHL1   H2A16224   6.859   2.897  14.007 -1.4452  0.4176 -1.0913
  135CHL1   H2B16225   7.037   2.891  14.019  0.5045 -0.7107 -0.6948
  135CHL1   C2016226   7.177   3.638  14.615  0.1783 -0.5024  0.2034
  135CHL1   H2016227   7.284   3.617  14.632  0.7829  2.0064 -0.1310
  135CHL1   C2116228   7.090   3.550  14.709 -0.2046 -0.1089 -0.0325
  135CHL1  H21A16229   7.096   3.583  14.815 -0.7789  1.2565 -0.3932
  135CHL1  H21B16230   7.119   3.443  14.712 -1.5023 -0.4566  2.6587
  135CHL1  H21C16231   6.982   3.563  14.683 -0.4672 -2.2845 -0.2346
  135CHL1   C2216232   7.157   3.790  14.658  0.1395  0.1895  0.5388
  135CHL1  H22A16233   7.210   3.806  14.755  1.1027 -0.7020  0.1725
  135CHL1  H22B16234   7.189   3.859  14.577  1.7139  0.7530  1.5919
  135CHL1   C2316235   7.009   3.841  14.687  0.3406  0.1025  0.4758
  135CHL1  H23A16236   6.949   3.814  14.597  0.4535 -0.7640  0.6513
  135CHL1  H23B16237   6.956   3.780  14.763 -4.0372  0.5308 -1.9424
  135CHL1   C2416238   7.001   3.998  14.719 -0.0131  0.0231 -0.1673
  135CHL1  H24A16239   7.069   4.015  14.806 -0.4382 -2.0710  0.6460
  135CHL1  H24B16240   7.045   4.055  14.634 -0.4281  0.2047 -0.2609
  135CHL1   C2516241   6.860   4.048  14.750 -0.0636  0.7524  0.3367
  135CHL1   H2516242   6.819   3.976  14.824  0.6792  3.4220  3.5959
  135CHL1   C2616243   6.861   4.184  14.825 -0.3573 -0.0686  0.1311
  135CHL1  H26A16244   6.951   4.186  14.890  0.5533  2.6306 -1.0561
  135CHL1  H26B16245   6.878   4.268  14.755 -0.7858  1.3283  1.6528
  135CHL1  H26C16246   6.760   4.204  14.866 -1.9830  1.2668 -3.9691
  135CHL1   C2716247   6.767   4.051  14.630  0.2698  0.4709  1.1111
  135CHL1  H27A16248   6.791   4.136  14.563 -0.1563 -0.8282 -0.7535
  135CHL1  H27B16249   6.795   3.968  14.562  1.6178  0.3845  1.7351
  135CHL1  H27C16250   6.662   4.045  14.666  0.1622 -1.3247  0.5990
  136CHL1    C316251   5.125   2.345  14.004 -0.5408 -0.0878 -0.3712
  136CHL1    H316252   5.172   2.444  13.989  1.3935 -0.7566  0.8480
  136CHL1    O316253   5.109   2.286  13.876  0.0410 -0.1962  0.1616
  136CHL1   H3'16254   5.195   2.304  13.839  0.7522 -1.4899  1.0918
  136CHL1    C416255   5.229   2.256  14.078  0.5661 -0.5965 -0.0400
  136CHL1   H4A16256   5.198   2.149  14.080  2.8860 -1.3327 -1.0003
  136CHL1   H4B16257   5.319   2.254  14.013 -0.6999  1.3733 -2.0397
  136CHL1    C516258   5.260   2.319  14.215 -0.1280  0.0494  0.2984
  136CHL1    C616259   5.378   2.366  14.254  0.3518 -0.3092 -0.1371
  136CHL1    H616260   5.461   2.373  14.182 -0.9925 -0.0168 -1.7123
  136CHL1    C716261   5.408   2.413  14.394  0.1821  0.0965  0.5151
  136CHL1   H7A16262   5.506   2.382  14.436  0.5654  0.8778  0.2195
  136CHL1   H7B16263   5.408   2.524  14.388  1.3596  0.1004  0.4951
  136CHL1    C816264   5.296   2.391  14.504 -0.0994  0.5281  0.5561
  136CHL1    H816265   5.309   2.285  14.532  1.9264  0.6430  0.2239
  136CHL1   C1416266   5.315   2.483  14.629 -0.3045  0.5134  0.4762
  136CHL1   H1416267   5.329   2.588  14.593  3.5908  0.1348  0.4751
  136CHL1   C1516268   5.443   2.461  14.709 -0.3636  0.2107 -0.6704
  136CHL1  H15A16269   5.466   2.354  14.727 -1.3569 -0.2608 -2.0455
  136CHL1  H15B16270   5.531   2.514  14.665  0.4827 -1.1872 -0.7333
  136CHL1   C1616271   5.412   2.524  14.846  0.4085  0.6784 -0.3204
  136CHL1  H16A16272   5.414   2.457  14.934 -0.2878  0.9181 -0.1122
  136CHL1  H16B16273   5.485   2.606  14.862  0.2335  0.8313 -0.3044
  136CHL1   C1716274   5.265   2.572  14.833  0.0953 -0.4202 -0.6092
  136CHL1   H1716275   5.268   2.673  14.786  1.3938  1.2540  2.7176
  136CHL1   C1316276   5.201   2.475  14.726  0.2241 -0.5539  0.3873
  136CHL1   C1816277   5.181   2.336  14.782  0.8099 -0.1801 -0.0303
  136CHL1  H18A16278   5.156   2.260  14.705 -0.7496 -0.3687  0.6273
  136CHL1  H18B16279   5.268   2.288  14.833  1.2012 -0.1536 -0.6501
  136CHL1  H18C16280   5.095   2.343  14.851  0.7452 -3.0828  0.3045
  136CHL1   C1216281   5.077   2.527  14.654 -0.2768 -0.4127 -0.1562
  136CHL1  H12A16282   4.989   2.535  14.721  1.9372  1.4738  2.7828
  136CHL1  H12B16283   5.093   2.631  14.619  0.3336 -1.0377 -1.8610
  136CHL1   C1116284   5.051   2.439  14.530  0.1723  0.3150  0.1488
  136CHL1  H11A16285   5.010   2.342  14.565 -1.2826  0.8449  0.0180
  136CHL1  H11B16286   4.971   2.495  14.477  0.3022  2.9158  2.4872
  136CHL1    C916287   5.162   2.420  14.429  0.1391 -0.5848 -0.1767
  136CHL1    H916288   5.190   2.515  14.378 -1.4951  0.5234  0.9004
  136CHL1   C1016289   5.136   2.337  14.301  0.5309  0.5534 -0.4631
  136CHL1   C1916290   5.092   2.200  14.349  0.2236  0.1247 -0.7634
  136CHL1  H19A16291   5.181   2.159  14.402  1.9484  2.7629 -1.4302
  136CHL1  H19B16292   5.004   2.199  14.417  2.0401 -1.0872  1.7497
  136CHL1  H19C16293   5.065   2.142  14.258 -1.8019 -1.4633  0.7291
  136CHL1    C116294   5.021   2.410  14.221 -0.0071  0.5665 -0.1135
  136CHL1   H1A16295   4.933   2.393  14.287 -0.1097 -0.4821 -0.4913
  136CHL1   H1B16296   5.032   2.520  14.219 -0.7059  1.0171  5.0634
  136CHL1    C216297   4.993   2.354  14.080 -0.6268  0.1971  0.1237
  136CHL1   H2A16298   4.913   2.409  14.026 -0.7330 -2.3031 -2.4648
  136CHL1   H2B16299   4.949   2.253  14.094  0.2959  0.0217  2.1187
  136CHL1   C2016300   5.205   2.586  14.970 -0.2543  0.3374  0.0784
  136CHL1   H2016301   5.225   2.494  15.029 -1.6083 -0.9681 -1.4192
  136CHL1   C2116302   5.053   2.610  14.961  0.4817  0.2401 -0.4535
  136CHL1  H21A16303   5.004   2.642  15.056  2.3359  1.8090  0.0429
  136CHL1  H21B16304   4.995   2.523  14.924 -1.7941  0.8228  1.5105
  136CHL1  H21C16305   5.039   2.688  14.883 -0.5963 -0.3361 -0.8476
  136CHL1   C2216306   5.274   2.700  15.056  0.1784  0.0299  0.3388
  136CHL1  H22A16307   5.385   2.703  15.048  0.1137  0.3326 -0.5469
  136CHL1  H22B16308   5.246   2.801  15.020  5.1108  1.5549  0.0190
  136CHL1   C2316309   5.242   2.691  15.205 -0.0534 -0.0667  0.0238
  136CHL1  H23A16310   5.136   2.662  15.221  0.6124 -2.3715  0.5083
  136CHL1  H23B16311   5.305   2.608  15.242  1.0735  0.1909 -1.2385
  136CHL1   C2416312   5.270   2.820  15.274  0.1323  0.2733 -0.4727
  136CHL1  H24A16313   5.379   2.844  15.266  0.1263  0.8874  1.0605
  136CHL1  H24B16314   5.209   2.904  15.236 -1.8129  1.5010  4.5539
  136CHL1   C2516315   5.230   2.817  15.420  0.6402 -0.1941  0.3905
  136CHL1   H2516316   5.121   2.798  15.409  0.0021  0.7965  3.8640
  136CHL1   C2616317   5.298   2.708  15.507 -0.4659 -0.4174  0.2460
  136CHL1  H26A16318   5.408   2.714  15.493 -0.8588  0.1071 -3.6604
  136CHL1  H26B16319   5.266   2.703  15.614  1.9389 -1.8760  0.9735
  136CHL1  H26C16320   5.269   2.607  15.470  0.2474  0.1419 -1.9577
  136CHL1   C2716321   5.256   2.953  15.489 -0.3194  0.6738 -0.0950
  136CHL1  H27A16322   5.364   2.979  15.491 -0.1496 -0.0120  2.0822
  136CHL1  H27B16323   5.197   3.030  15.433  0.2732 -1.0479 -3.3044
  136CHL1  H27C16324   5.218   2.946  15.593 -0.5527  0.6386 -0.1810
  137CHL1    C316325   1.594   2.314  14.222  0.1963  0.4125 -0.3957
  137CHL1    H316326   1.697   2.298  14.260 -0.6467  1.8675  2.8027
  137CHL1    O316327   1.567   2.290  14.082 -0.5849 -0.4261  0.5538
  137CHL1   H3'16328   1.617   2.359  14.037  1.6517 -1.2294  1.6264
  137CHL1    C416329   1.497   2.218  14.303  0.3873  0.4229 -0.1819
  137CHL1   H4A16330   1.390   2.244  14.287 -1.1278 -3.3785  2.3190
  137CHL1   H4B16331   1.501   2.112  14.273 -1.1857  0.0546  0.7753
  137CHL1    C516332   1.516   2.239  14.452 -0.2573 -0.0896 -0.7772
  137CHL1    C616333   1.551   2.148  14.538 -0.2268  1.4504 -0.2497
  137CHL1    H616334   1.577   2.047  14.503  0.7335  1.8704 -0.7769
  137CHL1    C716335   1.548   2.147  14.690  0.0148  0.0618  0.0518
  137CHL1   H7A16336   1.486   2.066  14.736  0.4027  0.1529  0.7575
  137CHL1   H7B16337   1.651   2.118  14.721 -0.3112 -0.1163  1.0232
  137CHL1    C816338   1.497   2.285  14.738  0.3576 -0.5373 -0.1061
  137CHL1    H816339   1.386   2.289  14.737  0.3777  0.0836 -0.7521
  137CHL1   C1416340   1.544   2.311  14.885 -0.1112 -0.2484  0.2388
  137CHL1   H1416341   1.655   2.315  14.881 -0.0038 -0.6604  1.9491
  137CHL1   C1516342   1.507   2.204  14.993 -0.5205 -0.1945  0.7127
  137CHL1  H15A16343   1.409   2.153  14.983  0.2493 -2.0247  2.0417
  137CHL1  H15B16344   1.577   2.118  14.986 -0.6598 -0.4092  1.8602
  137CHL1   C1616345   1.508   2.277  15.123 -0.9075 -0.3740  0.1806
  137CHL1  H16A16346   1.406   2.263  15.165 -1.2066  1.6808  0.2543
  137CHL1  H16B16347   1.586   2.239  15.193  1.0680 -0.0585 -1.7320
  137CHL1   C1716348   1.553   2.423  15.094 -0.2528  0.0566 -0.1101
  137CHL1   H1716349   1.663   2.436  15.086 -0.4634  2.0199 -0.3709
  137CHL1   C1316350   1.499   2.441  14.945  0.0471 -0.3142 -0.4418
  137CHL1   C1816351   1.341   2.449  14.947 -0.0466 -0.0164 -0.3626
  137CHL1  H18A16352   1.298   2.547  14.977 -0.7871  0.5245 -2.9969
  137CHL1  H18B16353   1.303   2.436  14.844  0.3647 -0.9773 -0.4031
  137CHL1  H18C16354   1.297   2.372  15.014  1.1403 -0.1886  0.2609
  137CHL1   C1216355   1.544   2.561  14.855 -0.7625 -0.1310 -0.2067
  137CHL1  H12A16356   1.512   2.658  14.899 -1.0004 -0.1027 -0.4395
  137CHL1  H12B16357   1.655   2.562  14.857 -0.7461 -1.6877  0.9164
  137CHL1   C1116358   1.506   2.545  14.708  0.3696  0.2066  0.9245
  137CHL1  H11A16359   1.399   2.571  14.691 -0.0325 -1.9226 -0.1886
  137CHL1  H11B16360   1.570   2.614  14.650 -0.1897 -0.6366 -0.7745
  137CHL1    C916361   1.528   2.403  14.645 -0.2217  0.4612  0.0583
  137CHL1    H916362   1.639   2.399  14.644 -0.2616 -1.2171 -0.8940
  137CHL1   C1016363   1.480   2.383  14.503  0.4508  0.3988  0.8098
  137CHL1   C1916364   1.326   2.415  14.492 -0.3970 -0.0685  0.0737
  137CHL1  H19A16365   1.268   2.363  14.571 -0.3435 -1.2389 -0.6314
  137CHL1  H19B16366   1.304   2.524  14.500  1.1913  0.5217 -2.3026
  137CHL1  H19C16367   1.282   2.380  14.396 -0.7373 -2.0801  0.9127
  137CHL1    C116368   1.563   2.481  14.413  0.0776  0.6725  0.4621
  137CHL1   H1A16369   1.541   2.589  14.426 -1.4860  0.5125 -0.5423
  137CHL1   H1B16370   1.671   2.467  14.437  1.0417  1.6271 -2.7117
  137CHL1    C216371   1.556   2.457  14.258  1.3227  0.0435  0.8134
  137CHL1   H2A16372   1.617   2.525  14.194  0.7493  0.0700  0.2876
  137CHL1   H2B16373   1.450   2.480  14.235  0.6710 -1.7527  1.8800
  137CHL1   C2016374   1.498   2.514  15.206  0.3845 -0.7447  0.5933
  137CHL1   H2016375   1.387   2.514  15.204  0.3877 -0.0844  0.0930
  137CHL1   C2116376   1.545   2.659  15.180 -0.4605 -0.0743 -0.5547
  137CHL1  H21A16377   1.528   2.723  15.269 -1.7230 -0.2307 -0.6568
  137CHL1  H21B16378   1.499   2.715  15.096 -0.6233 -0.4128 -0.6940
  137CHL1  H21C16379   1.656   2.662  15.172 -0.2250 -1.1893  1.5693
  137CHL1   C2216380   1.526   2.459  15.347  0.3923 -1.0243 -0.5314
  137CHL1  H22A16381   1.501   2.352  15.362 -2.7786 -0.2974  0.0522
  137CHL1  H22B16382   1.632   2.475  15.377  0.3775 -1.0831 -0.4471
  137CHL1   C2316383   1.459   2.540  15.465  0.4326  0.3468  0.5470
  137CHL1  H23A16384   1.498   2.482  15.551  2.2133  2.4371  1.2263
  137CHL1  H23B16385   1.499   2.641  15.488  1.3999  0.3736 -1.0680
  137CHL1   C2416386   1.301   2.543  15.458 -0.4953  0.0663  0.9401
  137CHL1  H24A16387   1.264   2.611  15.378 -0.6253 -2.1840 -1.0596
  137CHL1  H24B16388   1.269   2.441  15.426  4.1399 -1.0772 -0.9151
  137CHL1   C2516389   1.235   2.582  15.588  0.5911  0.2491  0.4819
  137CHL1   H2516390   1.273   2.682  15.617 -0.1174  1.0065 -1.0796
  137CHL1   C2616391   1.087   2.609  15.578 -0.1128 -0.1698 -0.4186
  137CHL1  H26A16392   1.064   2.695  15.511  0.2021 -0.7729 -1.3219
  137CHL1  H26B16393   1.041   2.522  15.525 -2.0867  0.1736  0.6503
  137CHL1  H26C16394   1.054   2.620  15.683  2.0583  1.7747  0.1497
  137CHL1   C2716395   1.258   2.481  15.698 -0.3819  0.0672 -1.0655
  137CHL1  H27A16396   1.222   2.523  15.795  1.0158 -0.7272 -0.1641
  137CHL1  H27B16397   1.218   2.380  15.673  1.2460 -0.8767 -0.0763
  137CHL1  H27C16398   1.367   2.468  15.719 -0.8668  1.8153  3.7450
  138CHL1    C316399   7.483   0.594  13.688  0.8277  0.7828 -0.3649
  138CHL1    H316400   7.540   0.499  13.678 -0.0345  0.0829  1.0749
  138CHL1    O316401   7.497   0.672  13.572  0.3780  0.1032  0.1096
  138CHL1   H3'16402   7.500   0.616  13.494 -4.1490  0.9033 -0.9208
  138CHL1    C416403   7.342   0.551  13.710  0.4027 -0.4189  0.2563
  138CHL1   H4A16404   7.291   0.649  13.708  1.4046  0.1079 -0.5872
  138CHL1   H4B16405   7.305   0.498  13.620  1.7200  1.8377 -1.7160
  138CHL1    C516406   7.309   0.479  13.839 -0.7385 -0.2166  0.1447
  138CHL1    C616407   7.240   0.365  13.839  0.3674  0.0032  0.0158
  138CHL1    H616408   7.217   0.313  13.745  2.4476 -0.9143 -0.0479
  138CHL1    C716409   7.207   0.288  13.967  0.1959 -0.2412  0.3502
  138CHL1   H7A16410   7.105   0.245  13.958  0.8362 -1.3773 -2.2704
  138CHL1   H7B16411   7.282   0.206  13.969  2.7261  1.9390  1.1835
  138CHL1    C816412   7.231   0.369  14.098  0.1580  0.9024 -0.5873
  138CHL1    H816413   7.146   0.436  14.119  1.0139  1.0434  2.9658
  138CHL1   C1416414   7.241   0.264  14.210  0.5496  0.2839 -0.4141
  138CHL1   H1416415   7.325   0.199  14.180  0.7436 -0.6270  1.9051
  138CHL1   C1516416   7.133   0.152  14.234 -0.2603 -0.1938 -0.4174
  138CHL1  H15A16417   7.028   0.187  14.227 -0.6570 -1.0334  0.9077
  138CHL1  H15B16418   7.148   0.074  14.155  0.9368  1.2683 -1.6949
  138CHL1   C1616419   7.155   0.109  14.380 -0.6273  0.0416  0.2167
  138CHL1  H16A16420   7.060   0.143  14.428 -1.1066 -0.7367 -0.1624
  138CHL1  H16B16421   7.157  -0.002  14.386 -0.9876  0.0953  1.8616
  138CHL1   C1716422   7.273   0.191  14.434  0.2968  0.3164  0.5051
  138CHL1   H1716423   7.365   0.135  14.407 -0.5361 -0.5430 -0.6328
  138CHL1   C1316424   7.279   0.318  14.348 -0.6946 -0.1894  0.2150
  138CHL1   C1816425   7.164   0.416  14.404 -0.6333 -0.3959  0.2486
  138CHL1  H18A16426   7.154   0.500  14.331  1.8661 -1.8513 -1.9175
  138CHL1  H18B16427   7.066   0.367  14.422 -0.5080 -0.3893  0.9622
  138CHL1  H18C16428   7.188   0.455  14.505 -2.8110 -1.3391  1.1853
  138CHL1   C1216429   7.418   0.392  14.333 -0.6965 -0.5430 -0.0043
  138CHL1  H12A16430   7.454   0.446  14.424 -1.3463  0.3215 -0.2486
  138CHL1  H12B16431   7.485   0.306  14.314  0.1707  0.1683 -0.1867
  138CHL1   C1116432   7.420   0.490  14.228  0.0940 -0.1963 -0.1626
  138CHL1  H11A16433   7.360   0.580  14.249  0.5921  0.2682 -0.7055
  138CHL1  H11B16434   7.526   0.523  14.219 -0.1689  0.4029 -1.2939
  138CHL1    C916435   7.369   0.441  14.089 -0.6632 -0.8523  0.5732
  138CHL1    H916436   7.443   0.363  14.061  0.2736  0.0039  0.6164
  138CHL1   C1016437   7.378   0.538  13.971 -0.1056 -0.1931 -0.2232
  138CHL1   C1916438   7.302   0.674  14.008  0.1352 -0.7197  0.0222
  138CHL1  H19A16439   7.355   0.722  14.093  0.9615 -0.2667 -0.7265
  138CHL1  H19B16440   7.310   0.746  13.923 -1.5457  0.7921  1.0756
  138CHL1  H19C16441   7.197   0.654  14.037 -0.4782 -0.0467 -1.6380
  138CHL1    C116442   7.525   0.583  13.940 -0.9021  0.4084 -0.1066
  138CHL1   H1A16443   7.562   0.635  14.031 -2.2568  0.5043  0.4147
  138CHL1   H1B16444   7.588   0.492  13.926  1.0072  1.8811 -1.6402
  138CHL1    C216445   7.540   0.675  13.811 -0.2486 -0.6071 -0.0645
  138CHL1   H2A16446   7.646   0.699  13.790  0.3039 -0.4256  2.6595
  138CHL1   H2B16447   7.490   0.773  13.828 -1.2176 -0.6967 -2.1128
  138CHL1   C2016448   7.286   0.198  14.583  0.2032 -0.2040 -0.1221
  138CHL1   H2016449   7.184   0.218  14.623  0.4880 -2.1807  1.7923
  138CHL1   C2116450   7.397   0.297  14.647  0.2875  0.7884 -0.0624
  138CHL1  H21A16451   7.395   0.289  14.757 -2.6270 -0.5319 -0.1106
  138CHL1  H21B16452   7.376   0.401  14.616 -0.2316  0.9075  0.6702
  138CHL1  H21C16453   7.492   0.269  14.597  0.0537  0.1699 -0.1726
  138CHL1   C2216454   7.306   0.055  14.642  0.2004  0.6512  0.9271
  138CHL1  H22A16455   7.246  -0.025  14.592  1.1216 -0.0966  1.0010
  138CHL1  H22B16456   7.414   0.038  14.624 -0.0323  1.6567 -2.0298
  138CHL1   C2316457   7.273   0.051  14.793  0.2153  0.2686  0.1477
  138CHL1  H23A16458   7.350   0.115  14.841 -1.0252 -0.1412  2.8751
  138CHL1  H23B16459   7.173   0.096  14.810 -0.7609 -2.0850  1.1058
  138CHL1   C2416460   7.273  -0.086  14.857 -0.3383  0.1327  0.7169
  138CHL1  H24A16461   7.186  -0.145  14.820  0.4938 -0.0273 -1.0565
  138CHL1  H24B16462   7.365  -0.143  14.833 -0.4406  0.9925 -2.0657
  138CHL1   C2516463   7.252  -0.100  15.008  0.2140 -0.2040 -0.2968
  138CHL1   H2516464   7.333  -0.051  15.066 -0.1981  0.6828 -0.4498
  138CHL1   C2616465   7.117  -0.033  15.046  0.2415  0.3909  0.5885
  138CHL1  H26A16466   7.104   0.074  15.018  1.1432  0.5760  0.8404
  138CHL1  H26B16467   7.041  -0.092  14.992  0.0358  1.0630  0.1365
  138CHL1  H26C16468   7.109  -0.031  15.157  1.5657  0.2498  0.6990
  138CHL1   C2716469   7.259  -0.245  15.047  0.1694  0.0301  0.4737
  138CHL1  H27A16470   7.267  -0.257  15.157  0.7406 -1.3456  0.2928
  138CHL1  H27B16471   7.175  -0.304  15.004  1.0150 -0.8934  0.0598
  138CHL1  H27C16472   7.356  -0.285  15.012  0.6100  0.4975  1.1206
  139CHL1    C316473   1.209   0.425  13.844 -0.8685 -0.3105 -0.3118
  139CHL1    H316474   1.312   0.386  13.830 -0.9647 -0.5079 -0.4758
  139CHL1    O316475   1.137   0.424  13.720  0.1255  0.4619 -0.3544
  139CHL1   H3'16476   1.099   0.335  13.718  0.6649  0.1836 -2.8512
  139CHL1    C416477   1.119   0.351  13.947 -0.6168  0.1544  0.2283
  139CHL1   H4A16478   1.013   0.380  13.930 -0.2836  0.5302 -1.3049
  139CHL1   H4B16479   1.127   0.241  13.938  0.5218 -0.1328  3.4467
  139CHL1    C516480   1.166   0.377  14.090 -0.1436 -0.4859  0.1017
  139CHL1    C616481   1.209   0.276  14.164  0.0634  0.0147  0.0128
  139CHL1    H616482   1.199   0.172  14.131  0.8455 -0.2947  0.7318
  139CHL1    C716483   1.251   0.299  14.310 -0.2681  0.0595  0.3007
  139CHL1   H7A16484   1.201   0.224  14.375  0.2165  1.4017  2.3143
  139CHL1   H7B16485   1.360   0.282  14.319 -0.1121 -0.5457 -2.0306
  139CHL1    C816486   1.223   0.445  14.367  0.8472  0.0137  0.0960
  139CHL1    H816487   1.113   0.457  14.379  0.9921  2.7823 -0.6284
  139CHL1   C1416488   1.290   0.461  14.493  0.5606  0.3956 -0.4272
  139CHL1   H1416489   1.397   0.453  14.465 -0.2858 -0.6478 -3.7897
  139CHL1   C1516490   1.269   0.360  14.611  0.2071  0.1893 -0.7212
  139CHL1  H15A16491   1.165   0.332  14.640  1.4068 -1.4059  2.6321
  139CHL1  H15B16492   1.315   0.261  14.589  0.4107  0.3800 -1.1453
  139CHL1   C1616493   1.339   0.432  14.732  0.4622 -0.1140  0.3909
  139CHL1  H16A16494   1.269   0.438  14.818  0.2658  2.6003  0.1146
  139CHL1  H16B16495   1.428   0.372  14.759  0.6332 -0.0231  0.0261
  139CHL1   C1716496   1.359   0.584  14.688 -0.3261  0.9029 -0.2739
  139CHL1   H1716497   1.463   0.586  14.649 -0.9810  2.9541 -2.1419
  139CHL1   C1316498   1.275   0.601  14.560  0.3407  0.2697 -0.1109
  139CHL1   C1816499   1.123   0.620  14.603 -0.0817 -0.6610 -0.3346
  139CHL1  H18A16500   1.058   0.667  14.526 -1.8498 -1.7243  0.4425
  139CHL1  H18B16501   1.064   0.536  14.645 -2.6576  1.3853  0.4841
  139CHL1  H18C16502   1.106   0.701  14.677 -4.3527  0.4680 -2.2770
  139CHL1   C1216503   1.326   0.706  14.458 -0.2128 -0.2815 -0.3829
  139CHL1  H12A16504   1.307   0.809  14.496 -3.2713 -0.7362 -0.4030
  139CHL1  H12B16505   1.436   0.700  14.442 -0.3680  0.6586 -2.0033
  139CHL1   C1116506   1.258   0.695  14.318  0.2150  0.5050 -0.2555
  139CHL1  H11A16507   1.151   0.723  14.324  0.6699  2.7504 -1.4568
  139CHL1  H11B16508   1.297   0.766  14.242 -0.4618  1.0355 -0.1136
  139CHL1    C916509   1.261   0.546  14.266  0.1418  0.1569  0.1465
  139CHL1    H916510   1.369   0.524  14.250  0.4837  0.4893  1.7887
  139CHL1   C1016511   1.187   0.530  14.130  0.5794  0.0063  0.0098
  139CHL1   C1916512   1.042   0.593  14.136  0.9321  0.1779 -0.2477
  139CHL1  H19A16513   0.983   0.575  14.044  0.0443  0.5210  0.2386
  139CHL1  H19B16514   0.990   0.542  14.220  2.4936 -1.8698 -0.4532
  139CHL1  H19C16515   1.048   0.703  14.153 -3.2800  0.3700  1.3859
  139CHL1    C116516   1.271   0.604  14.018 -0.0630  1.0690 -0.3281
  139CHL1   H1A16517   1.277   0.713  14.039  2.9634  0.5266  2.2226
  139CHL1   H1B16518   1.377   0.573  14.017 -0.2654  0.3547 -0.4707
  139CHL1    C216519   1.219   0.578  13.876 -0.0937 -0.2345 -0.2942
  139CHL1   H2A16520   1.281   0.633  13.803  2.7169  0.6987  2.5496
  139CHL1   H2B16521   1.121   0.629  13.876  1.4476  3.1139  2.4527
  139CHL1   C2016522   1.345   0.678  14.809 -0.5218  0.6535 -0.4956
  139CHL1   H2016523   1.240   0.663  14.843  0.1272 -0.4478  1.1291
  139CHL1   C2116524   1.371   0.821  14.768  0.8368 -0.0730  0.2352
  139CHL1  H21A16525   1.471   0.843  14.726  1.3250  0.0117  1.3985
  139CHL1  H21B16526   1.358   0.884  14.858 -0.7738  2.2537 -1.5149
  139CHL1  H21C16527   1.296   0.863  14.698  1.4268  3.2476  1.4333
  139CHL1   C2216528   1.436   0.634  14.932  0.9355 -0.0570  0.2786
  139CHL1  H22A16529   1.383   0.688  15.014  0.8505 -1.3913  1.1289
  139CHL1  H22B16530   1.421   0.524  14.943  0.8536  0.1732  3.6602
  139CHL1   C2316531   1.577   0.677  14.934 -0.9817 -0.3095  0.6805
  139CHL1  H23A16532   1.633   0.621  14.856 -1.3222  1.8348 -1.1813
  139CHL1  H23B16533   1.575   0.782  14.899 -3.4051 -1.7543 -4.5053
  139CHL1   C2416534   1.627   0.646  15.072 -0.5035  0.2278  0.4550
  139CHL1  H24A16535   1.577   0.706  15.151  0.9292  0.1983  1.4189
  139CHL1  H24B16536   1.606   0.541  15.102  1.5284 -0.9048 -1.7442
  139CHL1   C2516537   1.779   0.671  15.096  0.5165 -0.1605 -0.3894
  139CHL1   H2516538   1.834   0.608  15.023  0.7058 -1.4456  0.8206
  139CHL1   C2616539   1.819   0.822  15.070  0.8794  0.6092  0.0097
  139CHL1  H26A16540   1.746   0.888  15.122 -0.1734 -0.1074 -0.5257
  139CHL1  H26B16541   1.920   0.843  15.111  0.7108 -0.0830  0.8179
  139CHL1  H26C16542   1.806   0.849  14.963 -2.7839 -0.5353  0.0164
  139CHL1   C2716543   1.823   0.639  15.238  0.4231 -0.2412  0.4716
  139CHL1  H27A16544   1.924   0.684  15.255  0.4328  0.5494 -1.5219
  139CHL1  H27B16545   1.756   0.686  15.313  0.9401 -0.4589  1.0951
  139CHL1  H27C16546   1.805   0.532  15.262 -1.3630  0.0098  0.3796
  140CHL1    C316547   1.222   1.069  13.950 -0.0672 -0.7558 -0.7449
  140CHL1    H316548   1.253   0.965  13.931  1.8660 -0.8928  2.4365
  140CHL1    O316549   1.295   1.153  13.865  0.6726 -0.2747  0.8199
  140CHL1   H3'16550   1.260   1.241  13.878  2.2383  0.6156 -0.5689
  140CHL1    C416551   1.069   1.086  13.920 -0.2768  0.3994  0.4954
  140CHL1   H4A16552   1.045   1.193  13.907  1.0014  0.5090 -1.2132
  140CHL1   H4B16553   1.050   1.049  13.817  0.1693 -0.0588  0.5699
  140CHL1    C516554   0.973   1.027  14.024  0.1045  0.0177  0.1694
  140CHL1    C616555   0.875   0.942  13.986  0.8478 -0.7609 -0.0498
  140CHL1    H616556   0.856   0.927  13.879 -0.2057 -0.0272  0.0170
  140CHL1    C716557   0.772   0.889  14.087  0.5940  0.6512 -0.1139
  140CHL1   H7A16558   0.667   0.910  14.057 -0.1162 -0.9147  1.1255
  140CHL1   H7B16559   0.794   0.783  14.113 -1.1984 -0.1343 -1.5450
  140CHL1    C816560   0.780   0.958  14.226  0.2356 -0.7262 -0.8193
  140CHL1    H816561   0.741   1.062  14.225  1.5675 -0.1936 -0.0554
  140CHL1   C1416562   0.702   0.879  14.336 -0.0430 -0.5788 -0.0256
  140CHL1   H1416563   0.750   0.778  14.340  2.5246  0.4319 -2.0708
  140CHL1   C1516564   0.546   0.852  14.302  0.4131 -0.0960  0.3813
  140CHL1  H15A16565   0.506   0.938  14.243  1.1215  0.5086  0.7629
  140CHL1  H15B16566   0.533   0.765  14.234 -4.4845  0.8080 -0.1829
  140CHL1   C1616567   0.490   0.824  14.438 -0.3613 -0.6028  0.3708
  140CHL1  H16A16568   0.405   0.893  14.455 -0.8235 -1.6084  2.4168
  140CHL1  H16B16569   0.449   0.722  14.457  0.0525 -0.8117  0.1591
  140CHL1   C1716570   0.598   0.855  14.543  0.2928  0.4966 -0.0181
  140CHL1   H1716571   0.647   0.755  14.551 -1.2844 -0.2937  0.2074
  140CHL1   C1316572   0.701   0.945  14.472 -0.6590 -0.2440  0.0482
  140CHL1   C1816573   0.646   1.096  14.468  0.2029 -0.0728  0.0423
  140CHL1  H18A16574   0.708   1.156  14.399  0.5156 -1.4749 -0.9472
  140CHL1  H18B16575   0.539   1.107  14.440  0.8181  2.9322 -1.5999
  140CHL1  H18C16576   0.650   1.137  14.571 -2.5077  0.0642  0.1830
  140CHL1   C1216577   0.849   0.952  14.517  0.0516  0.2123  0.7595
  140CHL1  H12A16578   0.853   0.987  14.623  0.7461 -0.7846  1.0859
  140CHL1  H12B16579   0.884   0.847  14.521 -1.5334 -0.3696  0.0208
  140CHL1   C1116580   0.938   1.028  14.417 -0.2099  0.0806 -0.1210
  140CHL1  H11A16581   0.921   1.137  14.426 -2.5139 -0.3274  1.0020
  140CHL1  H11B16582   1.044   1.004  14.442 -0.0736 -2.2840 -2.4565
  140CHL1    C916583   0.924   0.978  14.267 -0.2800  0.0674  0.1335
  140CHL1    H916584   0.972   0.879  14.279  0.7174  0.7227  1.9125
  140CHL1   C1016585   1.009   1.059  14.171  0.4044  0.0573 -0.0344
  140CHL1   C1916586   0.992   1.209  14.196  0.8381  0.0861  0.3410
  140CHL1  H19A16587   0.887   1.245  14.192  0.5015 -0.8478  0.5231
  140CHL1  H19B16588   1.040   1.247  14.289  1.7874 -0.2975  0.0280
  140CHL1  H19C16589   1.053   1.265  14.122  0.4653  0.7185  0.5064
  140CHL1    C116590   1.161   1.027  14.193 -0.3175 -0.4730  0.7008
  140CHL1   H1A16591   1.200   1.060  14.292  0.1577  0.3044  0.2582
  140CHL1   H1B16592   1.178   0.918  14.179  1.1491 -0.0055 -1.6843
  140CHL1    C216593   1.255   1.100  14.095 -0.4013  0.8014  0.8961
  140CHL1   H2A16594   1.356   1.055  14.107  0.4925  1.8426 -2.0303
  140CHL1   H2B16595   1.249   1.205  14.129  0.3102  1.3153 -0.4891
  140CHL1   C2016596   0.543   0.888  14.688 -0.3093 -0.5958 -0.9721
  140CHL1   H2016597   0.474   0.805  14.713 -2.2902  1.3614  0.5113
  140CHL1   C2116598   0.457   1.016  14.696 -0.4951 -0.2207 -0.1099
  140CHL1  H21A16599   0.526   1.095  14.732 -1.3397  1.4224 -1.8956
  140CHL1  H21B16600   0.387   1.008  14.782 -0.1644 -0.8018  0.1126
  140CHL1  H21C16601   0.402   1.040  14.602 -0.4510  1.0166  0.1631
  140CHL1   C2216602   0.648   0.883  14.800 -0.1968  0.3988  0.4822
  140CHL1  H22A16603   0.710   0.975  14.799  1.3189 -0.5932 -0.1981
  140CHL1  H22B16604   0.593   0.893  14.896  0.3080  1.3588  0.6780
  140CHL1   C2316605   0.739   0.749  14.795 -0.3583  0.4668 -0.2342
  140CHL1  H23A16606   0.685   0.668  14.743 -1.4916 -0.1238  1.7342
  140CHL1  H23B16607   0.821   0.778  14.726 -0.6573 -1.5978 -1.5131
  140CHL1   C2416608   0.789   0.706  14.928 -0.1647 -0.2702 -0.5744
  140CHL1  H24A16609   0.702   0.688  14.995  0.3953  1.2542  0.6202
  140CHL1  H24B16610   0.853   0.615  14.925  0.1213 -0.0517 -1.6025
  140CHL1   C2516611   0.870   0.824  14.995  0.3174  0.3299 -0.7854
  140CHL1   H2516612   0.799   0.909  14.997 -0.3548 -0.2298 -0.1131
  140CHL1   C2616613   0.997   0.860  14.914 -0.3762  0.9679 -0.3426
  140CHL1  H26A16614   0.970   0.886  14.809 -2.8629 -0.9138 -0.2726
  140CHL1  H26B16615   1.057   0.926  14.980 -1.9371  2.0276  0.0877
  140CHL1  H26C16616   1.055   0.766  14.904 -3.2308 -0.8351 -1.4086
  140CHL1   C2716617   0.901   0.793  15.139  0.0845  0.5673 -0.1428
  140CHL1  H27A16618   0.807   0.787  15.198  1.2569 -1.2082  1.6824
  140CHL1  H27B16619   0.944   0.691  15.134 -1.4112 -0.0927 -0.0363
  140CHL1  H27C16620   0.969   0.869  15.183  0.1536  1.4754 -1.7314
  141DOPC     N16621   4.854   3.542  17.511  0.7048 -0.5604  0.1505
  141DOPC   C1216622   4.768   3.434  17.449 -0.2683  0.4795 -0.0537
  141DOPC  H12A16623   4.668   3.470  17.464 -0.9875 -1.1070 -0.9009
  141DOPC  H12B16624   4.777   3.346  17.510  0.4738  3.1405  4.0830
  141DOPC   C1316625   4.817   3.567  17.649 -0.2775  0.8672 -0.1637
  141DOPC  H13A16626   4.832   3.478  17.708 -1.8055  2.2548  2.5347
  141DOPC  H13B16627   4.872   3.646  17.697  1.6462  0.4506 -1.5664
  141DOPC  H13C16628   4.709   3.577  17.657 -0.3006  0.0547  0.8045
  141DOPC   C1416629   4.833   3.675  17.438 -0.9746 -0.1531  0.2738
  141DOPC  H14A16630   4.831   3.662  17.331 -1.4915 -1.8844  0.4668
  141DOPC  H14B16631   4.733   3.713  17.452 -1.2274 -0.2721 -1.0589
  141DOPC  H14C16632   4.908   3.751  17.457 -1.2048  0.5221 -1.3794
  141DOPC   C1516633   4.995   3.512  17.511 -0.0275 -0.6449  0.0085
  141DOPC  H15A16634   5.011   3.424  17.573 -1.4383 -0.8429  0.1195
  141DOPC  H15B16635   5.044   3.596  17.558 -3.2951  1.8507 -0.7579
  141DOPC  H15C16636   5.028   3.503  17.409 -1.0365  0.7210 -0.4586
  141DOPC   C1116637   4.805   3.396  17.305  0.2915  0.0768 -0.0077
  141DOPC  H11A16638   4.914   3.374  17.312  0.1034 -1.8567 -2.0920
  141DOPC  H11B16639   4.749   3.304  17.276  0.1900 -0.5626  2.0647
  141DOPC     P16640   4.651   3.546  17.147  0.1185  0.0759 -0.1396
  141DOPC   O1316641   4.663   3.694  17.137 -0.0600  0.0920  0.7827
  141DOPC   O1416642   4.534   3.497  17.230 -0.1003 -0.0973  0.4089
  141DOPC   O1216643   4.790   3.495  17.201  0.8906 -0.2511  0.0684
  141DOPC   O1116644   4.656   3.479  17.003  0.2940  0.2153  0.2208
  141DOPC    C116645   4.618   3.343  16.993 -0.2447  0.6143 -0.0851
  141DOPC    HA16646   4.564   3.296  17.078 -2.8114  1.7327 -0.9883
  141DOPC    HB16647   4.715   3.291  16.980  0.4500  2.2096 -1.7035
  141DOPC    C216648   4.524   3.323  16.868  0.6115 -0.3223 -1.1850
  141DOPC    HS16649   4.504   3.215  16.852  0.9550 -0.4705 -0.6373
  141DOPC   O2116650   4.578   3.380  16.750 -0.6118  0.0107 -0.0225
  141DOPC   C2116651   4.664   3.304  16.682  0.4675 -0.4285 -0.1557
  141DOPC   O2216652   4.693   3.189  16.708  0.8692 -0.0689 -0.2467
  141DOPC   C2216653   4.723   3.385  16.563 -0.3380  0.0389 -0.4606
  141DOPC   H2R16654   4.832   3.393  16.582 -0.4532 -1.4845  1.0834
  141DOPC   H2S16655   4.674   3.485  16.560 -3.9044 -1.4923  1.2231
  141DOPC    C316656   4.384   3.397  16.888 -0.4112  0.1867  0.5070
  141DOPC    HX16657   4.412   3.498  16.924 -0.4815  0.1561  0.6497
  141DOPC    HY16658   4.329   3.346  16.969 -1.3429 -2.9945 -1.9424
  141DOPC   O3116659   4.320   3.373  16.762  0.1907  0.6523  0.1370
  141DOPC   C3116660   4.315   3.471  16.685  0.4254  0.1549  0.0439
  141DOPC   O3216661   4.343   3.588  16.710  0.1339  0.1759  0.2111
  141DOPC   C3216662   4.267   3.421  16.552 -0.2751  1.0929  0.7639
  141DOPC   H2X16663   4.321   3.331  16.516  0.6391  0.8583  2.6178
  141DOPC   H2Y16664   4.160   3.394  16.556 -0.0045 -0.2491 -0.3269
  141DOPC   C2316665   4.689   3.323  16.428  0.1288  0.0422  0.4444
  141DOPC   H3R16666   4.580   3.318  16.405  0.3649 -1.0979 -0.4937
  141DOPC   H3S16667   4.720   3.217  16.418 -0.9987 -0.4501  1.8166
  141DOPC   C2416668   4.745   3.410  16.312 -0.6399  1.6097 -0.5189
  141DOPC   H4R16669   4.853   3.415  16.340 -0.5085  1.9950 -1.0764
  141DOPC   H4S16670   4.701   3.512  16.316  0.8203  2.3027  4.2822
  141DOPC   C2516671   4.728   3.350  16.167 -0.1584  0.3347  0.4291
  141DOPC   H5R16672   4.619   3.350  16.147 -0.3767  0.2128  1.5373
  141DOPC   H5S16673   4.762   3.244  16.175 -2.5005 -0.4162  1.2857
  141DOPC   C2616674   4.797   3.425  16.056  0.4225 -0.2929 -0.0207
  141DOPC   H6R16675   4.893   3.462  16.096  1.1953 -2.1258 -0.0457
  141DOPC   H6S16676   4.744   3.519  16.030 -0.5985 -1.2330 -1.5765
  141DOPC   C2716677   4.814   3.343  15.926  0.1405 -0.1164  0.1731
  141DOPC   H7R16678   4.715   3.309  15.889 -1.4008  1.1169  2.8345
  141DOPC   H7S16679   4.876   3.255  15.953 -0.1331 -0.5574 -0.5947
  141DOPC   C2816680   4.895   3.409  15.816  0.4159 -1.0642  0.4542
  141DOPC   H8R16681   4.983   3.459  15.861  0.7103  1.2414 -2.3718
  141DOPC   H8S16682   4.846   3.497  15.770  0.2636 -1.6273 -0.4976
  141DOPC   C2916683   4.950   3.314  15.715 -0.9331 -0.0372  0.0721
  141DOPC   H9R16684   5.035   3.251  15.746 -0.8093  0.0555 -0.0832
  141DOPC  C21016685   4.898   3.294  15.596  0.2729 -0.1023  1.5542
  141DOPC  H10R16686   4.951   3.231  15.523  1.2856  2.0754  0.3473
  141DOPC  C21116687   4.780   3.369  15.527 -0.3353  0.6546  0.1395
  141DOPC  H11R16688   4.812   3.413  15.431  0.9778 -1.7003 -0.5732
  141DOPC  H11S16689   4.750   3.450  15.597  0.5003  1.8533 -0.8574
  141DOPC  C21216690   4.661   3.282  15.498  0.5415  0.1327 -0.2318
  141DOPC  H12R16691   4.682   3.211  15.415  0.3598  0.6933 -0.7561
  141DOPC  H12S16692   4.574   3.346  15.472  0.9777  0.3474 -1.1657
  141DOPC  C21316693   4.622   3.188  15.605 -0.2813  0.9403 -0.0084
  141DOPC  H13R16694   4.618   3.250  15.697 -4.7661 -0.8564  1.2692
  141DOPC  H13S16695   4.704   3.116  15.628  1.0804  2.3230 -0.2911
  141DOPC  C21416696   4.487   3.124  15.595 -0.0863  0.3272 -0.0460
  141DOPC  H14R16697   4.399   3.190  15.579 -1.1664 -0.9727  0.3735
  141DOPC  H14S16698   4.464   3.090  15.699 -1.1789 -1.3394 -0.8033
  141DOPC  C21516699   4.488   3.009  15.496 -0.1310  0.1127 -0.6520
  141DOPC  H15R16700   4.569   2.939  15.525 -0.2929 -0.1477 -0.8263
  141DOPC  H15S16701   4.510   3.039  15.391 -1.7953 -0.0375 -1.0776
  141DOPC  C21616702   4.359   2.923  15.493  0.5817  0.1414  0.3345
  141DOPC  H16R16703   4.279   2.989  15.454 -0.2985 -0.6465  0.7831
  141DOPC  H16S16704   4.312   2.904  15.592  0.1120  1.5511  0.4064
  141DOPC  C21716705   4.369   2.811  15.395  0.4798  0.1658  0.0981
  141DOPC  H17R16706   4.450   2.748  15.439 -0.0279  0.4871  1.5476
  141DOPC  H17S16707   4.399   2.866  15.303 -0.1509 -0.8250 -0.7337
  141DOPC  C21816708   4.253   2.722  15.358 -0.5549 -0.9094  0.5794
  141DOPC  H18R16709   4.164   2.781  15.328  1.0159  0.4751 -1.6369
  141DOPC  H18S16710   4.225   2.659  15.446  0.7420 -1.7775  0.3998
  141DOPC  H18T16711   4.271   2.661  15.267 -1.8137 -0.7787  0.2326
  141DOPC   C3316712   4.307   3.519  16.434 -0.5784  0.2475  0.5598
  141DOPC   H3X16713   4.414   3.546  16.442 -0.4341 -0.3317  0.6069
  141DOPC   H3Y16714   4.254   3.616  16.446  1.8392  1.5357  1.4661
  141DOPC   C3416715   4.263   3.471  16.294  0.0697  0.4108  1.1045
  141DOPC   H4X16716   4.152   3.462  16.295  0.1412 -0.5581  1.8543
  141DOPC   H4Y16717   4.301   3.370  16.268 -1.2729 -0.1508  1.2229
  141DOPC   C3516718   4.296   3.570  16.180  0.6215 -0.6336  0.8818
  141DOPC   H5X16719   4.394   3.623  16.184  0.4912 -0.4502  2.0442
  141DOPC   H5Y16720   4.213   3.643  16.186 -0.1808 -1.3807 -0.6590
  141DOPC   C3616721   4.284   3.505  16.038  0.0239  0.2009  0.3574
  141DOPC   H6X16722   4.359   3.423  16.036  0.1459  0.3136  0.1973
  141DOPC   H6Y16723   4.183   3.465  16.018  0.0127  1.1299 -1.7172
  141DOPC   C3716724   4.307   3.605  15.923 -0.2035  0.8158  0.3224
  141DOPC   H7X16725   4.230   3.684  15.933 -1.5272 -0.0490 -2.2283
  141DOPC   H7Y16726   4.402   3.663  15.932  0.5853  0.1366 -2.5230
  141DOPC   C3816727   4.299   3.543  15.781  0.7463  0.1202 -0.5014
  141DOPC   H8X16728   4.199   3.496  15.789  1.3340 -0.8427  3.7886
  141DOPC   H8Y16729   4.382   3.469  15.782 -0.4993 -1.3382  1.1191
  141DOPC   C3916730   4.302   3.635  15.665  0.3017 -0.1618 -0.0083
  141DOPC   H9X16731   4.213   3.699  15.669  0.0881 -0.5224  1.0782
  141DOPC  C31016732   4.405   3.669  15.583 -0.1077 -0.1160 -0.1051
  141DOPC  H10X16733   4.383   3.739  15.501  0.0547 -0.5314 -0.5049
  141DOPC  C31116734   4.543   3.613  15.592  0.3257  0.2012  0.1008
  141DOPC  H11X16735   4.563   3.573  15.491 -0.9306  1.0984 -0.5257
  141DOPC  H11Y16736   4.552   3.525  15.661  0.6102  0.9559  1.0532
  141DOPC  C31216737   4.655   3.715  15.634  1.2606  0.5800  0.1698
  141DOPC  H12X16738   4.660   3.794  15.557 -0.8817  1.8439  1.2196
  141DOPC  H12Y16739   4.751   3.659  15.629  2.6734  2.9158 -0.0597
  141DOPC  C31316740   4.624   3.759  15.778 -0.6826 -0.0154 -0.7411
  141DOPC  H13X16741   4.555   3.846  15.777 -0.1505  0.6406  2.9168
  141DOPC  H13Y16742   4.581   3.674  15.835  2.3172  0.2105  2.1825
  141DOPC  C31416743   4.754   3.809  15.852  0.5930 -0.0525  0.2119
  141DOPC  H14X16744   4.827   3.725  15.846 -1.5677 -1.9448 -1.3718
  141DOPC  H14Y16745   4.788   3.901  15.800  1.5687 -0.0133  0.8842
  141DOPC  C31516746   4.721   3.832  16.002  0.2223 -0.2317 -0.1803
  141DOPC  H15X16747   4.676   3.738  16.040  0.5696  0.1592  1.2722
  141DOPC  H15Y16748   4.652   3.918  16.011 -0.0421 -0.1381 -2.4161
  141DOPC  C31616749   4.849   3.863  16.078 -0.1879  0.5417  0.2069
  141DOPC  H16X16750   4.920   3.778  16.079 -1.3037 -0.4470  1.8639
  141DOPC  H16Y16751   4.903   3.941  16.021  3.2216 -0.3128  2.0172
  141DOPC  C31716752   4.818   3.927  16.214 -1.1752 -0.7165 -0.0805
  141DOPC  H17X16753   4.909   3.966  16.262 -0.2879 -4.0062  1.2013
  141DOPC  H17Y16754   4.758   4.019  16.198  0.5624  1.0538  2.7831
  141DOPC  C31816755   4.750   3.826  16.301  0.0528 -0.2960 -0.3641
  141DOPC  H18X16756   4.758   3.860  16.407  0.8438 -0.1931 -0.4521
  141DOPC  H18Y16757   4.644   3.806  16.275  0.0693 -1.3797  0.3305
  141DOPC  H18Z16758   4.817   3.738  16.297  2.2767  1.2811  0.4605
  142DOPC     N16759   5.591   3.482  17.033 -0.7835  0.2726  0.5167
  142DOPC   C1216760   5.618   3.608  16.956  0.2262  0.2030  0.5468
  142DOPC  H12A16761   5.532   3.671  16.968  0.7777  0.6718  2.3039
  142DOPC  H12B16762   5.627   3.583  16.851  0.2991 -1.3668  0.8962
  142DOPC   C1316763   5.468   3.419  17.000 -0.0370 -0.2502  0.7731
  142DOPC  H13A16764   5.386   3.486  17.022 -0.3291 -0.4358  0.2660
  142DOPC  H13B16765   5.474   3.387  16.897  0.8927  2.0573  0.0526
  142DOPC  H13C16766   5.459   3.330  17.061 -0.1056 -0.3004  0.6896
  142DOPC   C1416767   5.607   3.492  17.181  0.7109  0.3766 -0.3086
  142DOPC  H14A16768   5.523   3.549  17.221 -0.7998 -0.8776 -1.5569
  142DOPC  H14B16769   5.610   3.395  17.228 -0.4081  0.1073 -0.7612
  142DOPC  H14C16770   5.695   3.551  17.203  0.1927  1.5256 -1.2121
  142DOPC   C1516771   5.708   3.396  16.976  0.4051 -0.3632 -0.0564
  142DOPC  H15A16772   5.693   3.376  16.871 -0.2483 -1.7062  0.2701
  142DOPC  H15B16773   5.723   3.305  17.031  0.0290 -1.0392 -1.0322
  142DOPC  H15C16774   5.798   3.456  16.971 -0.0704  0.5950  1.8407
  142DOPC   C1116775   5.740   3.694  17.002 -0.4955 -0.0761  0.0391
  142DOPC  H11A16776   5.741   3.784  16.938 -0.9351 -0.9124 -1.1870
  142DOPC  H11B16777   5.732   3.718  17.110  2.4109  1.9874 -0.1082
  142DOPC     P16778   5.957   3.635  16.839 -0.3120 -0.1421  0.0505
  142DOPC   O1316779   6.071   3.546  16.851 -0.7380  0.7396  0.2068
  142DOPC   O1416780   5.988   3.782  16.812  0.0825 -0.6063  0.2572
  142DOPC   O1216781   5.871   3.633  16.974 -0.5072  0.2069 -0.1658
  142DOPC   O1116782   5.859   3.585  16.727  0.2973 -0.1047  0.4201
  142DOPC    C116783   5.855   3.461  16.663 -0.6051 -0.3266  0.5501
  142DOPC    HA16784   5.750   3.438  16.636 -0.4250 -0.0416 -0.4284
  142DOPC    HB16785   5.897   3.378  16.724 -0.3886 -1.2685 -0.8427
  142DOPC    C216786   5.937   3.466  16.528  0.2798 -0.0015  0.0906
  142DOPC    HS16787   6.043   3.476  16.559  0.2669  1.6648 -0.3328
  142DOPC   O2116788   5.906   3.569  16.432 -0.1526 -0.1811 -0.1468
  142DOPC   C2116789   5.792   3.566  16.373 -0.3841  0.6521 -0.0722
  142DOPC   O2216790   5.711   3.475  16.376 -0.1734 -0.0256 -0.8984
  142DOPC   C2216791   5.765   3.692  16.294 -0.2264  0.0153  0.7362
  142DOPC   H2R16792   5.862   3.723  16.250 -0.2048 -2.2793 -1.0160
  142DOPC   H2S16793   5.727   3.766  16.367 -1.4562 -0.8479  0.9937
  142DOPC    C316794   5.927   3.324  16.461 -0.9575  0.6358 -0.5829
  142DOPC    HX16795   5.824   3.291  16.434 -1.4615 -0.7497  2.5581
  142DOPC    HY16796   5.966   3.243  16.526 -4.1457 -1.6529 -1.2700
  142DOPC   O3116797   5.999   3.326  16.336  0.5882  0.0283 -0.3730
  142DOPC   C3116798   6.096   3.231  16.318  0.8322  1.0795  0.2726
  142DOPC   O3216799   6.135   3.159  16.410  0.3734  0.2978  0.3742
  142DOPC   C3216800   6.151   3.227  16.176 -0.3898 -0.7270  0.2189
  142DOPC   H2X16801   6.186   3.330  16.156 -0.8389 -0.5262  0.4725
  142DOPC   H2Y16802   6.250   3.175  16.175  0.1564  0.2447  1.0394
  142DOPC   C2316803   5.660   3.672  16.189 -1.0325  0.5909  0.4500
  142DOPC   H3R16804   5.558   3.669  16.235 -1.2035 -1.7338  0.0518
  142DOPC   H3S16805   5.666   3.572  16.141 -1.6362 -1.1079  3.5807
  142DOPC   C2416806   5.654   3.772  16.078  0.8856 -0.3020  0.2315
  142DOPC   H4R16807   5.756   3.774  16.034  0.6407 -0.8202 -0.3731
  142DOPC   H4S16808   5.634   3.874  16.119  0.9392 -0.3169  0.2933
  142DOPC   C2516809   5.535   3.740  15.984 -0.2184  0.2480  0.0570
  142DOPC   H5R16810   5.435   3.744  16.030 -1.3200  1.6610 -2.2614
  142DOPC   H5S16811   5.550   3.641  15.936 -1.5010  1.1920 -2.4713
  142DOPC   C2616812   5.532   3.831  15.862  0.2924 -0.0346 -0.0871
  142DOPC   H6R16813   5.560   3.935  15.890  0.6309  0.2012 -1.2164
  142DOPC   H6S16814   5.432   3.852  15.816  0.6554  1.4510 -0.2566
  142DOPC   C2716815   5.636   3.781  15.752 -0.5627  0.1721  0.6714
  142DOPC   H7R16816   5.642   3.670  15.757 -1.7628  0.0575  0.1267
  142DOPC   H7S16817   5.731   3.823  15.790  0.6507  0.3502 -2.2727
  142DOPC   C2816818   5.586   3.838  15.612  0.7735  0.3410 -0.6337
  142DOPC   H8R16819   5.533   3.934  15.632  1.1976  0.1855  1.4444
  142DOPC   H8S16820   5.506   3.767  15.582  0.5854 -0.2978  1.2561
  142DOPC   C2916821   5.696   3.842  15.507 -0.3910 -0.5393 -0.6457
  142DOPC   H9R16822   5.736   3.944  15.502  0.8106 -0.7803  2.3251
  142DOPC  C21016823   5.714   3.761  15.401  0.2722  0.2729 -0.4357
  142DOPC  H10R16824   5.797   3.774  15.331  1.2121  1.4177  0.8519
  142DOPC  C21116825   5.642   3.628  15.378 -0.4740  1.2478 -0.2234
  142DOPC  H11R16826   5.537   3.634  15.343 -0.6776 -1.1983 -0.2236
  142DOPC  H11S16827   5.632   3.570  15.472 -0.9737  0.7463 -0.5778
  142DOPC  C21216828   5.721   3.534  15.284 -0.0491  0.5847  0.0143
  142DOPC  H12R16829   5.815   3.492  15.325 -0.8405  0.1888  1.4806
  142DOPC  H12S16830   5.751   3.578  15.186 -0.2470  3.4234  1.1401
  142DOPC  C21316831   5.629   3.405  15.263 -0.7944 -1.1183  0.3440
  142DOPC  H13R16832   5.530   3.445  15.232 -0.0639  0.1145 -0.4797
  142DOPC  H13S16833   5.633   3.359  15.365 -1.7009 -0.8301  0.5209
  142DOPC  C21416834   5.670   3.305  15.149  0.0290  0.1649 -0.3427
  142DOPC  H14R16835   5.778   3.284  15.160  1.3815  3.2808 -4.9174
  142DOPC  H14S16836   5.652   3.364  15.057 -1.5819  1.2492  0.6060
  142DOPC  C21516837   5.587   3.178  15.145 -0.8245  0.0236 -0.1134
  142DOPC  H15R16838   5.478   3.199  15.146 -0.3831  2.7388 -1.1997
  142DOPC  H15S16839   5.603   3.120  15.238  0.5092  0.7341  0.1213
  142DOPC  C21616840   5.622   3.092  15.021  0.0210 -0.5642  0.1700
  142DOPC  H16R16841   5.713   3.031  15.036 -0.6317 -1.5377  0.2786
  142DOPC  H16S16842   5.638   3.161  14.935 -0.9051 -0.6118 -0.0510
  142DOPC  C21716843   5.529   2.981  14.964 -0.8731 -0.5081  0.2231
  142DOPC  H17R16844   5.434   3.027  14.929 -0.1062  0.9923  0.0133
  142DOPC  H17S16845   5.519   2.907  15.045 -0.7346 -0.8546 -0.0728
  142DOPC  C21816846   5.596   2.896  14.853 -0.0667  0.0156 -0.0248
  142DOPC  H18R16847   5.681   2.836  14.891 -0.5111 -1.6462 -1.5111
  142DOPC  H18S16848   5.610   2.943  14.753 -0.5598  1.5464  0.5946
  142DOPC  H18T16849   5.530   2.814  14.818 -0.5307 -0.5604  2.0955
  142DOPC   C3316850   6.051   3.175  16.067 -0.1720  0.3135 -0.1608
  142DOPC   H3X16851   5.971   3.114  16.115  0.6527 -1.3188 -0.7928
  142DOPC   H3Y16852   6.103   3.104  15.998  0.6596  0.3926  0.3799
  142DOPC   C3416853   5.996   3.279  15.967  0.2459 -0.4367 -0.1946
  142DOPC   H4X16854   6.056   3.369  15.944  0.5408 -0.4378  0.5286
  142DOPC   H4Y16855   5.907   3.330  16.009 -1.5786 -2.8905 -0.8199
  142DOPC   C3516856   5.956   3.217  15.834 -0.0431 -0.3323 -0.0013
  142DOPC   H5X16857   5.864   3.158  15.856 -2.6326  3.4908  0.4043
  142DOPC   H5Y16858   6.032   3.157  15.781 -1.0828  1.8092 -4.3956
  142DOPC   C3616859   5.911   3.328  15.727 -0.1868 -0.0701 -0.6855
  142DOPC   H6X16860   6.002   3.386  15.700  0.7792 -2.1318 -2.0529
  142DOPC   H6Y16861   5.892   3.280  15.629  2.3691  1.9235 -2.2947
  142DOPC   C3716862   5.790   3.419  15.758  0.6229  0.1029  0.6245
  142DOPC   H7X16863   5.821   3.485  15.842  3.0532 -0.0665 -0.0556
  142DOPC   H7Y16864   5.770   3.482  15.669 -2.0889 -0.6367  0.5979
  142DOPC   C3816865   5.665   3.339  15.793  0.1398  0.4892  0.4012
  142DOPC   H8X16866   5.595   3.417  15.828 -0.0320  0.8416 -0.6888
  142DOPC   H8Y16867   5.680   3.269  15.878 -1.4441 -0.9243 -0.4023
  142DOPC   C3916868   5.608   3.254  15.680 -0.6478 -0.2058  0.3732
  142DOPC   H9X16869   5.676   3.180  15.635 -1.9030 -1.0806 -0.1616
  142DOPC  C31016870   5.484   3.266  15.631 -0.6287 -0.1478 -0.0568
  142DOPC  H10X16871   5.471   3.212  15.536 -1.1108  1.5831 -1.0143
  142DOPC  C31116872   5.374   3.353  15.664  1.1020 -0.3801  0.1839
  142DOPC  H11X16873   5.374   3.389  15.770  1.0440 -2.5163  0.9436
  142DOPC  H11Y16874   5.284   3.289  15.671  0.6028  0.4117  1.5971
  142DOPC  C31216875   5.364   3.460  15.564  0.2907  0.0408  0.3451
  142DOPC  H12X16876   5.383   3.427  15.460  2.1944  3.7743 -0.6751
  142DOPC  H12Y16877   5.438   3.541  15.582  0.2740  0.7547 -2.3849
  142DOPC  C31316878   5.227   3.534  15.558  0.3608  0.2496 -0.1790
  142DOPC  H13X16879   5.148   3.459  15.535  0.4836 -0.5150  1.6441
  142DOPC  H13Y16880   5.192   3.563  15.660 -3.4760 -2.6200 -0.4445
  142DOPC  C31416881   5.228   3.645  15.456 -0.2797 -0.6256 -0.4382
  142DOPC  H14X16882   5.331   3.686  15.449  0.4293 -2.5430 -2.3534
  142DOPC  H14Y16883   5.209   3.596  15.358  0.8951 -0.9672 -0.5048
  142DOPC  C31516884   5.128   3.757  15.482  0.4448  0.0207  0.2580
  142DOPC  H15X16885   5.025   3.717  15.489  0.2375  0.5277  0.1442
  142DOPC  H15Y16886   5.119   3.824  15.393 -3.6094 -2.0584 -1.1637
  142DOPC  C31616887   5.150   3.840  15.611  0.2266  0.5917 -0.3869
  142DOPC  H16X16888   5.138   3.784  15.706 -1.1650  2.7943  0.8079
  142DOPC  H16Y16889   5.257   3.870  15.612  0.0855  1.1465 -1.2320
  142DOPC  C31716890   5.063   3.961  15.629  0.3122 -0.5129  0.1553
  142DOPC  H17X16891   4.956   3.948  15.601 -0.5228  1.7842  1.8837
  142DOPC  H17Y16892   5.062   3.989  15.737 -1.0236 -0.0793  0.0581
  142DOPC  C31816893   5.124   4.076  15.547  0.5477  0.3979 -0.7198
  142DOPC  H18X16894   5.067   4.168  15.575 -0.6196 -1.0017  1.9248
  142DOPC  H18Y16895   5.233   4.078  15.565  0.3750 -0.1672  0.5209
  142DOPC  H18Z16896   5.120   4.068  15.436 -0.7369 -2.0317 -0.5691
  143DOPC     N16897   3.255   4.400  17.543 -0.0900 -0.4708  0.3561
  143DOPC   C1216898   3.321   4.288  17.457 -0.3169 -0.4227  0.2350
  143DOPC  H12A16899   3.358   4.212  17.525  0.7077 -0.6059 -0.5069
  143DOPC  H12B16900   3.410   4.330  17.413 -2.1799  0.2413 -3.2381
  143DOPC   C1316901   3.346   4.456  17.652 -0.8691  0.2063 -0.1402
  143DOPC  H13A16902   3.304   4.536  17.711  3.3197  0.4700  2.9508
  143DOPC  H13B16903   3.378   4.384  17.726  1.9468  1.9897  0.5574
  143DOPC  H13C16904   3.441   4.490  17.613  0.0905 -2.1456 -0.0221
  143DOPC   C1416905   3.133   4.338  17.619  0.0938 -0.1466  0.7993
  143DOPC  H14A16906   3.167   4.258  17.683 -2.0807 -1.2865  0.5947
  143DOPC  H14B16907   3.096   4.414  17.686  0.2607 -0.8098  1.6638
  143DOPC  H14C16908   3.051   4.300  17.561 -0.3901 -1.3069  2.1943
  143DOPC   C1516909   3.211   4.511  17.459  0.0379 -0.1755 -0.7163
  143DOPC  H15A16910   3.161   4.473  17.371 -1.9920  0.5784  0.0733
  143DOPC  H15B16911   3.288   4.583  17.433 -1.6617  2.0271  0.0279
  143DOPC  H15C16912   3.138   4.572  17.510  1.7388  0.1855  1.4756
  143DOPC   C1116913   3.246   4.224  17.339 -0.2194  0.1454  0.7340
  143DOPC  H11A16914   3.284   4.125  17.309  0.5586  0.5071  0.5118
  143DOPC  H11B16915   3.140   4.213  17.370 -0.8965  1.3659 -0.9827
  143DOPC     P16916   3.369   4.360  17.149  0.1557 -0.0923  0.0290
  143DOPC   O1316917   3.490   4.334  17.235 -0.0772  0.2297  0.4084
  143DOPC   O1416918   3.349   4.495  17.103 -0.4900 -0.7377  0.7607
  143DOPC   O1216919   3.237   4.315  17.229  0.1174 -0.1038 -0.2302
  143DOPC   O1116920   3.358   4.263  17.026  0.3526 -0.1603  0.1026
  143DOPC    C116921   3.233   4.223  16.980  0.7700 -0.2080 -0.6813
  143DOPC    HA16922   3.161   4.296  17.022 -0.0562 -1.8626  0.9092
  143DOPC    HB16923   3.209   4.121  17.019 -2.2187  0.0057 -1.6650
  143DOPC    C216924   3.226   4.227  16.825  0.4227  0.0080  0.1335
  143DOPC    HS16925   3.120   4.238  16.793  0.2873 -2.3943 -0.4963
  143DOPC   O2116926   3.271   4.110  16.764 -0.4696 -0.3223  0.1739
  143DOPC   C2116927   3.193   4.005  16.795 -0.8074 -0.3373 -0.2234
  143DOPC   O2216928   3.091   4.007  16.866  0.3046  0.2312  0.2877
  143DOPC   C2216929   3.235   3.883  16.713 -0.6806 -0.0255  0.2591
  143DOPC   H2R16930   3.279   3.805  16.780 -0.7594 -0.5982 -0.3489
  143DOPC   H2S16931   3.317   3.916  16.645 -0.3078 -1.4237 -0.0067
  143DOPC    C316932   3.305   4.357  16.783  0.6261  0.0003 -0.1397
  143DOPC    HX16933   3.410   4.319  16.787 -0.8082 -4.3729  0.8372
  143DOPC    HY16934   3.299   4.441  16.856 -0.1201  0.6332 -0.9048
  143DOPC   O3116935   3.270   4.401  16.654 -0.8880  0.4572  0.4518
  143DOPC   C3116936   3.170   4.473  16.645  0.9203 -0.3324  0.7130
  143DOPC   O3216937   3.101   4.522  16.735 -0.1760 -0.6307  0.0826
  143DOPC   C3216938   3.137   4.501  16.497  0.0535  0.3457 -0.1802
  143DOPC   H2X16939   3.223   4.549  16.446 -0.4110  1.6201  0.1953
  143DOPC   H2Y16940   3.131   4.401  16.448  1.3912  1.3921 -2.6708
  143DOPC   C2316941   3.129   3.822  16.628 -0.2664 -0.3219 -0.9171
  143DOPC   H3R16942   3.082   3.908  16.575 -2.5247 -0.8358  0.1156
  143DOPC   H3S16943   3.047   3.776  16.687  1.6696 -0.4216  1.8680
  143DOPC   C2416944   3.192   3.726  16.526  0.0963  0.1815 -0.2745
  143DOPC   H4R16945   3.249   3.648  16.581  2.3091  1.7921 -0.1458
  143DOPC   H4S16946   3.273   3.775  16.469  0.1447 -0.1323 -0.4777
  143DOPC   C2516947   3.094   3.665  16.420  0.7287 -0.2073 -0.5226
  143DOPC   H5R16948   2.991   3.680  16.456  1.0013  0.2953  0.0509
  143DOPC   H5S16949   3.110   3.555  16.416  0.0591 -0.3579  0.6469
  143DOPC   C2616950   3.126   3.722  16.275 -0.0624 -0.3013 -0.0919
  143DOPC   H6R16951   3.228   3.688  16.246  0.0156  0.4952 -0.7807
  143DOPC   H6S16952   3.128   3.833  16.267  0.1985 -0.3726 -1.2322
  143DOPC   C2716953   3.016   3.674  16.172  0.3384  0.9833  0.7341
  143DOPC   H7R16954   2.917   3.718  16.197 -0.6071 -1.2382  1.1910
  143DOPC   H7S16955   3.004   3.570  16.209  1.7237  1.1701  1.8115
  143DOPC   C2816956   3.053   3.677  16.019 -0.3251  0.3990  0.1299
  143DOPC   H8R16957   3.152   3.626  16.016 -2.1033 -3.3833  1.0432
  143DOPC   H8S16958   3.065   3.783  15.985 -3.2684  0.1757 -2.0053
  143DOPC   C2916959   2.945   3.614  15.936 -0.1722  0.2821  0.2657
  143DOPC   H9R16960   2.968   3.507  15.926  0.3301  0.4481 -0.4339
  143DOPC  C21016961   2.838   3.675  15.882 -0.4055 -0.5948 -0.0015
  143DOPC  H10R16962   2.754   3.619  15.838 -0.4900 -1.5735  1.3432
  143DOPC  C21116963   2.817   3.824  15.882  0.3447 -0.2064  0.6738
  143DOPC  H11R16964   2.882   3.859  15.799 -0.1171  0.5311  0.6093
  143DOPC  H11S16965   2.836   3.874  15.980  2.3747  1.4614 -0.5075
  143DOPC  C21216966   2.671   3.862  15.836  0.5370  0.7776  0.3861
  143DOPC  H12R16967   2.608   3.839  15.924  1.7281 -2.8286  0.4742
  143DOPC  H12S16968   2.658   3.812  15.737 -0.5594  3.2096 -0.7753
  143DOPC  C21316969   2.643   4.004  15.795 -0.3347 -0.1644 -0.5456
  143DOPC  H13R16970   2.718   4.035  15.718  1.0007 -0.8855  0.4233
  143DOPC  H13S16971   2.654   4.062  15.889  2.2620 -2.6384  0.8140
  143DOPC  C21416972   2.498   4.027  15.751 -0.1392  0.4786 -0.7505
  143DOPC  H14R16973   2.482   4.133  15.725 -2.3848 -0.1235 -2.1394
  143DOPC  H14S16974   2.425   4.021  15.834  0.2685  1.1506 -0.3327
  143DOPC  C21516975   2.459   3.940  15.635 -0.0702  0.1328  0.2781
  143DOPC  H15R16976   2.364   3.990  15.609 -1.4001 -1.3381  2.0524
  143DOPC  H15S16977   2.449   3.830  15.644 -0.2222  0.1669  0.5221
  143DOPC  C21616978   2.549   3.946  15.512 -0.4847 -0.7188  0.0012
  143DOPC  H16R16979   2.491   3.896  15.432  1.4465  0.2181 -2.0735
  143DOPC  H16S16980   2.651   3.904  15.528 -1.0494 -1.8964  0.6754
  143DOPC  C21716981   2.552   4.097  15.471  0.5769  0.0865  0.0564
  143DOPC  H17R16982   2.629   4.142  15.537 -0.2857  1.4780  0.1664
  143DOPC  H17S16983   2.455   4.145  15.498  1.2057  0.7312  1.2348
  143DOPC  C21816984   2.592   4.110  15.327  0.8110  0.2608  0.4408
  143DOPC  H18R16985   2.590   4.216  15.294 -1.0176 -0.0685 -0.6654
  143DOPC  H18S16986   2.510   4.080  15.259  0.5602  1.1580  0.3296
  143DOPC  H18T16987   2.689   4.065  15.298  0.9664  0.6687  0.3177
  143DOPC   C3316988   3.006   4.585  16.480 -0.5947 -0.0035  0.1491
  143DOPC   H3X16989   3.014   4.679  16.539 -1.4249  0.0505  0.1871
  143DOPC   H3Y16990   2.921   4.540  16.536  0.2917 -1.0604  0.6816
  143DOPC   C3416991   2.974   4.611  16.335 -0.1757  0.7210 -0.3722
  143DOPC   H4X16992   2.916   4.528  16.288 -0.6284  1.1682 -0.6132
  143DOPC   H4Y16993   3.063   4.623  16.269  0.2624  0.3398  0.1334
  143DOPC   C3516994   2.907   4.740  16.313 -0.0555  0.3260 -0.9643
  143DOPC   H5X16995   2.985   4.815  16.339  1.7737 -1.3195 -1.4599
  143DOPC   H5Y16996   2.812   4.750  16.370  1.0462 -0.3093  1.0831
  143DOPC   C3616997   2.879   4.759  16.161 -0.2171 -0.1122  0.0299
  143DOPC   H6X16998   2.961   4.719  16.098 -0.6014  1.2919 -1.4564
  143DOPC   H6Y16999   2.788   4.699  16.138  1.5686 -3.2952  0.7157
  143DOPC   C3717000   2.862   4.906  16.112 -0.0117 -0.3466 -0.2542
  143DOPC   H7X17001   2.789   4.953  16.182 -0.2599  0.3115 -0.9488
  143DOPC   H7Y17002   2.965   4.947  16.120  0.8243 -2.0571 -1.5884
  143DOPC   C3817003   2.820   4.921  15.963 -0.4795  0.3111  0.0823
  143DOPC   H8X17004   2.805   5.030  15.957 -0.4908  0.3880  1.2692
  143DOPC   H8Y17005   2.721   4.870  15.958 -0.6795  0.8361 -2.6250
  143DOPC   C3917006   2.911   4.873  15.857 -0.2887 -0.3956  0.4683
  143DOPC   H9X17007   2.994   4.810  15.891 -0.1624  0.2914  1.4752
  143DOPC  C31017008   2.908   4.917  15.731 -0.3818  1.2060 -0.4582
  143DOPC  H10X17009   2.977   4.862  15.666  1.6926  0.1498  2.4035
  143DOPC  C31117010   2.810   5.002  15.658  0.6160 -0.1645  0.0741
  143DOPC  H11X17011   2.736   5.046  15.728 -3.5696 -1.1807 -3.3124
  143DOPC  H11Y17012   2.755   4.927  15.598 -1.5606  0.9550  0.5996
  143DOPC  C31217013   2.860   5.102  15.549  0.2209 -0.3613 -0.0146
  143DOPC  H12X17014   2.915   5.038  15.477 -0.3164 -0.1833 -0.5884
  143DOPC  H12Y17015   2.920   5.184  15.595  1.2388 -0.8372 -0.4560
  143DOPC  C31317016   2.730   5.163  15.481 -0.1824  0.5822  0.0747
  143DOPC  H13X17017   2.679   5.068  15.454  0.5694 -0.0407  0.7704
  143DOPC  H13Y17018   2.666   5.225  15.547  0.0790  0.5059  0.4033
  143DOPC  C31417019   2.767   5.240  15.353 -0.4530  0.4628 -0.6018
  143DOPC  H14X17020   2.782   5.347  15.380  1.4504 -0.3131  1.7431
  143DOPC  H14Y17021   2.865   5.216  15.307  0.9050  0.1287  2.3073
  143DOPC  C31517022   2.664   5.228  15.238 -0.2428  0.1832  0.0093
  143DOPC  H15X17023   2.626   5.125  15.221  0.9220 -0.3013  0.2279
  143DOPC  H15Y17024   2.719   5.252  15.144 -1.0114  0.3961 -0.3973
  143DOPC  C31617025   2.539   5.317  15.262 -0.7748  0.0629  0.2549
  143DOPC  H16X17026   2.503   5.291  15.364 -0.0226  2.7703  1.2955
  143DOPC  H16Y17027   2.581   5.419  15.270  0.1306 -0.2006 -0.9571
  143DOPC  C31717028   2.440   5.317  15.153 -0.2612 -0.4052  0.3602
  143DOPC  H17X17029   2.420   5.211  15.125  3.0726 -0.5541 -2.1865
  143DOPC  H17Y17030   2.351   5.365  15.198  1.5623  2.8076  0.8437
  143DOPC  C31817031   2.476   5.393  15.025 -0.2629  0.0152 -0.7084
  143DOPC  H18X17032   2.375   5.420  14.988 -0.8841  1.1231  1.5834
  143DOPC  H18Y17033   2.539   5.479  15.056 -0.4689 -0.0430 -0.1160
  143DOPC  H18Z17034   2.531   5.337  14.947  1.2483 -1.0650  1.0526
  144DOPC     N17035   2.654   3.861  17.476 -0.2884  0.2863  0.1384
  144DOPC   C1217036   2.662   3.848  17.326  0.0339  0.1985  0.0100
  144DOPC  H12A17037   2.722   3.931  17.294 -0.1515 -0.0840 -1.0872
  144DOPC  H12B17038   2.564   3.849  17.279 -0.1597 -0.2424  0.3979
  144DOPC   C1317039   2.604   3.732  17.531  0.6764 -0.4074 -0.7117
  144DOPC  H13A17040   2.519   3.694  17.476  0.7793 -1.5931 -0.0925
  144DOPC  H13B17041   2.676   3.652  17.538  1.3142  0.2938  1.6538
  144DOPC  H13C17042   2.568   3.747  17.632  0.3975 -0.2880 -0.8272
  144DOPC   C1417043   2.560   3.968  17.508  0.1565 -1.0123 -0.7202
  144DOPC  H14A17044   2.460   3.953  17.471  0.3532 -2.3793 -0.7607
  144DOPC  H14B17045   2.542   3.960  17.615  1.4135  1.5086 -0.2533
  144DOPC  H14C17046   2.592   4.070  17.496 -2.1524 -0.1982 -0.5095
  144DOPC   C1517047   2.787   3.898  17.537 -0.1644  0.1559 -0.1670
  144DOPC  H15A17048   2.822   3.989  17.491 -0.6366 -0.0858 -1.0305
  144DOPC  H15B17049   2.858   3.818  17.530  0.0651  0.4878 -2.9111
  144DOPC  H15C17050   2.786   3.903  17.645  1.0892 -2.2896  0.0179
  144DOPC   C1117051   2.734   3.718  17.273 -0.5430  0.3812 -0.4450
  144DOPC  H11A17052   2.682   3.623  17.299  0.6305  0.2376  1.5825
  144DOPC  H11B17053   2.723   3.716  17.162  2.5261  1.1952 -0.8518
  144DOPC     P17054   2.946   3.603  17.398  0.0973 -0.1133  0.0470
  144DOPC   O1317055   2.849   3.516  17.471  0.0705 -0.1350  0.4441
  144DOPC   O1417056   3.051   3.670  17.479 -0.0949  0.8841  0.1954
  144DOPC   O1217057   2.873   3.709  17.303 -0.3249  0.2556 -0.4461
  144DOPC   O1117058   3.028   3.522  17.291  0.1044 -0.0498  0.1632
  144DOPC    C117059   3.126   3.580  17.205  0.2837  0.1607  0.2197
  144DOPC    HA17060   3.227   3.557  17.247  0.6062  0.4956 -0.3703
  144DOPC    HB17061   3.109   3.688  17.188 -0.0175  0.5139  2.4612
  144DOPC    C217062   3.112   3.507  17.066  0.3808 -0.1453  0.8980
  144DOPC    HS17063   3.159   3.571  16.988 -1.1539  0.9624  0.8417
  144DOPC   O2117064   2.969   3.493  17.039  0.9425  0.2514  0.4057
  144DOPC   C2117065   2.921   3.601  16.981  0.9810 -0.7598 -0.2121
  144DOPC   O2217066   2.979   3.703  16.950 -0.0544 -0.5405  0.1992
  144DOPC   C2217067   2.776   3.560  16.936 -0.0231 -0.3526 -0.6787
  144DOPC   H2R17068   2.707   3.549  17.022  1.6135 -0.0971  0.7100
  144DOPC   H2S17069   2.788   3.459  16.892 -1.4248 -0.4451 -0.8883
  144DOPC    C317070   3.181   3.365  17.063 -0.0907 -0.1182  0.6224
  144DOPC    HX17071   3.144   3.306  17.149  0.3701 -0.7252  0.4075
  144DOPC    HY17072   3.288   3.383  17.086  0.5596 -1.4111 -1.1823
  144DOPC   O3117073   3.175   3.312  16.930 -0.5338 -1.4150  0.4908
  144DOPC   C3117074   3.069   3.244  16.911  0.9132 -0.0928  0.8769
  144DOPC   O3217075   2.979   3.215  16.991 -0.0481 -0.2091  0.6710
  144DOPC   C3217076   3.071   3.198  16.765  0.2529  0.6273  0.6144
  144DOPC   H2X17077   3.139   3.263  16.705  0.2297 -0.0142 -0.1262
  144DOPC   H2Y17078   3.110   3.095  16.774 -1.0060  0.2466  2.1189
  144DOPC   C2317079   2.729   3.648  16.824  0.0183 -0.1867  0.3519
  144DOPC   H3R17080   2.820   3.654  16.760  0.3178 -3.4353  0.3199
  144DOPC   H3S17081   2.705   3.752  16.857 -1.5645 -0.8598  1.4433
  144DOPC   C2417082   2.615   3.579  16.749  0.0031  0.7588  0.6851
  144DOPC   H4R17083   2.522   3.578  16.808 -1.0119  0.9909 -0.8394
  144DOPC   H4S17084   2.643   3.473  16.730 -1.3520  0.4213  0.4702
  144DOPC   C2517085   2.593   3.645  16.611 -0.0176 -0.7767  0.5813
  144DOPC   H5R17086   2.540   3.592  16.529 -0.4712  2.1935 -1.1697
  144DOPC   H5S17087   2.690   3.660  16.558  0.3366 -1.6394  0.9531
  144DOPC   C2617088   2.536   3.785  16.600  0.5782  0.3466 -0.1067
  144DOPC   H6R17089   2.586   3.863  16.662 -0.5714  2.2266 -1.4187
  144DOPC   H6S17090   2.430   3.796  16.631  0.7408 -1.5225  1.2655
  144DOPC   C2717091   2.543   3.839  16.458  0.1672 -0.2511 -0.7215
  144DOPC   H7R17092   2.476   3.789  16.385 -0.9457  1.0808 -0.6607
  144DOPC   H7S17093   2.638   3.822  16.404  1.5848  0.1683  1.4989
  144DOPC   C2817094   2.511   3.989  16.442  0.3457 -0.4188 -0.1998
  144DOPC   H8R17095   2.565   4.026  16.352  1.4545 -0.3802  0.4749
  144DOPC   H8S17096   2.546   4.033  16.538 -1.0841 -2.3958  1.3192
  144DOPC   C2917097   2.365   4.030  16.452 -0.1175  0.7185  0.0772
  144DOPC   H9R17098   2.333   4.078  16.546  0.3445  1.7081 -0.2509
  144DOPC  C21017099   2.273   3.991  16.360 -0.2739  0.1467 -0.4336
  144DOPC  H10R17100   2.173   4.037  16.357 -0.9171 -1.2408 -1.0403
  144DOPC  C21117101   2.314   3.921  16.237 -0.4168  0.0816  0.2786
  144DOPC  H11R17102   2.325   3.811  16.249  2.7518  0.3943  0.9169
  144DOPC  H11S17103   2.417   3.949  16.207 -0.7490 -0.4635 -1.5181
  144DOPC  C21217104   2.220   3.949  16.120  0.4017  0.6732 -0.1153
  144DOPC  H12R17105   2.255   4.046  16.080  2.5106 -0.0308 -0.1268
  144DOPC  H12S17106   2.111   3.959  16.142 -0.1180 -0.2478 -2.0621
  144DOPC  C21317107   2.242   3.845  16.013 -0.3886  0.0799  0.1532
  144DOPC  H13R17108   2.217   3.743  16.048  2.6424  0.3914  3.7871
  144DOPC  H13S17109   2.348   3.851  15.983  0.1973  0.9136  2.2232
  144DOPC  C21417110   2.153   3.868  15.891 -0.3587  0.3324  0.2226
  144DOPC  H14R17111   2.176   3.967  15.845  1.0452  0.1195  0.4214
  144DOPC  H14S17112   2.051   3.866  15.935 -0.3205  0.7940  0.3391
  144DOPC  C21517113   2.158   3.763  15.786  0.5431 -0.0894 -0.1814
  144DOPC  H15R17114   2.161   3.661  15.832 -2.2332  0.0919  0.6216
  144DOPC  H15S17115   2.255   3.769  15.734  0.3890  2.7885 -0.2954
  144DOPC  C21617116   2.041   3.766  15.689  0.2885  0.7172  0.3646
  144DOPC  H16R17117   2.027   3.869  15.650  1.0900  0.3800 -0.8545
  144DOPC  H16S17118   1.948   3.738  15.743  1.1342  0.8594  1.9602
  144DOPC  C21717119   2.063   3.653  15.582  0.2429 -0.0505  0.3772
  144DOPC  H17R17120   2.067   3.551  15.626 -3.1253 -0.7684 -0.7047
  144DOPC  H17S17121   2.162   3.674  15.535  0.4161  1.4693  1.3570
  144DOPC  C21817122   1.949   3.653  15.482 -0.3539  0.5191  0.8780
  144DOPC  H18R17123   1.935   3.742  15.417 -1.8180 -1.1445 -1.2380
  144DOPC  H18S17124   1.855   3.623  15.533 -2.2414  3.1104 -0.8261
  144DOPC  H18T17125   1.976   3.570  15.413 -0.5619 -1.7376  3.3251
  144DOPC   C3317126   2.942   3.189  16.692  0.3230 -0.2722 -0.1305
  144DOPC   H3X17127   2.853   3.176  16.757 -0.1100 -0.4677 -0.7515
  144DOPC   H3Y17128   2.951   3.111  16.613  0.3463  1.5573 -2.0268
  144DOPC   C3417129   2.922   3.317  16.600  0.6102 -0.2787 -0.1254
  144DOPC   H4X17130   3.010   3.346  16.539 -0.4682 -0.4678 -1.8259
  144DOPC   H4Y17131   2.906   3.411  16.657 -1.5398  1.0969 -2.7328
  144DOPC   C3517132   2.818   3.281  16.502  0.1917  0.5763  0.5797
  144DOPC   H5X17133   2.729   3.240  16.554 -0.1105 -1.1156 -1.1327
  144DOPC   H5Y17134   2.855   3.200  16.435 -0.1795  2.7619 -2.4873
  144DOPC   C3617135   2.784   3.395  16.403  0.1085 -0.1434  0.1228
  144DOPC   H6X17136   2.709   3.466  16.444 -0.5736 -0.4230 -0.6176
  144DOPC   H6Y17137   2.873   3.457  16.378 -2.3037  3.7230  0.1566
  144DOPC   C3717138   2.730   3.348  16.272  0.0573  0.1622  0.0524
  144DOPC   H7X17139   2.818   3.333  16.206 -0.3491  1.1027 -0.7099
  144DOPC   H7Y17140   2.682   3.248  16.287 -1.6111  0.7932 -0.8186
  144DOPC   C3817141   2.627   3.433  16.199  0.7241 -0.9827 -0.5333
  144DOPC   H8X17142   2.620   3.394  16.095  1.4344 -1.5027 -0.3961
  144DOPC   H8Y17143   2.666   3.536  16.189 -2.8270  0.4812 -0.8616
  144DOPC   C3917144   2.482   3.429  16.258 -0.2222  0.0575  0.0143
  144DOPC   H9X17145   2.474   3.426  16.367 -1.1105  0.2809 -0.0388
  144DOPC  C31017146   2.373   3.426  16.176 -0.3283 -0.6472  0.2139
  144DOPC  H10X17147   2.273   3.430  16.221 -1.0038  1.0300 -1.3238
  144DOPC  C31117148   2.352   3.429  16.028 -0.1734  0.0910  0.2272
  144DOPC  H11X17149   2.428   3.496  15.984 -0.0198  0.4791  1.0665
  144DOPC  H11Y17150   2.248   3.466  16.014 -0.0630  0.6980  0.9603
  144DOPC  C31217151   2.354   3.290  15.957 -0.0515 -0.1251 -0.0788
  144DOPC  H12X17152   2.295   3.224  16.024 -0.3492  1.0598  0.8734
  144DOPC  H12Y17153   2.460   3.256  15.947  1.1815  1.8891  3.7993
  144DOPC  C31317154   2.274   3.294  15.824  0.1834  0.4266 -0.1033
  144DOPC  H13X17155   2.169   3.297  15.860  0.3008 -1.7513  0.5576
  144DOPC  H13Y17156   2.281   3.390  15.768  0.0932  1.9370  2.3243
  144DOPC  C31417157   2.288   3.179  15.732  0.6530  0.7724  0.0487
  144DOPC  H14X17158   2.395   3.175  15.701  0.3541  0.0283 -0.9464
  144DOPC  H14Y17159   2.264   3.088  15.791 -3.4560  2.1471  0.8214
  144DOPC  C31517160   2.190   3.163  15.616  0.3464 -0.7246 -0.7197
  144DOPC  H15X17161   2.201   3.243  15.540 -2.2751  0.3137 -0.0917
  144DOPC  H15Y17162   2.084   3.167  15.648  0.2510 -1.5560 -0.9118
  144DOPC  C31617163   2.231   3.052  15.521 -0.3577 -0.0313 -0.0466
  144DOPC  H16X17164   2.222   2.952  15.570  0.9030 -0.1612 -0.0437
  144DOPC  H16Y17165   2.153   3.051  15.442 -1.1411 -0.4810  0.7026
  144DOPC  C31717166   2.366   3.061  15.439 -0.6153  0.1846 -1.0712
  144DOPC  H17X17167   2.380   3.171  15.425 -0.3575  1.0159  3.8960
  144DOPC  H17Y17168   2.450   3.028  15.502 -1.6088  0.2540  0.3494
  144DOPC  C31817169   2.369   2.983  15.312 -0.2408 -0.4762  0.2118
  144DOPC  H18X17170   2.374   2.875  15.336  0.2730 -0.6176 -0.4986
  144DOPC  H18Y17171   2.284   3.005  15.243  0.2028  1.1498  0.1451
  144DOPC  H18Z17172   2.461   3.013  15.258  0.8238 -1.2258  1.5577
  145DOPC     N17173   3.837   5.381  17.475 -0.1284  0.6280  0.0980
  145DOPC   C1217174   3.824   5.438  17.333  0.7430  0.4479 -0.1840
  145DOPC  H12A17175   3.733   5.494  17.318  1.2693  1.8291  1.4738
  145DOPC  H12B17176   3.829   5.357  17.261 -1.8263 -0.8867  1.0217
  145DOPC   C1317177   3.710   5.301  17.503 -0.4596 -0.3043  0.5432
  145DOPC  H13A17178   3.703   5.233  17.420 -0.9193 -0.6105  0.8260
  145DOPC  H13B17179   3.722   5.236  17.589  0.9799 -2.0797 -0.9268
  145DOPC  H13C17180   3.626   5.368  17.517 -0.2955  0.1579 -0.6042
  145DOPC   C1417181   3.847   5.488  17.578 -0.0745  0.5579  0.5438
  145DOPC  H14A17182   3.809   5.464  17.677  1.3369 -1.4189  0.6909
  145DOPC  H14B17183   3.947   5.525  17.593  0.4369 -0.2487 -0.7026
  145DOPC  H14C17184   3.783   5.571  17.555  1.1107  1.3248 -0.0579
  145DOPC   C1517185   3.939   5.283  17.499 -0.0742  0.0649 -1.0087
  145DOPC  H15A17186   3.937   5.241  17.599  0.2078 -0.5269 -1.2492
  145DOPC  H15B17187   4.036   5.326  17.479  0.6916 -1.8681 -1.5999
  145DOPC  H15C17188   3.936   5.194  17.439  1.3447 -0.2493 -0.6520
  145DOPC   C1117189   3.919   5.551  17.296  0.5658 -0.1322 -0.2044
  145DOPC  H11A17190   4.024   5.519  17.314  0.0455 -1.3677  0.7976
  145DOPC  H11B17191   3.913   5.555  17.186  0.3088  0.5537 -0.1675
  145DOPC     P17192   3.769   5.764  17.334  0.4741 -0.0734 -0.0485
  145DOPC   O1317193   3.791   5.896  17.404 -0.0510  0.4393  0.6813
  145DOPC   O1417194   3.642   5.698  17.370 -0.1351 -0.3866 -0.0355
  145DOPC   O1217195   3.895   5.672  17.364 -0.2234 -0.5139 -0.0681
  145DOPC   O1117196   3.783   5.789  17.184 -0.2612 -0.2385  0.1671
  145DOPC    C117197   3.895   5.860  17.132 -0.6080 -0.5970  0.2778
  145DOPC    HA17198   3.992   5.822  17.170  0.1688 -0.5756 -1.5347
  145DOPC    HB17199   3.897   5.969  17.152 -3.7008 -0.3131 -0.5150
  145DOPC    C217200   3.905   5.853  16.975 -0.0714 -0.9550 -0.0611
  145DOPC    HS17201   4.002   5.895  16.941 -0.6201  1.4017  1.1113
  145DOPC   O2117202   3.795   5.944  16.937  0.5413  0.9092 -0.0469
  145DOPC   C2117203   3.804   5.979  16.808  0.4325 -0.0631  0.1458
  145DOPC   O2217204   3.906   5.974  16.745 -0.0876 -0.5703  0.1316
  145DOPC   C2217205   3.670   6.047  16.768 -0.4894  0.6432  0.4148
  145DOPC   H2R17206   3.594   6.016  16.843 -1.4483  1.1661 -0.3275
  145DOPC   H2S17207   3.629   5.999  16.677 -1.9043 -1.2404  1.9628
  145DOPC    C317208   3.882   5.707  16.922 -0.2825  0.5619  0.6138
  145DOPC    HX17209   3.774   5.701  16.948  0.4803 -2.0111  3.8678
  145DOPC    HY17210   3.930   5.626  16.981  0.6738 -0.5919 -1.6470
  145DOPC   O3117211   3.903   5.687  16.784  0.2695 -0.0993 -0.4598
  145DOPC   C3117212   4.026   5.657  16.750 -0.0363 -0.0934 -0.1176
  145DOPC   O3217213   4.116   5.620  16.828 -0.1180  0.3499  0.0853
  145DOPC   C3217214   4.035   5.689  16.600  0.3191  0.5092 -0.1500
  145DOPC   H2X17215   3.959   5.618  16.561  0.5435  0.1969 -0.0238
  145DOPC   H2Y17216   3.999   5.791  16.578  1.1139  0.3934 -2.2613
  145DOPC   C2317217   3.685   6.199  16.766  0.0637 -0.3330 -0.7786
  145DOPC   H3R17218   3.729   6.235  16.862  0.5288  0.1556 -1.1680
  145DOPC   H3S17219   3.579   6.232  16.772  0.2287  0.3929 -1.6364
  145DOPC   C2417220   3.769   6.249  16.649  0.1831 -0.0685 -0.1361
  145DOPC   H4R17221   3.858   6.185  16.630 -0.2627 -0.2659 -1.6731
  145DOPC   H4S17222   3.815   6.349  16.662 -1.7449  0.9439 -0.6360
  145DOPC   C2517223   3.679   6.250  16.528 -0.3547 -0.0251  0.4961
  145DOPC   H5R17224   3.584   6.303  16.548 -0.5307 -0.0411 -0.2440
  145DOPC   H5S17225   3.648   6.144  16.513 -0.9649  0.4652 -2.2471
  145DOPC   C2617226   3.734   6.310  16.404 -0.0175  0.2133  1.5302
  145DOPC   H6R17227   3.826   6.258  16.371 -1.3814 -1.4740  0.1547
  145DOPC   H6S17228   3.765   6.414  16.427  1.4406  0.0216  0.5788
  145DOPC   C2717229   3.630   6.313  16.293 -0.4132 -0.2595  0.4657
  145DOPC   H7R17230   3.646   6.406  16.235 -0.2828  0.1111  1.0914
  145DOPC   H7S17231   3.529   6.320  16.340 -1.7602  0.1641 -2.2459
  145DOPC   C2817232   3.648   6.189  16.198  0.2077 -0.1481  0.6961
  145DOPC   H8R17233   3.644   6.100  16.265 -0.0781 -0.4044  0.3399
  145DOPC   H8S17234   3.749   6.198  16.155 -0.8023  1.5202 -1.5270
  145DOPC   C2917235   3.548   6.187  16.085  0.4990 -0.1276 -1.0022
  145DOPC   H9R17236   3.446   6.181  16.125  0.7506  0.2884 -0.2737
  145DOPC  C21017237   3.563   6.204  15.956  0.4359 -0.0641  0.1125
  145DOPC  H10R17238   3.466   6.210  15.904 -1.4196 -0.3982  3.3005
  145DOPC  C21117239   3.686   6.211  15.880 -0.5938 -0.4573  0.0120
  145DOPC  H11R17240   3.753   6.290  15.920 -0.1862  0.4647 -2.3619
  145DOPC  H11S17241   3.659   6.249  15.780 -2.1450  0.0441  0.5956
  145DOPC  C21217242   3.777   6.083  15.884  0.1768  0.2067  0.4024
  145DOPC  H12R17243   3.719   5.989  15.876  1.9565 -0.8348 -0.9679
  145DOPC  H12S17244   3.841   6.091  15.974  2.1364  1.3280 -0.9820
  145DOPC  C21317245   3.873   6.067  15.768 -0.2522 -1.3481  0.7593
  145DOPC  H13R17246   3.944   5.982  15.769  0.5948 -0.8351 -2.5772
  145DOPC  H13S17247   3.939   6.156  15.756 -0.5429 -1.2468 -0.1822
  145DOPC  C21417248   3.803   6.052  15.632 -0.1322  0.1690 -0.2138
  145DOPC  H14R17249   3.729   6.133  15.614  0.0907  1.2982  3.2090
  145DOPC  H14S17250   3.742   5.960  15.646  0.2043  0.3310  3.3481
  145DOPC  C21517251   3.903   6.042  15.515 -0.3113  0.1460 -0.1652
  145DOPC  H15R17252   3.988   5.973  15.536 -1.2351 -1.0737 -0.2654
  145DOPC  H15S17253   3.935   6.148  15.517 -0.9513  0.3375  1.1246
  145DOPC  C21617254   3.848   6.000  15.381  0.7893 -0.0565 -0.2697
  145DOPC  H16R17255   3.938   5.996  15.316  0.2427  1.2587 -1.1310
  145DOPC  H16S17256   3.774   6.076  15.349 -0.9777 -1.8967 -0.7326
  145DOPC  C21717257   3.782   5.860  15.386  0.7983 -0.1812 -0.6144
  145DOPC  H17R17258   3.692   5.856  15.451  1.1419 -1.3809 -0.1802
  145DOPC  H17S17259   3.855   5.792  15.435  0.2630  0.5509  1.3229
  145DOPC  C21817260   3.743   5.812  15.245  0.1964  0.0688 -0.4163
  145DOPC  H18R17261   3.708   5.896  15.181  0.8572  0.0875 -0.7600
  145DOPC  H18S17262   3.657   5.742  15.255  1.7730 -2.0474 -1.0620
  145DOPC  H18T17263   3.825   5.759  15.193 -0.6187 -0.1631 -1.5008
  145DOPC   C3317264   4.177   5.641  16.550  1.1556  0.1864 -0.0236
  145DOPC   H3X17265   4.207   5.536  16.570 -0.4790 -0.9469 -2.9606
  145DOPC   H3Y17266   4.260   5.707  16.584  1.9902 -0.7885 -0.0941
  145DOPC   C3417267   4.181   5.652  16.397 -0.4596 -0.0559  0.4815
  145DOPC   H4X17268   4.144   5.744  16.347  4.6384  1.3875 -1.2146
  145DOPC   H4Y17269   4.120   5.564  16.364 -1.5634  0.8413  0.0566
  145DOPC   C3517270   4.336   5.644  16.352  0.2481  0.4758 -0.2221
  145DOPC   H5X17271   4.374   5.548  16.394  0.9184  0.6100 -0.5050
  145DOPC   H5Y17272   4.389   5.730  16.399  0.6903 -0.3847  0.9215
  145DOPC   C3617273   4.340   5.641  16.198  0.6229 -0.0730  0.7800
  145DOPC   H6X17274   4.261   5.566  16.174  0.7376  0.7067 -2.5510
  145DOPC   H6Y17275   4.317   5.739  16.151  1.0096  0.0064  0.7595
  145DOPC   C3717276   4.472   5.583  16.142  0.3376 -0.0006 -0.0204
  145DOPC   H7X17277   4.550   5.650  16.183 -1.0198  1.8995 -0.4046
  145DOPC   H7Y17278   4.494   5.477  16.169 -0.7277 -0.4368 -0.7916
  145DOPC   C3817279   4.481   5.582  15.993 -0.5400  0.3056  0.2245
  145DOPC   H8X17280   4.589   5.568  15.972 -0.3265  2.9510 -0.7251
  145DOPC   H8Y17281   4.447   5.681  15.957 -2.0505  0.1689  1.1857
  145DOPC   C3917282   4.402   5.470  15.924  0.4862  0.2312 -0.2195
  145DOPC   H9X17283   4.305   5.456  15.975  0.8710  0.1423  0.5046
  145DOPC  C31017284   4.433   5.382  15.818 -0.1471 -0.0444 -0.7301
  145DOPC  H10X17285   4.358   5.308  15.789  0.0716 -0.5854  0.0435
  145DOPC  C31117286   4.566   5.385  15.752  0.5784  0.1443  0.5671
  145DOPC  H11X17287   4.641   5.426  15.823 -0.2309  0.8071  1.0674
  145DOPC  H11Y17288   4.564   5.454  15.665 -0.2965 -1.3365 -0.6298
  145DOPC  C31217289   4.614   5.252  15.696  0.6310  0.0229 -0.3335
  145DOPC  H12X17290   4.629   5.183  15.782 -0.2441 -0.1111 -0.2827
  145DOPC  H12Y17291   4.719   5.251  15.660  0.1000  0.2807 -1.9940
  145DOPC  C31317292   4.534   5.187  15.581 -0.1242 -0.7082 -0.8507
  145DOPC  H13X17293   4.580   5.096  15.537 -1.3203 -0.2059 -3.3236
  145DOPC  H13Y17294   4.436   5.154  15.620  0.3394  2.3364  3.6301
  145DOPC  C31417295   4.517   5.282  15.461  0.4131 -0.1637  0.3315
  145DOPC  H14X17296   4.441   5.361  15.478  0.4302  0.9702 -3.7137
  145DOPC  H14Y17297   4.620   5.320  15.439  0.5467 -1.1716 -0.8897
  145DOPC  C31517298   4.457   5.218  15.329 -0.0870 -0.4698 -0.3831
  145DOPC  H15X17299   4.545   5.160  15.293  0.0418 -0.1858 -0.5281
  145DOPC  H15Y17300   4.421   5.298  15.262 -2.2110 -0.5421  0.5882
  145DOPC  C31617301   4.346   5.115  15.346  0.3464 -0.0727  0.1632
  145DOPC  H16X17302   4.342   5.054  15.253  1.0760  0.0099  0.0775
  145DOPC  H16Y17303   4.386   5.049  15.426  0.9994  1.0693  0.7896
  145DOPC  C31717304   4.212   5.168  15.356 -0.0124  0.1147 -0.0901
  145DOPC  H17X17305   4.204   5.248  15.433 -1.7744  2.0750 -2.1808
  145DOPC  H17Y17306   4.182   5.198  15.253  2.0427 -0.9217 -1.0438
  145DOPC  C31817307   4.115   5.055  15.408 -0.5110 -0.2481 -0.0650
  145DOPC  H18X17308   4.121   4.962  15.347  0.3899 -0.7452  0.7499
  145DOPC  H18Y17309   4.160   5.015  15.502  0.4768 -0.7550 -0.7433
  145DOPC  H18Z17310   4.011   5.091  15.427 -0.4892 -0.4206  0.4213
  146DOPC     N17311   4.890   2.874  17.234  0.4265  0.2706 -0.5945
  146DOPC   C1217312   5.025   2.853  17.161 -0.5616  0.2996 -0.9481
  146DOPC  H12A17313   5.025   2.893  17.060 -0.7836 -1.2570 -1.5882
  146DOPC  H12B17314   5.036   2.747  17.149 -1.0508 -0.4798  3.7082
  146DOPC   C1317315   4.877   2.789  17.348  0.8932 -0.3366 -0.3842
  146DOPC  H13A17316   4.877   2.686  17.315 -0.8418 -0.2378 -0.8039
  146DOPC  H13B17317   4.964   2.788  17.412 -1.1567  0.7541  2.6391
  146DOPC  H13C17318   4.791   2.822  17.404  0.9664  3.5759 -2.2541
  146DOPC   C1417319   4.779   2.848  17.139  0.5376 -0.2319 -0.1612
  146DOPC  H14A17320   4.683   2.874  17.182  0.9869 -1.2110  1.5222
  146DOPC  H14B17321   4.796   2.903  17.048 -0.1648  1.3996  0.6597
  146DOPC  H14C17322   4.771   2.743  17.113 -0.8276 -0.5196  1.2293
  146DOPC   C1517323   4.880   3.019  17.272 -0.2235 -0.2711 -0.2881
  146DOPC  H15A17324   4.882   3.081  17.183  1.3184  0.1458  0.0021
  146DOPC  H15B17325   4.960   3.044  17.340  0.5706  2.1754 -1.9527
  146DOPC  H15C17326   4.793   3.032  17.334  0.3480 -0.6035  0.6026
  146DOPC   C1117327   5.153   2.899  17.235  0.2373 -0.3683  0.0221
  146DOPC  H11A17328   5.139   2.857  17.337  1.3978 -2.0740 -0.4686
  146DOPC  H11B17329   5.240   2.847  17.190 -1.8010 -3.9563 -0.1802
  146DOPC     P17330   5.241   3.131  17.145  0.3498 -0.1596 -0.0281
  146DOPC   O1317331   5.387   3.106  17.161  0.0709  0.1063 -0.6739
  146DOPC   O1417332   5.193   3.270  17.146 -0.1121 -0.1198 -0.4247
  146DOPC   O1217333   5.166   3.041  17.244  0.1919 -0.2132 -0.4021
  146DOPC   O1117334   5.191   3.063  17.011 -0.2096 -0.3838  0.0099
  146DOPC    C117335   5.273   2.971  16.932 -0.1855  0.2476 -0.6191
  146DOPC    HA17336   5.230   2.869  16.935 -2.0568  1.0213  0.3431
  146DOPC    HB17337   5.374   2.966  16.977 -0.7772  1.5157  0.9528
  146DOPC    C217338   5.291   3.014  16.785 -0.6006  0.2150 -0.1175
  146DOPC    HS17339   5.372   3.090  16.785 -0.7156  0.3379 -0.1464
  146DOPC   O2117340   5.169   3.063  16.740 -0.3734  0.1367 -0.0821
  146DOPC   C2117341   5.178   3.141  16.638  0.2097 -0.1945 -0.4543
  146DOPC   O2217342   5.280   3.174  16.580 -0.3856 -0.3808  0.4604
  146DOPC   C2217343   5.033   3.184  16.591 -0.0435 -1.0927  0.1311
  146DOPC   H2R17344   5.017   3.291  16.615 -0.2916 -1.1894  0.3991
  146DOPC   H2S17345   4.955   3.130  16.650 -1.2277 -1.2557 -1.5240
  146DOPC    C317346   5.333   2.890  16.702  1.2729 -0.1268  0.3467
  146DOPC    HX17347   5.258   2.808  16.694 -0.5111  1.5660 -1.8027
  146DOPC    HY17348   5.415   2.845  16.762  0.0322 -1.4500  1.1134
  146DOPC   O3117349   5.361   2.918  16.561  0.0502 -0.2824 -0.0550
  146DOPC   C3117350   5.492   2.962  16.554 -0.2932  0.0506 -0.3820
  146DOPC   O3217351   5.553   3.000  16.650  0.3226  0.7344 -0.2499
  146DOPC   C3217352   5.544   2.955  16.412 -0.5263  0.4870  0.2525
  146DOPC   H2X17353   5.504   2.863  16.364 -0.6096  0.6998 -0.0920
  146DOPC   H2Y17354   5.508   3.050  16.367 -0.5949 -0.3876 -1.6209
  146DOPC   C2317355   5.025   3.170  16.438  0.3121  0.5208  0.4359
  146DOPC   H3R17356   5.096   3.241  16.392  1.5144 -1.8125 -1.5289
  146DOPC   H3S17357   4.927   3.192  16.390  0.5927  1.4823  0.2873
  146DOPC   C2417358   5.076   3.029  16.398  0.3061  0.3818  0.2862
  146DOPC   H4R17359   5.179   3.010  16.433 -0.0449  1.5143  2.0428
  146DOPC   H4S17360   5.081   3.029  16.287  0.9814  2.8351  0.2592
  146DOPC   C2517361   4.981   2.918  16.447 -0.1106 -0.1796 -0.0065
  146DOPC   H5R17362   4.882   2.956  16.416 -0.1873  0.2092  0.6890
  146DOPC   H5S17363   4.981   2.917  16.559  0.8087  0.2940  0.0108
  146DOPC   C2617364   5.018   2.779  16.387 -0.4506 -0.4651 -0.6402
  146DOPC   H6R17365   5.115   2.749  16.431  0.1858  3.1379  0.7669
  146DOPC   H6S17366   5.025   2.796  16.277  1.2228 -2.1327 -0.8307
  146DOPC   C2717367   4.912   2.676  16.406  0.7771  0.1128 -0.0225
  146DOPC   H7R17368   4.828   2.707  16.340 -0.3670 -1.5149  0.6186
  146DOPC   H7S17369   4.871   2.677  16.509  0.4826  0.9125 -0.1379
  146DOPC   C2817370   4.958   2.535  16.369 -0.3907  0.0054  0.5261
  146DOPC   H8R17371   4.874   2.464  16.388 -0.5911 -0.0656 -0.5141
  146DOPC   H8S17372   5.030   2.490  16.440 -1.7683 -1.5734  0.9888
  146DOPC   C2917373   5.018   2.535  16.224  0.5050 -0.3587 -0.0155
  146DOPC   H9R17374   5.128   2.529  16.226  0.5778  0.5234 -0.7616
  146DOPC  C21017375   4.948   2.508  16.114  0.5606 -0.9362  0.0955
  146DOPC  H10R17376   4.998   2.514  16.016  1.3325 -0.8795  0.4886
  146DOPC  C21117377   4.799   2.490  16.112  0.7619 -0.2849  0.1043
  146DOPC  H11R17378   4.749   2.589  16.112 -1.2228 -1.1343 -3.0541
  146DOPC  H11S17379   4.771   2.442  16.208 -0.2862 -0.0584 -0.0670
  146DOPC  C21217380   4.744   2.416  15.988 -0.4541 -0.4314 -0.2842
  146DOPC  H12R17381   4.784   2.456  15.892 -2.0714  2.4722  0.1526
  146DOPC  H12S17382   4.634   2.421  15.997 -0.3347  0.7473  0.8132
  146DOPC  C21317383   4.771   2.261  15.984  0.1793  0.1539  0.0545
  146DOPC  H13R17384   4.729   2.225  16.080 -0.6804 -0.1880 -0.4314
  146DOPC  H13S17385   4.882   2.257  15.987  0.2558 -0.5496 -2.0464
  146DOPC  C21417386   4.720   2.189  15.869  0.1481 -0.7967 -0.6475
  146DOPC  H14R17387   4.765   2.233  15.778 -0.2964  1.8769  0.3541
  146DOPC  H14S17388   4.610   2.199  15.860  0.0370 -0.7802  0.5246
  146DOPC  C21517389   4.765   2.041  15.873  0.7125  0.0167 -0.5891
  146DOPC  H15R17390   4.734   1.981  15.962  0.7883 -1.9571 -1.8372
  146DOPC  H15S17391   4.876   2.042  15.873  0.7164  1.1796 -0.2480
  146DOPC  C21617392   4.721   1.957  15.749 -0.1715 -0.4271 -0.3864
  146DOPC  H16R17393   4.610   1.958  15.754 -0.2542  1.3513 -1.6741
  146DOPC  H16S17394   4.758   1.852  15.757  0.6016 -0.0567  1.4266
  146DOPC  C21717395   4.757   2.017  15.616 -0.3073  0.7505  0.3943
  146DOPC  H17R17396   4.706   2.111  15.586 -1.7600 -0.6322 -1.8671
  146DOPC  H17S17397   4.714   1.950  15.538  1.6589  0.1711 -0.2379
  146DOPC  C21817398   4.907   2.022  15.596  0.1209  0.1208  0.2103
  146DOPC  H18R17399   4.919   2.060  15.492 -0.8995 -1.4844 -0.5267
  146DOPC  H18S17400   4.956   1.923  15.595 -1.0893 -0.4964  0.0534
  146DOPC  H18T17401   4.957   2.088  15.671 -1.7356  0.5198  1.1745
  146DOPC   C3317402   5.701   2.972  16.406 -0.3287  0.1585  0.7462
  146DOPC   H3X17403   5.727   3.057  16.473  2.7761 -2.2925  2.9425
  146DOPC   H3Y17404   5.721   3.012  16.304 -0.4259 -0.4664  0.4764
  146DOPC   C3417405   5.797   2.847  16.429 -0.1895  0.2611 -0.3768
  146DOPC   H4X17406   5.749   2.773  16.361 -1.1870  1.3050 -0.8402
  146DOPC   H4Y17407   5.788   2.798  16.529  1.6097 -2.2246 -1.3574
  146DOPC   C3517408   5.940   2.871  16.387 -0.0253  0.2886  0.0403
  146DOPC   H5X17409   6.001   2.928  16.462 -1.8294 -0.1806  1.9626
  146DOPC   H5Y17410   5.930   2.929  16.293 -1.5799  0.7376  0.4488
  146DOPC   C3617411   6.010   2.736  16.358  0.3049  0.6223  0.4586
  146DOPC   H6X17412   5.979   2.661  16.434  2.4881  0.8004  1.5989
  146DOPC   H6Y17413   5.972   2.694  16.262 -0.9151 -0.5408  1.4005
  146DOPC   C3717414   6.158   2.763  16.360 -0.4772 -0.0585  0.3867
  146DOPC   H7X17415   6.182   2.818  16.454 -0.6529  0.9888 -0.1654
  146DOPC   H7Y17416   6.201   2.662  16.371  1.1029  0.5379 -0.0618
  146DOPC   C3817417   6.212   2.832  16.239  0.1459 -0.2837  0.0075
  146DOPC   H8X17418   6.161   2.931  16.235  0.7891  0.0801  0.6254
  146DOPC   H8Y17419   6.176   2.767  16.156  0.6031 -0.2782 -0.1976
  146DOPC   C3917420   6.360   2.860  16.228  0.3260 -0.4892 -0.2705
  146DOPC   H9X17421   6.417   2.885  16.318  0.9046  1.2663 -1.0795
  146DOPC  C31017422   6.425   2.860  16.110 -0.0098  0.3276 -0.1363
  146DOPC  H10X17423   6.530   2.891  16.108  0.8054 -2.1236  0.5998
  146DOPC  C31117424   6.360   2.827  15.978 -0.0523  0.0136  0.0012
  146DOPC  H11X17425   6.249   2.832  15.976 -0.1917 -1.9182  0.6290
  146DOPC  H11Y17426   6.373   2.720  15.950  0.5093  0.1371 -0.2226
  146DOPC  C31217427   6.398   2.916  15.856 -0.5193  0.1762 -0.1571
  146DOPC  H12X17428   6.375   2.859  15.763  1.6337 -0.6235 -0.2503
  146DOPC  H12Y17429   6.507   2.936  15.852 -0.6955  0.9670 -2.5865
  146DOPC  C31317430   6.330   3.056  15.851  0.0820 -0.2260 -0.7842
  146DOPC  H13X17431   6.226   3.021  15.835  0.0619 -1.5988  1.8540
  146DOPC  H13Y17432   6.357   3.113  15.943 -1.3271 -0.6522 -0.0800
  146DOPC  C31417433   6.387   3.143  15.736 -0.0736 -0.0657 -0.2263
  146DOPC  H14X17434   6.498   3.145  15.745 -0.0557  2.0214 -0.3828
  146DOPC  H14Y17435   6.365   3.098  15.637 -0.8206 -0.0442 -0.0776
  146DOPC  C31517436   6.348   3.289  15.746 -0.4462 -0.7550 -0.1011
  146DOPC  H15X17437   6.366   3.335  15.846 -2.9862 -0.7957  0.4575
  146DOPC  H15Y17438   6.240   3.313  15.740 -0.5748 -1.1386  0.5519
  146DOPC  C31617439   6.416   3.364  15.630  0.3152  0.2587 -0.3513
  146DOPC  H16X17440   6.527   3.367  15.644  0.6405 -0.0625 -2.4863
  146DOPC  H16Y17441   6.398   3.321  15.529  1.3833  0.2284 -0.5495
  146DOPC  C31717442   6.383   3.516  15.618  0.1969 -0.6836  0.6213
  146DOPC  H17X17443   6.275   3.524  15.641  0.2169  2.2102  0.0035
  146DOPC  H17Y17444   6.437   3.563  15.703 -0.0984  0.5901  0.1178
  146DOPC  C31817445   6.435   3.580  15.487 -0.2329  0.3913  0.0755
  146DOPC  H18X17446   6.435   3.505  15.405 -2.1447 -1.0777  1.3433
  146DOPC  H18Y17447   6.369   3.660  15.446  1.2565  0.6040 -2.1216
  146DOPC  H18Z17448   6.530   3.635  15.506  0.0775 -1.2424  4.0254
  147DOPC     N17449   1.974   3.700  17.872 -0.5276 -0.2266  0.6502
  147DOPC   C1217450   2.046   3.674  17.738  0.3028 -0.5719 -0.0093
  147DOPC  H12A17451   2.052   3.567  17.722 -0.7277 -0.6653  0.1748
  147DOPC  H12B17452   2.138   3.730  17.745  0.1808 -0.4952  1.0044
  147DOPC   C1317453   2.073   3.651  17.979  0.3641  0.1777  0.0536
  147DOPC  H13A17454   2.162   3.711  17.980 -0.2251  1.1112 -1.0077
  147DOPC  H13B17455   2.032   3.648  18.079 -1.9184 -0.7633 -0.8170
  147DOPC  H13C17456   2.095   3.547  17.959 -2.2559 -0.6529  1.0073
  147DOPC   C1417457   1.846   3.621  17.877 -0.1853 -0.3413 -0.2475
  147DOPC  H14A17458   1.774   3.668  17.811  0.5495 -0.2554 -1.0060
  147DOPC  H14B17459   1.862   3.523  17.835  0.4272  0.2059 -1.3471
  147DOPC  H14C17460   1.805   3.599  17.974 -0.2688 -0.4738 -0.3122
  147DOPC   C1517461   1.952   3.849  17.891 -0.3494 -0.2515 -0.3250
  147DOPC  H15A17462   1.898   3.874  17.981  2.7450 -0.2559  1.6977
  147DOPC  H15B17463   1.901   3.872  17.799 -1.7078 -0.5836  0.3228
  147DOPC  H15C17464   2.042   3.907  17.873 -0.6644 -0.2722 -2.1726
  147DOPC   C1117465   1.969   3.722  17.610  0.9312  0.0311  0.1372
  147DOPC  H11A17466   2.030   3.684  17.525  0.3541  0.4323 -0.4628
  147DOPC  H11B17467   1.873   3.666  17.606 -0.9764  3.1316 -1.0073
  147DOPC     P17468   2.018   3.979  17.558  0.0499 -0.0925  0.1454
  147DOPC   O1317469   2.140   3.997  17.648 -0.0604 -0.0962 -0.2128
  147DOPC   O1417470   1.927   4.091  17.554  0.1280 -0.2598 -0.7525
  147DOPC   O1217471   1.932   3.860  17.613 -0.1319  0.0733  0.0390
  147DOPC   O1117472   2.054   3.934  17.404  0.2996 -0.0244 -0.3573
  147DOPC    C117473   1.961   3.877  17.307 -0.6243  0.4342 -0.7560
  147DOPC    HA17474   1.859   3.918  17.325 -0.7197 -0.2152  0.3030
  147DOPC    HB17475   1.955   3.769  17.332  1.0148  0.4262 -0.2582
  147DOPC    C217476   2.006   3.904  17.165 -0.0182  0.3472 -0.0596
  147DOPC    HS17477   1.917   3.880  17.102 -0.0050  1.2362 -0.4194
  147DOPC   O2117478   2.122   3.816  17.131  0.0925 -0.1760 -0.3504
  147DOPC   C2117479   2.087   3.695  17.092  0.2036 -0.0077  0.1859
  147DOPC   O2217480   1.979   3.639  17.102 -0.0280 -0.3226  0.2204
  147DOPC   C2217481   2.210   3.618  17.051  0.0025 -0.0427 -0.9045
  147DOPC   H2R17482   2.232   3.553  17.139 -1.8522  2.8820  1.9628
  147DOPC   H2S17483   2.292   3.692  17.037  1.9956 -1.9525  0.0732
  147DOPC    C317484   2.057   4.046  17.138 -0.1203 -0.1323 -0.1971
  147DOPC    HX17485   2.148   4.061  17.199 -1.0810 -0.9464  1.5196
  147DOPC    HY17486   1.992   4.120  17.189 -0.2486 -1.3405  1.4551
  147DOPC   O3117487   2.070   4.084  16.997 -0.3093  0.1618 -0.2619
  147DOPC   C3117488   2.186   4.060  16.933 -0.7693 -0.3335  0.0026
  147DOPC   O3217489   2.286   4.005  16.987 -0.6435 -0.0524  0.3681
  147DOPC   C3217490   2.171   4.111  16.790 -0.1189  0.5049 -0.3095
  147DOPC   H2X17491   2.182   4.024  16.721  1.5603 -0.3734  0.9702
  147DOPC   H2Y17492   2.065   4.142  16.781 -1.6187 -3.2270  1.8454
  147DOPC   C2317493   2.187   3.540  16.916  0.2035  0.0147 -0.0727
  147DOPC   H3R17494   2.117   3.454  16.928 -1.3060  1.3555  1.0670
  147DOPC   H3S17495   2.291   3.507  16.895  0.9008  2.7213 -1.3322
  147DOPC   C2417496   2.139   3.632  16.805  1.1710 -0.5341  0.2509
  147DOPC   H4R17497   2.183   3.734  16.809 -0.5269  0.3215 -1.3507
  147DOPC   H4S17498   2.030   3.653  16.809  1.2917  0.4146 -1.0055
  147DOPC   C2517499   2.154   3.557  16.668  0.7004 -0.2510 -0.4018
  147DOPC   H5R17500   2.120   3.453  16.687 -0.4886 -0.2398 -2.2113
  147DOPC   H5S17501   2.258   3.565  16.629  1.0926  2.2188  0.9595
  147DOPC   C2617502   2.070   3.626  16.557  0.4487  0.2785  0.3376
  147DOPC   H6R17503   2.122   3.720  16.530  0.4747  0.4867  1.0925
  147DOPC   H6S17504   1.969   3.652  16.595  0.5397  0.7719  0.2430
  147DOPC   C2717505   2.045   3.535  16.430 -0.9411 -0.4893  0.2826
  147DOPC   H7R17506   1.945   3.490  16.451 -1.0037  0.1568  1.4971
  147DOPC   H7S17507   2.122   3.456  16.419  0.1424  0.7362 -1.3020
  147DOPC   C2817508   2.034   3.620  16.309  0.2990  0.7016 -0.2506
  147DOPC   H8R17509   2.142   3.642  16.294  0.8059 -0.3364  1.6131
  147DOPC   H8S17510   1.985   3.718  16.325 -0.7189 -0.0224  1.2498
  147DOPC   C2917511   1.977   3.548  16.185  0.9840 -0.4516  0.2279
  147DOPC   H9R17512   1.993   3.439  16.178 -0.6195 -0.7989  1.3812
  147DOPC  C21017513   1.898   3.599  16.087  0.1397  0.2026 -0.3931
  147DOPC  H10R17514   1.852   3.535  16.011  1.1406 -2.3932  1.0607
  147DOPC  C21117515   1.836   3.737  16.071 -0.0205 -0.1637 -0.5424
  147DOPC  H11R17516   1.846   3.765  15.964 -0.3317 -0.4772 -0.6544
  147DOPC  H11S17517   1.901   3.819  16.109  0.6516  0.1260 -2.2235
  147DOPC  C21217518   1.694   3.745  16.130 -0.1522 -0.4158  0.2126
  147DOPC  H12R17519   1.669   3.853  16.124  0.4843 -0.1978  1.2133
  147DOPC  H12S17520   1.687   3.720  16.238 -0.3282  0.3835  0.3946
  147DOPC  C21317521   1.594   3.651  16.061  0.6955 -0.2253  0.0344
  147DOPC  H13R17522   1.618   3.543  16.070  1.8532 -0.0761 -0.9472
  147DOPC  H13S17523   1.613   3.669  15.953 -0.3061  1.5696  0.1103
  147DOPC  C21417524   1.447   3.682  16.096  0.3083 -0.0777  0.4482
  147DOPC  H14R17525   1.439   3.682  16.207  3.5245 -2.1976  0.8259
  147DOPC  H14S17526   1.384   3.607  16.044  0.0390  0.0921  0.5299
  147DOPC  C21517527   1.404   3.822  16.044  0.3772  0.4993 -0.2488
  147DOPC  H15R17528   1.427   3.825  15.935  0.4041  0.8436 -0.2339
  147DOPC  H15S17529   1.472   3.901  16.081  0.7070  0.5225 -0.8943
  147DOPC  C21617530   1.255   3.865  16.054 -0.5587 -0.1168 -0.1056
  147DOPC  H16R17531   1.224   3.818  16.150  0.8583 -1.8650 -0.4615
  147DOPC  H16S17532   1.198   3.820  15.970  1.3599 -0.2828 -1.3834
  147DOPC  C21717533   1.244   4.017  16.042  0.6136  0.2299  0.2074
  147DOPC  H17R17534   1.287   4.074  16.127 -0.8217  0.2467  0.9494
  147DOPC  H17S17535   1.134   4.033  16.052  0.5525 -0.0107 -0.0566
  147DOPC  C21817536   1.296   4.089  15.916  0.8125 -0.5815 -0.1548
  147DOPC  H18R17537   1.405   4.082  15.899  0.4499 -0.5706 -3.1137
  147DOPC  H18S17538   1.257   4.193  15.912 -1.5814 -1.4375 -2.2721
  147DOPC  H18T17539   1.252   4.041  15.826 -3.6909  0.8980  0.9843
  147DOPC   C3317540   2.279   4.221  16.770 -0.1092 -0.1866  0.6212
  147DOPC   H3X17541   2.369   4.180  16.721 -0.5113 -2.1380  1.4406
  147DOPC   H3Y17542   2.313   4.254  16.871  0.8891 -2.0616  0.9272
  147DOPC   C3417543   2.219   4.341  16.697  0.4677  0.3768  0.1482
  147DOPC   H4X17544   2.128   4.365  16.755  0.4848 -1.3508  0.9818
  147DOPC   H4Y17545   2.192   4.324  16.590  0.2536  1.4581  0.0230
  147DOPC   C3517546   2.318   4.460  16.710 -0.2291  0.4453 -0.2054
  147DOPC   H5X17547   2.372   4.461  16.807  0.2971 -1.1354 -0.4479
  147DOPC   H5Y17548   2.251   4.549  16.704  0.1154  0.6193 -1.6768
  147DOPC   C3617549   2.429   4.447  16.601 -0.9838 -1.1368  0.5074
  147DOPC   H6X17550   2.516   4.507  16.635 -1.1023 -0.6000 -0.1163
  147DOPC   H6Y17551   2.465   4.343  16.585 -0.1887 -0.7370 -0.4512
  147DOPC   C3717552   2.381   4.512  16.466  0.1281  0.2465  0.0531
  147DOPC   H7X17553   2.306   4.448  16.414  2.4463 -2.8874  0.2527
  147DOPC   H7Y17554   2.326   4.606  16.489  1.4820  0.7001  1.6012
  147DOPC   C3817555   2.500   4.540  16.370 -0.0380  0.0106 -0.8078
  147DOPC   H8X17556   2.582   4.601  16.414 -1.2508  0.4641  0.9215
  147DOPC   H8Y17557   2.461   4.610  16.293 -1.0083  1.2780  0.7898
  147DOPC   C3917558   2.563   4.412  16.316 -0.4246 -0.6304 -0.6499
  147DOPC   H9X17559   2.577   4.332  16.389 -0.2504 -1.3496 -1.4556
  147DOPC  C31017560   2.588   4.380  16.185 -0.1594  0.6486  0.0805
  147DOPC  H10X17561   2.623   4.280  16.154 -2.9891 -0.4948  0.2557
  147DOPC  C31117562   2.563   4.466  16.065 -0.3395  0.0567  0.5951
  147DOPC  H11X17563   2.538   4.571  16.094  0.2094  0.0767  1.0066
  147DOPC  H11Y17564   2.472   4.423  16.018  1.3052 -1.9184 -0.9153
  147DOPC  C31217565   2.673   4.475  15.964  0.1734 -0.7601 -0.0862
  147DOPC  H12X17566   2.732   4.383  15.945  2.0663  0.7473 -1.9664
  147DOPC  H12Y17567   2.744   4.545  16.012 -0.7203 -0.2410  0.5067
  147DOPC  C31317568   2.632   4.533  15.824  0.3554 -0.1992 -0.3010
  147DOPC  H13X17569   2.569   4.450  15.785  1.6440 -1.2185 -0.2752
  147DOPC  H13Y17570   2.579   4.629  15.844  0.0541 -0.5182  0.4936
  147DOPC  C31417571   2.746   4.556  15.718  0.8365 -0.6103 -0.2341
  147DOPC  H14X17572   2.796   4.648  15.756 -0.6872  1.3507 -2.7240
  147DOPC  H14Y17573   2.821   4.474  15.715  4.0457  2.1029  0.0656
  147DOPC  C31517574   2.674   4.585  15.586 -0.2151  0.2353 -0.2938
  147DOPC  H15X17575   2.587   4.652  15.603  1.0557  2.1994 -1.1670
  147DOPC  H15Y17576   2.635   4.486  15.553 -0.7919  1.3610 -3.2772
  147DOPC  C31617577   2.783   4.630  15.482  0.3885 -0.4996  0.5282
  147DOPC  H16X17578   2.841   4.708  15.535 -0.9681  0.0119  1.3208
  147DOPC  H16Y17579   2.832   4.540  15.438 -2.1458 -2.0474  0.6500
  147DOPC  C31717580   2.701   4.698  15.368 -0.3933 -0.6555 -0.0789
  147DOPC  H17X17581   2.648   4.615  15.318 -1.4887 -0.9222  1.4546
  147DOPC  H17Y17582   2.620   4.754  15.419 -1.9476 -0.0442 -3.0036
  147DOPC  C31817583   2.785   4.785  15.268  0.2811 -0.2777  1.0766
  147DOPC  H18X17584   2.826   4.870  15.326 -1.0585  0.7221  0.5884
  147DOPC  H18Y17585   2.873   4.736  15.221  0.3752  1.8139 -1.1051
  147DOPC  H18Z17586   2.727   4.818  15.179  2.2747 -1.4368 -0.7742
  148DOPC     N17587   2.476   6.661  17.191  0.1036  0.5750 -0.1801
  148DOPC   C1217588   2.565   6.538  17.179  0.5611 -0.0569  0.1754
  148DOPC  H12A17589   2.573   6.506  17.076 -3.9448 -0.1451 -0.3395
  148DOPC  H12B17590   2.519   6.452  17.226  1.3491 -1.2816 -1.1869
  148DOPC   C1317591   2.512   6.776  17.106 -0.2847  0.1975  0.4954
  148DOPC  H13A17592   2.449   6.862  17.124 -2.1006 -0.6094 -1.6181
  148DOPC  H13B17593   2.609   6.813  17.133 -0.9650  0.7382  2.4076
  148DOPC  H13C17594   2.514   6.758  17.000  1.0945  0.5409  0.4509
  148DOPC   C1417595   2.455   6.711  17.330  0.1514  0.2510  0.6033
  148DOPC  H14A17596   2.365   6.767  17.312 -0.8061 -1.9974 -2.6542
  148DOPC  H14B17597   2.437   6.630  17.400  1.2003  2.3350  3.4650
  148DOPC  H14C17598   2.547   6.759  17.360  1.5930 -2.2462  0.4748
  148DOPC   C1517599   2.336   6.616  17.148  0.2345  0.3748 -0.1372
  148DOPC  H15A17600   2.321   6.601  17.042 -0.4803 -0.3654  0.0627
  148DOPC  H15B17601   2.273   6.694  17.188  2.5800  1.1962  2.1786
  148DOPC  H15C17602   2.319   6.521  17.196  3.4603 -0.4841 -0.4591
  148DOPC   C1117603   2.702   6.544  17.255 -0.9971  0.7423  0.0663
  148DOPC  H11A17604   2.759   6.638  17.236 -0.0771  0.6246  1.9630
  148DOPC  H11B17605   2.678   6.545  17.364 -0.6414  2.3583  0.1584
  148DOPC     P17606   2.895   6.417  17.136  0.1522  0.0057  0.2141
  148DOPC   O1317607   2.930   6.276  17.102 -0.4141 -0.4028  0.6275
  148DOPC   O1417608   3.004   6.494  17.198 -0.3399  0.1404  0.2134
  148DOPC   O1217609   2.770   6.421  17.229  0.6562 -0.1299  0.0047
  148DOPC   O1117610   2.840   6.482  17.004  0.6077  0.2326 -0.1334
  148DOPC    C117611   2.767   6.415  16.899 -0.6152  0.1737  0.2357
  148DOPC    HA17612   2.666   6.460  16.893 -0.3758  0.5432 -1.3617
  148DOPC    HB17613   2.760   6.304  16.909 -2.9349  0.1234 -1.2712
  148DOPC    C217614   2.835   6.444  16.763 -0.2974  0.0630  0.2564
  148DOPC    HS17615   2.797   6.368  16.692 -0.1718  0.1781  0.0633
  148DOPC   O2117616   2.981   6.429  16.773 -0.3828 -0.4757  0.1262
  148DOPC   C2117617   3.028   6.314  16.815  0.2877 -0.0576  0.6336
  148DOPC   O2217618   2.959   6.212  16.820  0.0507  0.3784  0.1888
  148DOPC   C2217619   3.175   6.316  16.849  0.3670  0.3704 -0.3297
  148DOPC   H2R17620   3.198   6.262  16.943  1.5338 -0.4981 -1.0974
  148DOPC   H2S17621   3.198   6.425  16.859 -0.2733  0.3561  1.7869
  148DOPC    C317622   2.796   6.584  16.709  0.4143 -0.0946 -0.3309
  148DOPC    HX17623   2.822   6.656  16.790  0.4968 -0.4359 -0.0495
  148DOPC    HY17624   2.685   6.588  16.696  0.1859 -0.6884  1.2169
  148DOPC   O3117625   2.855   6.602  16.574 -0.5606 -1.1860 -0.5226
  148DOPC   C3117626   2.945   6.697  16.574 -0.1804  0.0314 -0.5094
  148DOPC   O3217627   3.002   6.741  16.675  0.3023 -0.2438  0.3863
  148DOPC   C3217628   2.981   6.738  16.433 -0.7119  0.0216  0.1171
  148DOPC   H2X17629   3.082   6.784  16.440 -0.4492 -0.2500 -1.4841
  148DOPC   H2Y17630   2.988   6.648  16.367  1.5614 -1.1724  1.8171
  148DOPC   C2317631   3.248   6.242  16.730  0.5368 -0.2907 -0.5676
  148DOPC   H3R17632   3.344   6.295  16.714  0.7049  0.0115  1.2668
  148DOPC   H3S17633   3.184   6.256  16.639  1.9092 -0.5347 -1.6060
  148DOPC   C2417634   3.291   6.099  16.757 -0.3247 -0.4328 -0.0042
  148DOPC   H4R17635   3.211   6.038  16.805 -0.6365  0.1677  0.2585
  148DOPC   H4S17636   3.378   6.107  16.825  0.8790  3.3755 -1.7228
  148DOPC   C2517637   3.349   6.027  16.635 -0.3953 -0.9338  0.8078
  148DOPC   H5R17638   3.387   5.926  16.661  0.5561 -0.8961 -0.3403
  148DOPC   H5S17639   3.428   6.090  16.589 -0.7459 -0.4042  0.9111
  148DOPC   C2617640   3.256   6.008  16.514  0.0199 -0.0359 -0.4019
  148DOPC   H6R17641   3.238   6.107  16.465 -0.4952  0.7365  1.2563
  148DOPC   H6S17642   3.158   5.968  16.548  0.7557 -0.8479  0.8642
  148DOPC   C2717643   3.309   5.916  16.401  0.5987  0.1805 -0.9439
  148DOPC   H7R17644   3.329   5.825  16.461 -0.5575  1.8523  2.1983
  148DOPC   H7S17645   3.399   5.970  16.366  0.5770 -0.0578 -1.3776
  148DOPC   C2817646   3.207   5.884  16.291 -0.6727  0.1478 -0.3960
  148DOPC   H8R17647   3.195   5.952  16.204 -1.1978  0.0158 -0.4274
  148DOPC   H8S17648   3.109   5.874  16.341 -0.8665  0.6041 -0.6836
  148DOPC   C2917649   3.248   5.761  16.224 -0.4736  0.2270 -0.1655
  148DOPC   H9R17650   3.202   5.667  16.256  1.1365 -0.9701 -1.2142
  148DOPC  C21017651   3.326   5.754  16.111 -0.3665 -0.1472 -0.6057
  148DOPC  H10R17652   3.336   5.652  16.072 -3.8051 -0.4042 -1.0436
  148DOPC  C21117653   3.391   5.870  16.037  0.8462  0.0304  0.8598
  148DOPC  H11R17654   3.485   5.830  15.995  0.5729  0.0130  0.2598
  148DOPC  H11S17655   3.415   5.957  16.103  1.9971  0.3138  0.1012
  148DOPC  C21217656   3.297   5.929  15.928 -0.3754  0.2296  0.4239
  148DOPC  H12R17657   3.342   6.011  15.868 -0.1162 -0.7407 -0.7446
  148DOPC  H12S17658   3.205   5.961  15.983 -0.6797  0.3599 -0.1536
  148DOPC  C21317659   3.264   5.821  15.822 -0.0618  0.7361  0.2952
  148DOPC  H13R17660   3.177   5.863  15.767 -0.2743 -0.7339 -0.5642
  148DOPC  H13S17661   3.225   5.726  15.865  0.4149  0.2587 -0.3126
  148DOPC  C21417662   3.372   5.772  15.724  0.5987  0.1272  0.1208
  148DOPC  H14R17663   3.340   5.692  15.654  1.2735 -1.6079  1.7119
  148DOPC  H14S17664   3.450   5.722  15.784  0.3697  1.8188  1.9005
  148DOPC  C21517665   3.449   5.877  15.641  0.1008  0.3933  0.6270
  148DOPC  H15R17666   3.523   5.823  15.577  0.9976  0.4977  1.5465
  148DOPC  H15S17667   3.500   5.949  15.709 -0.2765 -0.3635  1.7315
  148DOPC  C21617668   3.361   5.966  15.555 -0.0977  1.2101  0.6894
  148DOPC  H16R17669   3.424   6.030  15.490  0.0723  1.6136  1.2478
  148DOPC  H16S17670   3.300   6.028  15.623 -1.4653  0.8269 -0.1508
  148DOPC  C21717671   3.263   5.901  15.451 -0.5058  0.3174  0.1716
  148DOPC  H17R17672   3.190   5.976  15.415  0.0383 -0.0475 -1.7949
  148DOPC  H17S17673   3.207   5.821  15.505  3.3646 -1.5557  1.9182
  148DOPC  C21817674   3.335   5.841  15.332 -0.3523  0.1787 -0.2679
  148DOPC  H18R17675   3.256   5.799  15.266 -0.0342 -0.6500 -0.1260
  148DOPC  H18S17676   3.418   5.771  15.352 -0.1173 -0.2541 -2.5148
  148DOPC  H18T17677   3.383   5.916  15.265  1.6191  0.0935  0.9709
  148DOPC   C3317678   2.890   6.850  16.379  0.2102 -0.0927  0.1094
  148DOPC   H3X17679   2.888   6.925  16.461 -0.4117 -1.2589  1.2015
  148DOPC   H3Y17680   2.790   6.803  16.365 -1.0639  2.4058  0.3138
  148DOPC   C3417681   2.949   6.921  16.249 -0.4214 -0.1087  0.0216
  148DOPC   H4X17682   2.946   6.840  16.174 -2.0598 -0.8366  0.8164
  148DOPC   H4Y17683   3.055   6.947  16.274 -0.4710 -1.1291  1.3835
  148DOPC   C3517684   2.876   7.049  16.219  0.1364 -0.9157  0.0075
  148DOPC   H5X17685   2.872   7.113  16.309  1.6993 -0.3718 -0.2708
  148DOPC   H5Y17686   2.777   7.010  16.186  0.1088  0.0266 -1.0660
  148DOPC   C3617687   2.943   7.137  16.116 -0.2430  0.1151 -0.0079
  148DOPC   H6X17688   2.882   7.227  16.097  0.9439  1.0123  0.2855
  148DOPC   H6Y17689   3.042   7.180  16.145 -0.5458  2.1302 -1.7204
  148DOPC   C3717690   2.959   7.077  15.974  0.0748 -0.2704 -0.2156
  148DOPC   H7X17691   2.991   6.972  15.990  0.1436 -0.3551 -0.8558
  148DOPC   H7Y17692   2.858   7.084  15.927  0.7807  0.9192 -1.6391
  148DOPC   C3817693   3.066   7.147  15.878 -0.4378 -0.0531  0.1731
  148DOPC   H8X17694   3.036   7.251  15.852  2.9531  0.9146 -0.3602
  148DOPC   H8Y17695   3.055   7.088  15.785 -0.1121  0.0115  0.0922
  148DOPC   C3917696   3.205   7.133  15.931 -0.1698  0.0515  0.9437
  148DOPC   H9X17697   3.216   7.104  16.036 -0.5581  1.8912  1.5310
  148DOPC  C31017698   3.311   7.147  15.849 -0.0103 -0.2240  0.1266
  148DOPC  H10X17699   3.411   7.119  15.887  0.7210  0.1974 -1.4092
  148DOPC  C31117700   3.298   7.171  15.697 -0.0834  0.2738 -0.7015
  148DOPC  H11X17701   3.194   7.199  15.669 -1.2152 -1.2775  1.5744
  148DOPC  H11Y17702   3.335   7.077  15.652 -2.2255 -1.9651  1.8294
  148DOPC  C31217703   3.389   7.285  15.640 -0.1915  0.1576 -0.6778
  148DOPC  H12X17704   3.364   7.296  15.532  0.7780 -0.5643 -0.9874
  148DOPC  H12Y17705   3.495   7.254  15.636 -0.2788 -0.0483 -1.8429
  148DOPC  C31317706   3.357   7.426  15.701 -0.1732  0.1346 -0.1221
  148DOPC  H13X17707   3.260   7.470  15.669  0.0497 -1.0396 -2.6200
  148DOPC  H13Y17708   3.340   7.405  15.809  3.2574 -1.1347  0.2909
  148DOPC  C31417709   3.462   7.534  15.675  0.4709  0.0665 -0.0973
  148DOPC  H14X17710   3.459   7.560  15.567 -3.9299  1.7536  0.2310
  148DOPC  H14Y17711   3.427   7.624  15.730 -1.8651 -0.4022 -0.7156
  148DOPC  C31517712   3.603   7.502  15.725  0.3720  0.1402 -0.6384
  148DOPC  H15X17713   3.662   7.596  15.724 -1.5987  1.4383 -0.2553
  148DOPC  H15Y17714   3.658   7.425  15.666 -2.2168 -0.6523 -2.1881
  148DOPC  C31617715   3.593   7.460  15.875 -0.3678 -1.0639 -0.0808
  148DOPC  H16X17716   3.510   7.518  15.920 -0.6966 -1.6078  0.0203
  148DOPC  H16Y17717   3.568   7.352  15.874  1.0504 -1.4100  0.0843
  148DOPC  C31717718   3.716   7.470  15.958  0.1218 -0.6062 -0.2948
  148DOPC  H17X17719   3.785   7.395  15.914  1.3530  0.7914 -0.8763
  148DOPC  H17Y17720   3.765   7.569  15.942 -3.7753  1.1629 -2.7888
  148DOPC  C31817721   3.700   7.455  16.109  0.6212  0.1909 -0.2719
  148DOPC  H18X17722   3.791   7.485  16.165 -0.6369  2.8602  0.5003
  148DOPC  H18Y17723   3.613   7.512  16.148 -0.5819 -0.4121 -1.9298
  148DOPC  H18Z17724   3.675   7.348  16.125  2.5492 -0.4016 -0.9695
  149DOPC     N17725   1.965   4.335  17.835  0.4768 -0.0832 -0.2567
  149DOPC   C1217726   1.949   4.389  17.691  0.3134 -0.2740 -0.2349
  149DOPC  H12A17727   1.852   4.433  17.671 -1.2671 -3.1678  0.3788
  149DOPC  H12B17728   1.944   4.310  17.617  2.0482 -0.0996 -0.5660
  149DOPC   C1317729   1.848   4.249  17.865  0.2756 -0.0911 -0.0687
  149DOPC  H13A17730   1.760   4.312  17.871  0.3539  0.0044  0.0589
  149DOPC  H13B17731   1.829   4.182  17.782 -2.6754  1.0616 -0.4461
  149DOPC  H13C17732   1.858   4.192  17.956  1.8876  0.5022  0.1521
  149DOPC   C1417733   1.966   4.449  17.931  0.1884  0.1497 -0.2037
  149DOPC  H14A17734   1.874   4.503  17.912  0.1119  0.4132  0.8353
  149DOPC  H14B17735   1.968   4.411  18.033 -2.3087 -1.1326 -0.5408
  149DOPC  H14C17736   2.050   4.515  17.919  1.2598 -0.9437  0.9515
  149DOPC   C1517737   2.102   4.273  17.852 -0.2860  0.7739  0.2751
  149DOPC  H15A17738   2.123   4.250  17.955 -2.5045 -1.0243  0.3972
  149DOPC  H15B17739   2.183   4.341  17.829  1.2959 -0.5664  1.6540
  149DOPC  H15C17740   2.122   4.187  17.790 -1.5132  0.0634  0.8352
  149DOPC   C1117741   2.063   4.486  17.641  0.4428  0.4423 -0.7331
  149DOPC  H11A17742   2.166   4.446  17.659  0.2790  0.4079  0.2072
  149DOPC  H11B17743   2.046   4.503  17.533 -0.8590 -1.0763 -0.8063
  149DOPC     P17744   1.980   4.729  17.656  0.0669  0.2669  0.0469
  149DOPC   O1317745   2.036   4.784  17.533  0.4889  0.3668  0.2179
  149DOPC   O1417746   1.942   4.825  17.764  0.0059 -0.3009 -0.3987
  149DOPC   O1217747   2.069   4.612  17.713  0.1709  0.0349  0.2205
  149DOPC   O1117748   1.835   4.658  17.620  0.1671  0.2506 -0.5446
  149DOPC    C117749   1.739   4.720  17.529  0.2363  0.8892 -0.5133
  149DOPC    HA17750   1.780   4.789  17.453 -1.1829  0.4780 -1.6908
  149DOPC    HB17751   1.676   4.791  17.587  2.6059  2.1475  0.6645
  149DOPC    C217752   1.651   4.618  17.452  0.1441  0.5039  0.4536
  149DOPC    HS17753   1.584   4.568  17.526 -1.5614  0.4219 -1.0863
  149DOPC   O2117754   1.741   4.518  17.400 -0.1114 -0.2328  0.1104
  149DOPC   C2117755   1.682   4.408  17.361  0.6527  0.5031  0.4568
  149DOPC   O2217756   1.567   4.373  17.386  0.2261  0.7005 -0.1678
  149DOPC   C2217757   1.797   4.329  17.287  0.7058 -0.5551 -1.1639
  149DOPC   H2R17758   1.798   4.230  17.336  0.8192 -0.1291 -0.2767
  149DOPC   H2S17759   1.896   4.376  17.307 -0.5828  1.1823  1.7368
  149DOPC    C317760   1.564   4.679  17.337  0.3637 -0.0334 -0.1576
  149DOPC    HX17761   1.493   4.754  17.378  1.8874  0.1257  2.4024
  149DOPC    HY17762   1.504   4.595  17.295 -1.6218  0.8579  0.7406
  149DOPC   O3117763   1.649   4.731  17.233  0.3543  0.3857  0.0268
  149DOPC   C3117764   1.591   4.822  17.163  0.6545  0.0650  0.4438
  149DOPC   O3217765   1.479   4.865  17.180  0.4291  0.1635  0.2027
  149DOPC   C3217766   1.685   4.864  17.051 -0.3147 -0.4617  0.4623
  149DOPC   H2X17767   1.758   4.939  17.090  0.8365 -1.2010 -0.2019
  149DOPC   H2Y17768   1.739   4.769  17.033 -2.6574 -1.8043  0.1470
  149DOPC   C2317769   1.761   4.310  17.137  0.7674 -0.7103 -0.5422
  149DOPC   H3R17770   1.679   4.236  17.120 -1.5554  1.9600 -1.8597
  149DOPC   H3S17771   1.849   4.261  17.091  0.7779 -3.0027  1.6997
  149DOPC   C2417772   1.725   4.441  17.062  0.1038 -0.2971  0.2282
  149DOPC   H4R17773   1.817   4.502  17.076 -0.3767  1.1680 -2.2311
  149DOPC   H4S17774   1.644   4.498  17.113  0.6310 -0.0007  0.7472
  149DOPC   C2517775   1.694   4.407  16.913  0.3854 -0.5289  0.7865
  149DOPC   H5R17776   1.604   4.343  16.905 -0.1245  0.1390  1.1303
  149DOPC   H5S17777   1.768   4.336  16.871  0.2916 -0.4566  0.4968
  149DOPC   C2617778   1.686   4.526  16.814 -0.6097  0.1241 -0.5483
  149DOPC   H6R17779   1.788   4.571  16.821  0.0341 -1.5074  1.5510
  149DOPC   H6S17780   1.612   4.600  16.851  0.9713  0.7732  1.5282
  149DOPC   C2717781   1.662   4.487  16.666 -0.4753  0.2546  0.7235
  149DOPC   H7R17782   1.563   4.441  16.650 -1.2883  1.4050  2.1748
  149DOPC   H7S17783   1.738   4.416  16.626 -0.8381  0.8376 -1.1097
  149DOPC   C2817784   1.668   4.618  16.578 -0.4188 -0.1674 -0.0130
  149DOPC   H8R17785   1.612   4.697  16.634 -2.0835 -1.6508  0.5096
  149DOPC   H8S17786   1.623   4.611  16.477  0.7112  0.1034 -0.5597
  149DOPC   C2917787   1.817   4.666  16.572 -0.0142 -0.5177  0.1166
  149DOPC   H9R17788   1.841   4.731  16.658 -1.8317  0.9920 -0.4610
  149DOPC  C21017789   1.910   4.643  16.486  0.0447  0.4183  0.1333
  149DOPC  H10R17790   2.006   4.696  16.497 -0.0338  1.1729 -2.2781
  149DOPC  C21117791   1.895   4.579  16.349 -0.6011  0.0638 -0.1451
  149DOPC  H11R17792   1.913   4.657  16.272  0.4972 -1.7629 -1.8499
  149DOPC  H11S17793   1.791   4.542  16.337  0.1556 -1.7823 -1.4166
  149DOPC  C21217794   2.008   4.478  16.312 -0.0048 -0.0245 -0.5872
  149DOPC  H12R17795   1.998   4.377  16.356 -1.0240  0.0750 -0.5615
  149DOPC  H12S17796   2.110   4.518  16.328 -0.6854  1.6634 -0.2986
  149DOPC  C21317797   2.012   4.438  16.165  0.0051  0.3201  0.5807
  149DOPC  H13R17798   2.014   4.529  16.101  0.0999 -0.8980 -1.2360
  149DOPC  H13S17799   1.923   4.380  16.135  0.0058  1.0467 -0.8994
  149DOPC  C21417800   2.143   4.362  16.131 -0.6031 -0.1700  0.3567
  149DOPC  H14R17801   2.132   4.259  16.171 -0.9807  0.2694  1.3955
  149DOPC  H14S17802   2.234   4.398  16.183 -0.3850 -0.1866 -0.0044
  149DOPC  C21517803   2.176   4.356  15.981  0.2470  0.1047 -0.8688
  149DOPC  H15R17804   2.262   4.291  15.957  0.5490 -0.8440  2.3106
  149DOPC  H15S17805   2.207   4.458  15.949 -1.7829  0.9663 -0.2493
  149DOPC  C21617806   2.058   4.309  15.891  0.1055  0.1278  0.5288
  149DOPC  H16R17807   1.965   4.356  15.931  1.2994  0.5174  2.9766
  149DOPC  H16S17808   2.048   4.198  15.899  2.6122 -0.2634 -0.9304
  149DOPC  C21717809   2.078   4.361  15.743  0.1291 -0.4518 -0.5710
  149DOPC  H17R17810   2.058   4.469  15.730  0.6372 -0.3521 -0.5679
  149DOPC  H17S17811   1.999   4.323  15.675 -0.0175 -0.1840 -0.5524
  149DOPC  C21817812   2.213   4.316  15.692  0.5066  0.4209 -0.2520
  149DOPC  H18R17813   2.213   4.345  15.585  1.7952  1.7297  0.0770
  149DOPC  H18S17814   2.229   4.207  15.702 -1.5842  0.1333  0.4332
  149DOPC  H18T17815   2.300   4.369  15.737  0.6708  0.5154 -0.6782
  149DOPC   C3317816   1.613   4.914  16.919 -0.3300  0.3735  0.2861
  149DOPC   H3X17817   1.553   4.998  16.961 -0.2613  0.5961 -0.0634
  149DOPC   H3Y17818   1.558   4.829  16.873  3.7639 -1.5634 -1.5626
  149DOPC   C3417819   1.705   4.981  16.811  0.3628 -0.9084  0.1472
  149DOPC   H4X17820   1.791   4.917  16.784  2.2508  1.7789 -0.6611
  149DOPC   H4Y17821   1.761   5.064  16.860 -0.1301 -0.5558  0.1276
  149DOPC   C3517822   1.642   5.027  16.685 -0.0744 -0.3492  0.8188
  149DOPC   H5X17823   1.574   5.114  16.700 -2.2841 -1.7875 -0.2452
  149DOPC   H5Y17824   1.565   4.957  16.647 -0.1468 -1.7897  3.4229
  149DOPC   C3617825   1.749   5.068  16.582 -0.1121  0.4373 -0.4768
  149DOPC   H6X17826   1.803   5.158  16.618 -2.6888  1.0669  2.1257
  149DOPC   H6Y17827   1.829   4.991  16.576  1.2584  1.7699  0.1869
  149DOPC   C3717828   1.679   5.085  16.448  0.1594 -0.4227 -0.0882
  149DOPC   H7X17829   1.605   5.003  16.439  0.1357 -0.2648 -1.4930
  149DOPC   H7Y17830   1.617   5.177  16.455  2.3000  1.0300  1.5264
  149DOPC   C3817831   1.765   5.071  16.314  1.1633  0.3662 -0.0442
  149DOPC   H8X17832   1.691   5.066  16.232  0.6459 -1.0846  0.4807
  149DOPC   H8Y17833   1.812   4.970  16.315  0.2580 -0.0667 -0.2982
  149DOPC   C3917834   1.847   5.194  16.303 -0.7206 -0.2200 -0.5153
  149DOPC   H9X17835   1.910   5.209  16.392 -0.3417  0.4500 -0.8818
  149DOPC  C31017836   1.862   5.272  16.193  0.5419  0.2353  0.0660
  149DOPC  H10X17837   1.934   5.355  16.193 -0.5897  1.2601  1.6121
  149DOPC  C31117838   1.790   5.257  16.059  0.7185 -0.4924 -0.3375
  149DOPC  H11X17839   1.707   5.330  16.053  1.1971  0.2256  1.2489
  149DOPC  H11Y17840   1.740   5.158  16.050  1.1463 -0.5302 -3.2009
  149DOPC  C31217841   1.894   5.268  15.948 -0.4396  0.2252  0.9386
  149DOPC  H12X17842   1.973   5.191  15.940 -0.7502  0.0163 -0.2285
  149DOPC  H12Y17843   1.962   5.355  15.961 -0.4929  0.3217  0.5732
  149DOPC  C31317844   1.825   5.275  15.812 -0.0167 -0.0372  0.2549
  149DOPC  H13X17845   1.766   5.184  15.789  0.4412  0.3572 -3.1453
  149DOPC  H13Y17846   1.751   5.357  15.802 -0.6468 -0.7045 -0.8385
  149DOPC  C31417847   1.918   5.299  15.694 -0.5057 -0.1521  0.4703
  149DOPC  H14X17848   1.953   5.403  15.711 -1.3658  0.4262 -1.0617
  149DOPC  H14Y17849   2.007   5.234  15.712 -0.1398 -0.3107 -1.6016
  149DOPC  C31517850   1.861   5.273  15.554 -0.0799  0.2504  0.0749
  149DOPC  H15X17851   1.751   5.286  15.556 -0.4523 -2.4167  0.0499
  149DOPC  H15Y17852   1.873   5.167  15.524  0.4097  0.6175 -1.0696
  149DOPC  C31617853   1.934   5.353  15.441 -0.3353 -0.0891  0.3250
  149DOPC  H16X17854   1.913   5.461  15.456 -0.4263 -0.4335  3.2773
  149DOPC  H16Y17855   2.041   5.346  15.470  0.5232  1.7530 -2.1531
  149DOPC  C31717856   1.912   5.314  15.294 -0.2021 -0.3838 -0.7893
  149DOPC  H17X17857   1.935   5.206  15.279 -1.6363 -0.5984 -1.6263
  149DOPC  H17Y17858   1.808   5.337  15.264  0.1223  0.9748 -0.9073
  149DOPC  C31817859   2.013   5.382  15.198 -0.5323  0.3956 -0.3924
  149DOPC  H18X17860   2.013   5.491  15.221  1.6479  0.2011  0.8177
  149DOPC  H18Y17861   2.111   5.332  15.212 -0.7640  0.2593  0.8822
  149DOPC  H18Z17862   1.981   5.349  15.097 -0.6697 -2.5484  0.5154
  150DOPC     N17863   5.214   4.572  17.083  0.0642 -1.2482  0.2323
  150DOPC   C1217864   5.342   4.663  17.099 -0.5003  0.2933  0.5679
  150DOPC  H12A17865   5.313   4.760  17.060 -0.2171 -0.2370 -1.0317
  150DOPC  H12B17866   5.413   4.625  17.027 -1.1219  0.5031 -0.1650
  150DOPC   C1317867   5.183   4.559  16.935 -0.2282 -0.5322 -0.6853
  150DOPC  H13A17868   5.182   4.660  16.897  3.0266 -0.4225 -0.7791
  150DOPC  H13B17869   5.251   4.500  16.876 -1.1652 -0.8066 -1.5198
  150DOPC  H13C17870   5.093   4.502  16.916 -0.4623  0.3715 -2.5169
  150DOPC   C1417871   5.104   4.626  17.162  0.5454 -0.0681 -0.1554
  150DOPC  H14A17872   5.134   4.632  17.265  0.6164 -0.2989 -0.1632
  150DOPC  H14B17873   5.089   4.731  17.138 -2.1258 -0.0778  1.0431
  150DOPC  H14C17874   5.010   4.573  17.153  0.8186 -0.6166  0.1709
  150DOPC   C1517875   5.252   4.438  17.141 -0.7924  0.1917 -0.4502
  150DOPC  H15A17876   5.318   4.374  17.085 -0.2151 -1.4939  1.9982
  150DOPC  H15B17877   5.163   4.377  17.139 -0.2048 -0.6924 -0.1302
  150DOPC  H15C17878   5.291   4.448  17.241 -0.3496  1.0468 -0.6954
  150DOPC   C1117879   5.407   4.693  17.241 -0.3070 -0.2984  0.4811
  150DOPC  H11A17880   5.428   4.589  17.274  0.7609 -0.3807 -0.3931
  150DOPC  H11B17881   5.498   4.758  17.240 -1.1906  0.9687 -0.8743
  150DOPC     P17882   5.272   4.902  17.321  0.0265  0.0746 -0.0009
  150DOPC   O1317883   5.352   4.993  17.406  0.4675  0.4063 -0.4181
  150DOPC   O1417884   5.123   4.901  17.332  0.0484 -0.3671 -1.0895
  150DOPC   O1217885   5.316   4.749  17.341 -0.3134  0.0158 -0.5710
  150DOPC   O1117886   5.297   4.935  17.167  0.4075  0.0995  0.1492
  150DOPC    C117887   5.296   5.063  17.103  1.0415  0.2557  0.2838
  150DOPC    HA17888   5.397   5.093  17.067  0.1850  2.1265 -0.6886
  150DOPC    HB17889   5.260   5.145  17.167 -2.2233 -0.2632 -0.7242
  150DOPC    C217890   5.202   5.061  16.979 -0.1973  1.3166  0.2572
  150DOPC    HS17891   5.248   4.982  16.915  2.0673  1.8640  1.0940
  150DOPC   O2117892   5.207   5.195  16.926  0.3680  0.8585 -0.0725
  150DOPC   C2117893   5.202   5.203  16.799 -0.4064 -0.2257 -0.2492
  150DOPC   O2217894   5.179   5.108  16.727 -0.1747  0.1213 -0.8220
  150DOPC   C2217895   5.226   5.350  16.749  0.6333  0.4589  0.4730
  150DOPC   H2R17896   5.317   5.394  16.796  2.8524 -0.2176 -2.8440
  150DOPC   H2S17897   5.140   5.411  16.784  1.1371  1.2124  0.4307
  150DOPC    C317898   5.057   5.015  17.000 -0.1872 -0.1548 -0.3471
  150DOPC    HX17899   5.006   5.073  17.079  0.4018  0.8300 -0.6674
  150DOPC    HY17900   5.069   4.914  17.045  0.0785  0.4254  0.9071
  150DOPC   O3117901   4.971   5.030  16.885  0.1590 -0.1780  0.3117
  150DOPC   C3117902   4.945   4.917  16.815  0.0921 -0.4564  0.4858
  150DOPC   O3217903   4.988   4.807  16.837 -0.4003  0.0884  0.3687
  150DOPC   C3217904   4.858   4.962  16.689  0.5084 -0.2537  0.4462
  150DOPC   H2X17905   4.768   5.015  16.727  0.5123 -0.4018  0.6639
  150DOPC   H2Y17906   4.918   5.037  16.633 -1.0136 -0.4184 -1.4857
  150DOPC   C2317907   5.241   5.366  16.592 -0.4012  0.2601 -0.6326
  150DOPC   H3R17908   5.259   5.269  16.541 -0.7385  0.2564 -0.7427
  150DOPC   H3S17909   5.327   5.437  16.589  0.1585 -0.4320 -1.9555
  150DOPC   C2417910   5.121   5.432  16.525 -0.1394  0.1445 -0.1129
  150DOPC   H4R17911   5.032   5.372  16.554  1.8723 -3.1530 -0.2163
  150DOPC   H4S17912   5.113   5.430  16.414 -2.0509  2.4598 -0.1004
  150DOPC   C2517913   5.104   5.579  16.558 -0.0467  0.0451 -0.1548
  150DOPC   H5R17914   5.176   5.650  16.511 -0.1624  0.8996  0.9181
  150DOPC   H5S17915   5.116   5.585  16.668  0.6824 -1.0416 -0.1588
  150DOPC   C2617916   4.964   5.646  16.535 -0.0591  0.4725  0.2933
  150DOPC   H6R17917   4.908   5.587  16.610 -0.2923  1.0165  0.5498
  150DOPC   H6S17918   4.926   5.618  16.434  0.2701 -1.4275  0.6678
  150DOPC   C2717919   4.946   5.793  16.564 -0.4813  0.3712  0.1283
  150DOPC   H7R17920   5.019   5.845  16.499 -2.5757  1.3801 -1.5804
  150DOPC   H7S17921   4.978   5.809  16.669 -0.2222 -1.7355  0.4127
  150DOPC   C2817922   4.801   5.845  16.542 -0.0375  0.3133 -0.2958
  150DOPC   H8R17923   4.724   5.776  16.583 -0.5631  2.3400  2.4242
  150DOPC   H8S17924   4.783   5.857  16.434 -1.5619 -1.8317 -0.3453
  150DOPC   C2917925   4.788   5.978  16.615 -0.1422 -0.1502  0.2003
  150DOPC   H9R17926   4.875   6.045  16.610 -0.4977  0.2601 -0.9547
  150DOPC  C21017927   4.670   6.031  16.650 -0.8599  0.3623 -0.5139
  150DOPC  H10R17928   4.663   6.137  16.679  1.5408  0.0963  1.2715
  150DOPC  C21117929   4.537   5.969  16.633  0.5190  0.6519 -0.1336
  150DOPC  H11R17930   4.500   5.940  16.733 -0.4022 -1.9013 -1.1101
  150DOPC  H11S17931   4.526   5.876  16.572 -2.2389 -0.5098  1.8953
  150DOPC  C21217932   4.430   6.057  16.579  0.6019 -0.2692  0.4614
  150DOPC  H12R17933   4.413   6.142  16.648  2.2739 -0.3928  1.0552
  150DOPC  H12S17934   4.332   6.004  16.577  1.0159 -1.0359 -0.3973
  150DOPC  C21317935   4.453   6.095  16.435 -0.0107 -0.9442  0.4844
  150DOPC  H13R17936   4.545   6.042  16.401 -0.4417 -2.4240  1.5487
  150DOPC  H13S17937   4.461   6.206  16.426  0.3853 -1.0488 -0.7645
  150DOPC  C21417938   4.346   6.067  16.331 -0.2917  0.0709  0.4116
  150DOPC  H14R17939   4.264   6.140  16.345 -1.7339 -0.8303 -2.5938
  150DOPC  H14S17940   4.304   5.965  16.342  1.9400 -0.8992  0.5286
  150DOPC  C21517941   4.399   6.086  16.186  0.5203  0.5923 -0.1099
  150DOPC  H15R17942   4.426   5.987  16.142  0.8816  0.4822  0.3468
  150DOPC  H15S17943   4.490   6.151  16.187  1.6849 -0.9057  2.2343
  150DOPC  C21617944   4.312   6.169  16.096  0.3562 -0.2920  0.1293
  150DOPC  H16R17945   4.369   6.193  16.004 -0.3284 -1.4072 -0.6133
  150DOPC  H16S17946   4.303   6.273  16.135  2.3079 -0.0193 -0.0549
  150DOPC  C21717947   4.172   6.114  16.063 -0.1395  0.9801  0.4678
  150DOPC  H17R17948   4.126   6.193  15.999  2.1190  1.2190 -0.9823
  150DOPC  H17S17949   4.120   6.108  16.161 -3.4861 -1.5453 -1.2208
  150DOPC  C21817950   4.172   5.986  15.984  0.0154 -0.1834  0.0388
  150DOPC  H18R17951   4.080   5.925  16.000  1.4419 -2.7344 -0.8127
  150DOPC  H18S17952   4.261   5.930  16.021 -0.8198 -1.1662  0.6204
  150DOPC  H18T17953   4.190   6.007  15.876  3.1408  0.9396  0.6622
  150DOPC   C3317954   4.812   4.860  16.584 -0.2756  0.5265 -0.2262
  150DOPC   H3X17955   4.721   4.805  16.616 -0.0432 -0.2537 -0.8880
  150DOPC   H3Y17956   4.896   4.788  16.577 -0.1957  0.2982  2.3691
  150DOPC   C3417957   4.787   4.925  16.450  0.1629 -0.1603  0.1782
  150DOPC   H4X17958   4.885   4.963  16.415 -0.8282  1.9639 -0.5341
  150DOPC   H4Y17959   4.721   5.012  16.471 -1.7458 -1.4378 -0.2119
  150DOPC   C3517960   4.733   4.823  16.349 -0.6120 -0.2285 -0.6243
  150DOPC   H5X17961   4.634   4.789  16.386 -0.5359  0.3087  0.0923
  150DOPC   H5Y17962   4.809   4.743  16.362 -1.6980 -1.1833  0.0452
  150DOPC   C3617963   4.729   4.859  16.203  0.5556 -0.2894  0.0936
  150DOPC   H6X17964   4.687   4.959  16.179 -0.4319  0.0651  2.9862
  150DOPC   H6Y17965   4.830   4.851  16.156  0.9549 -2.4791  1.1823
  150DOPC   C3717966   4.649   4.758  16.122 -0.7775 -0.4713 -0.3956
  150DOPC   H7X17967   4.679   4.653  16.140  0.3151 -0.0946  0.0327
  150DOPC   H7Y17968   4.547   4.768  16.166 -1.0134 -2.8384 -0.2688
  150DOPC   C3817969   4.649   4.787  15.967  0.0431 -0.4977 -0.5253
  150DOPC   H8X17970   4.750   4.804  15.923  0.0273  1.0649 -0.0185
  150DOPC   H8Y17971   4.606   4.888  15.950  0.7556  0.0346  0.7270
  150DOPC   C3917972   4.574   4.671  15.909  0.3168 -0.4400 -0.5640
  150DOPC   H9X17973   4.473   4.649  15.948  0.7240 -1.2898  0.0352
  150DOPC  C31017974   4.635   4.590  15.821  0.2493 -0.0498 -0.1833
  150DOPC  H10X17975   4.567   4.520  15.770  1.4131 -1.8995  0.7364
  150DOPC  C31117976   4.775   4.600  15.766 -0.0337 -0.4204  0.4970
  150DOPC  H11X17977   4.845   4.519  15.795  2.4319  1.3369 -0.2130
  150DOPC  H11Y17978   4.829   4.690  15.802  1.9316 -2.0727  1.8981
  150DOPC  C31217979   4.786   4.602  15.609  0.4764  0.0172  0.2906
  150DOPC  H12X17980   4.765   4.502  15.564  0.8854 -1.2236  2.6959
  150DOPC  H12Y17981   4.892   4.627  15.591  0.4912  1.2432  1.8874
  150DOPC  C31317982   4.704   4.712  15.534 -0.0415 -0.4575  0.6213
  150DOPC  H13X17983   4.595   4.701  15.552 -0.5365 -0.5378 -2.0509
  150DOPC  H13Y17984   4.742   4.810  15.568  1.2438 -1.0278  0.8873
  150DOPC  C31417985   4.725   4.706  15.380  0.7973 -0.1554  0.0869
  150DOPC  H14X17986   4.830   4.712  15.344  1.5341 -2.1078  1.6762
  150DOPC  H14Y17987   4.689   4.604  15.355 -0.8209  0.2995  0.4780
  150DOPC  C31517988   4.628   4.802  15.307 -0.3963 -0.0088  0.0289
  150DOPC  H15X17989   4.664   4.905  15.329 -1.1812  0.3987 -0.5320
  150DOPC  H15Y17990   4.527   4.796  15.353 -0.3069 -0.4540  0.1674
  150DOPC  C31617991   4.614   4.778  15.159  0.3280  0.1491  0.2456
  150DOPC  H16X17992   4.711   4.798  15.109  0.5831 -0.4089  0.5001
  150DOPC  H16Y17993   4.584   4.672  15.141 -2.5616  0.8390  0.5539
  150DOPC  C31717994   4.511   4.859  15.090 -0.6141 -0.2720  0.0967
  150DOPC  H17X17995   4.414   4.867  15.144  1.0569  0.8614  3.1937
  150DOPC  H17Y17996   4.549   4.963  15.099 -1.4174  0.0623 -0.3213
  150DOPC  C31817997   4.468   4.804  14.947 -0.0373 -0.4789  0.0709
  150DOPC  H18X17998   4.563   4.780  14.895 -1.1241 -0.3339 -2.1391
  150DOPC  H18Y17999   4.396   4.720  14.952 -0.3511 -0.2670 -0.7488
  150DOPC  H18Z18000   4.421   4.879  14.879 -2.9637 -1.1498  1.1936
  151DOPC     N18001   2.602   5.080  17.705 -0.4484  0.1708  0.0728
  151DOPC   C1218002   2.558   4.979  17.812  0.1809  0.1419 -0.2871
  151DOPC  H12A18003   2.474   5.013  17.870  0.0025 -2.2769  0.9851
  151DOPC  H12B18004   2.636   4.982  17.887  0.5384  0.0629 -0.6505
  151DOPC   C1318005   2.610   5.221  17.753  0.5697  0.1589  0.0350
  151DOPC  H13A18006   2.655   5.289  17.682  3.1512  0.0635  1.4799
  151DOPC  H13B18007   2.511   5.248  17.789 -0.0017 -0.8105 -0.7527
  151DOPC  H13C18008   2.678   5.228  17.837  1.6337  3.7231 -0.9476
  151DOPC   C1418009   2.505   5.086  17.588 -0.6212 -0.2435 -0.1453
  151DOPC  H14A18010   2.406   5.121  17.614  0.0563 -0.2121  2.7838
  151DOPC  H14B18011   2.544   5.144  17.506 -1.6560  0.3139 -0.2625
  151DOPC  H14C18012   2.490   4.988  17.544 -2.6794  0.6202 -1.5489
  151DOPC   C1518013   2.736   5.037  17.645  0.0066 -0.0814 -0.2643
  151DOPC  H15A18014   2.772   5.105  17.569  0.4081  0.2089  0.1793
  151DOPC  H15B18015   2.725   4.940  17.599 -0.9305  0.2275 -0.7321
  151DOPC  H15C18016   2.810   5.027  17.722 -2.0057 -0.9996  1.6382
  151DOPC   C1118017   2.517   4.834  17.777  0.1853 -0.1406 -0.1417
  151DOPC  H11A18018   2.485   4.795  17.877  0.2990  1.6714  0.6332
  151DOPC  H11B18019   2.442   4.839  17.696  1.0821 -0.2309 -0.9997
  151DOPC     P18020   2.638   4.643  17.635 -0.3755  0.0802  0.4212
  151DOPC   O1318021   2.596   4.516  17.701 -0.3274  0.6547  0.1542
  151DOPC   O1418022   2.768   4.633  17.564  0.0096 -0.1355 -0.1962
  151DOPC   O1218023   2.638   4.765  17.736 -0.4256  0.2393  0.3872
  151DOPC   O1118024   2.535   4.693  17.529 -0.6782 -0.1432  0.1463
  151DOPC    C118025   2.437   4.610  17.467  0.4606  0.0890 -0.0488
  151DOPC    HA18026   2.360   4.686  17.444  0.2362 -0.0760  0.1499
  151DOPC    HB18027   2.393   4.527  17.525 -1.8141  1.1926 -0.0873
  151DOPC    C218028   2.485   4.546  17.331 -1.0619 -0.4779 -0.2828
  151DOPC    HS18029   2.546   4.629  17.288 -0.3524 -2.3113 -3.1138
  151DOPC   O2118030   2.380   4.537  17.236  0.0979 -0.6959  0.3712
  151DOPC   C2118031   2.266   4.471  17.259 -0.2180 -0.1011  0.0898
  151DOPC   O2218032   2.247   4.401  17.356  0.3943  0.0320 -0.2705
  151DOPC   C2218033   2.169   4.490  17.142 -0.3860 -0.3249 -0.3267
  151DOPC   H2R18034   2.075   4.459  17.193 -0.1760  1.6271  1.3538
  151DOPC   H2S18035   2.198   4.420  17.061  0.7496  0.1224 -0.3150
  151DOPC    C318036   2.585   4.420  17.328  0.0712 -0.3314 -0.0524
  151DOPC    HX18037   2.512   4.340  17.354 -0.8727  0.5688  0.1477
  151DOPC    HY18038   2.652   4.438  17.414 -0.3759 -0.2305  0.2811
  151DOPC   O3118039   2.651   4.407  17.206 -0.4484  0.1480  0.0041
  151DOPC   C3118040   2.601   4.330  17.117  1.0575 -0.0399  0.2756
  151DOPC   O3218041   2.486   4.280  17.115  0.1439 -0.0582 -0.8877
  151DOPC   C3218042   2.700   4.314  17.004  0.2582  0.2286 -0.7174
  151DOPC   H2X18043   2.685   4.396  16.930 -1.5790  2.2318  1.6715
  151DOPC   H2Y18044   2.798   4.335  17.052 -1.1906  0.4868  2.3856
  151DOPC   C2318045   2.166   4.637  17.092 -0.7533  0.2684 -0.0159
  151DOPC   H3R18046   2.258   4.667  17.038 -0.1421  0.2591  0.9980
  151DOPC   H3S18047   2.168   4.702  17.182  0.8589 -0.3188  0.3990
  151DOPC   C2418048   2.045   4.671  17.011  0.2935 -0.0863  0.2189
  151DOPC   H4R18049   1.953   4.676  17.072  1.2356 -0.0820  1.6848
  151DOPC   H4S18050   2.032   4.609  16.919  1.5695  0.2197 -0.2012
  151DOPC   C2518051   2.063   4.807  16.948  0.9251 -0.0204  0.3156
  151DOPC   H5R18052   2.107   4.881  17.019 -1.2575  1.7288 -0.0576
  151DOPC   H5S18053   1.963   4.852  16.933  1.0046  0.5948  1.4626
  151DOPC   C2618054   2.147   4.816  16.820 -0.8099 -0.1189 -0.1817
  151DOPC   H6R18055   2.112   4.744  16.743  1.4495 -0.4778 -0.9461
  151DOPC   H6S18056   2.251   4.791  16.849 -0.7734  1.3095  1.0394
  151DOPC   C2718057   2.138   4.963  16.762  0.2758  0.1103 -0.0895
  151DOPC   H7R18058   2.125   5.047  16.834 -1.8955  0.2774 -0.5861
  151DOPC   H7S18059   2.043   4.965  16.704  0.2026  1.3882  0.0376
  151DOPC   C2818060   2.237   5.006  16.646 -0.7555 -0.1492 -0.6488
  151DOPC   H8R18061   2.335   5.024  16.694 -1.4089  0.7606  0.3932
  151DOPC   H8S18062   2.200   5.103  16.607 -1.4158  1.3016  3.1170
  151DOPC   C2918063   2.249   4.903  16.541 -0.0711 -0.0481 -0.8847
  151DOPC   H9R18064   2.318   4.821  16.568  2.0701  2.3289  1.4755
  151DOPC  C21018065   2.220   4.899  16.410 -0.1078  0.0720 -0.2348
  151DOPC  H10R18066   2.236   4.809  16.349 -1.8647 -1.2421  1.0973
  151DOPC  C21118067   2.138   5.000  16.341 -0.1945 -0.0231  0.3355
  151DOPC  H11R18068   2.090   5.074  16.408  1.4523 -0.2095  1.7945
  151DOPC  H11S18069   2.059   4.954  16.278  0.6883 -1.3193  0.1197
  151DOPC  C21218070   2.229   5.077  16.235  0.2575 -0.3805 -0.1975
  151DOPC  H12R18071   2.322   5.109  16.284 -0.8583  2.5362  0.1924
  151DOPC  H12S18072   2.165   5.163  16.206 -1.6982 -1.6710  0.0619
  151DOPC  C21318073   2.269   4.994  16.109  0.8271  0.3790 -0.0574
  151DOPC  H13R18074   2.173   4.967  16.060  0.4763 -1.2674  1.4522
  151DOPC  H13S18075   2.320   4.897  16.130  0.2118 -0.1144 -0.7637
  151DOPC  C21418076   2.357   5.067  16.002  0.2400 -0.0845  0.6569
  151DOPC  H14R18077   2.454   5.089  16.053 -0.1314  1.0424  0.9202
  151DOPC  H14S18078   2.294   5.159  15.993  0.6259  0.1190 -0.0660
  151DOPC  C21518079   2.374   4.980  15.870  0.1959 -0.2870 -0.5428
  151DOPC  H15R18080   2.417   4.886  15.910  0.1186 -0.5218 -0.9999
  151DOPC  H15S18081   2.445   5.031  15.801 -1.6970  2.2874 -0.7688
  151DOPC  C21618082   2.245   4.950  15.787  0.1726  0.2268 -0.4024
  151DOPC  H16R18083   2.169   5.021  15.824 -0.3878 -1.0258  0.9494
  151DOPC  H16S18084   2.205   4.851  15.817  0.6071  0.7369  2.0148
  151DOPC  C21718085   2.253   4.955  15.635  0.0171 -0.1129 -0.5462
  151DOPC  H17R18086   2.159   4.914  15.591 -1.3928  1.1520  1.1281
  151DOPC  H17S18087   2.342   4.907  15.590 -0.6671 -0.4159 -1.6221
  151DOPC  C21818088   2.253   5.098  15.582  0.6330  0.6608 -0.1496
  151DOPC  H18R18089   2.149   5.136  15.576 -0.1154 -1.5161 -2.4949
  151DOPC  H18S18090   2.287   5.107  15.476  0.4048  1.0976 -0.1887
  151DOPC  H18T18091   2.314   5.165  15.647 -1.2546  0.1987  2.2165
  151DOPC   C3318092   2.696   4.169  16.938  0.1415 -0.7046 -0.5330
  151DOPC   H3X18093   2.615   4.103  16.976 -2.1644  2.0089 -0.3854
  151DOPC   H3Y18094   2.786   4.112  16.970  0.3407 -0.9835 -1.5545
  151DOPC   C3418095   2.706   4.174  16.779 -0.1941  0.8445 -0.4550
  151DOPC   H4X18096   2.622   4.225  16.728  0.6910  1.6752 -1.1377
  151DOPC   H4Y18097   2.712   4.070  16.740 -1.0726  0.9978 -1.0071
  151DOPC   C3518098   2.844   4.239  16.750  0.0261 -0.1649 -0.1135
  151DOPC   H5X18099   2.915   4.188  16.818 -1.1086 -0.4796  0.8684
  151DOPC   H5Y18100   2.841   4.342  16.793  0.7758 -0.8857  1.7296
  151DOPC   C3618101   2.889   4.260  16.610  0.3987  0.1108  0.3540
  151DOPC   H6X18102   2.831   4.348  16.574 -1.0255 -0.7672  0.4176
  151DOPC   H6Y18103   2.998   4.278  16.613  0.2875  0.7052  1.3002
  151DOPC   C3718104   2.866   4.144  16.512 -0.3538  0.2085  0.7159
  151DOPC   H7X18105   2.935   4.060  16.533  0.4480  0.9120  0.9469
  151DOPC   H7Y18106   2.761   4.107  16.520 -0.8028  1.1603 -0.4469
  151DOPC   C3818107   2.889   4.201  16.375  0.4068  0.1964 -0.1083
  151DOPC   H8X18108   2.985   4.253  16.353  0.1868 -0.2933 -2.5230
  151DOPC   H8Y18109   2.806   4.272  16.357  0.5731  1.1513  2.4360
  151DOPC   C3918110   2.889   4.089  16.277 -0.3773  0.6158  0.6245
  151DOPC   H9X18111   2.839   3.994  16.298  2.2642 -1.1489 -0.4246
  151DOPC  C31018112   2.940   4.107  16.153 -0.2018  0.6996 -0.2071
  151DOPC  H10X18113   2.923   4.034  16.073 -1.9423  1.8834 -0.9624
  151DOPC  C31118114   3.001   4.235  16.102 -1.1454  0.3413  0.3003
  151DOPC  H11X18115   3.100   4.258  16.147  0.7223 -0.6507 -2.9693
  151DOPC  H11Y18116   2.954   4.325  16.146  1.1683  2.2375 -0.8770
  151DOPC  C31218117   2.997   4.251  15.951  0.1620 -0.0169  0.5472
  151DOPC  H12X18118   3.009   4.359  15.927  3.7924 -0.5440 -0.5435
  151DOPC  H12Y18119   2.899   4.212  15.914  1.3495 -1.2121 -1.5601
  151DOPC  C31318120   3.109   4.172  15.872  0.0990  0.1904  0.0279
  151DOPC  H13X18121   3.196   4.240  15.866 -0.5019  1.0214  0.6277
  151DOPC  H13Y18122   3.140   4.087  15.938  4.2451  3.2746  2.5781
  151DOPC  C31418123   3.058   4.106  15.742  0.1155  0.4154 -0.0004
  151DOPC  H14X18124   3.142   4.051  15.695 -0.3610 -0.2591 -0.0754
  151DOPC  H14Y18125   2.973   4.034  15.750 -0.4826  0.9320 -1.5007
  151DOPC  C31518126   3.017   4.213  15.634  0.4230  0.1261 -0.7702
  151DOPC  H15X18127   3.094   4.292  15.619  0.0979  0.7149  0.5437
  151DOPC  H15Y18128   2.923   4.266  15.659  1.8712  3.0006 -0.9200
  151DOPC  C31618129   3.022   4.154  15.495 -0.2546 -0.1605 -0.8076
  151DOPC  H16X18130   3.129   4.125  15.481 -0.4522 -1.7918  0.6448
  151DOPC  H16Y18131   2.965   4.060  15.482  3.5073 -2.7819 -0.0963
  151DOPC  C31718132   2.978   4.258  15.393 -0.1982 -0.0087 -0.2955
  151DOPC  H17X18133   2.880   4.304  15.417 -0.4358 -0.5852 -0.1575
  151DOPC  H17Y18134   3.046   4.346  15.394  1.1550 -0.9563 -1.8994
  151DOPC  C31818135   2.986   4.215  15.249  0.2569  0.6835  0.3877
  151DOPC  H18X18136   3.091   4.210  15.212  0.5919 -1.1423  1.4528
  151DOPC  H18Y18137   2.931   4.121  15.225  1.8539 -0.0695 -0.5287
  151DOPC  H18Z18138   2.944   4.300  15.190  0.1137  0.7193  0.5419
  152DOPC     N18139   3.346   2.872  17.887  0.4108  0.2995  0.3394
  152DOPC   C1218140   3.393   2.926  17.750 -0.2679  0.0885  0.9018
  152DOPC  H12A18141   3.342   2.863  17.678  1.0741 -1.8799  1.6019
  152DOPC  H12B18142   3.499   2.913  17.759 -0.1867  1.3489  2.0969
  152DOPC   C1318143   3.388   2.726  17.887  0.2231  0.1443  0.1444
  152DOPC  H13A18144   3.353   2.671  17.973  1.8446  0.3401  0.9557
  152DOPC  H13B18145   3.350   2.684  17.795 -0.5847 -1.2807  1.0819
  152DOPC  H13C18146   3.495   2.712  17.887  0.8417  3.6090 -2.4000
  152DOPC   C1418147   3.192   2.865  17.892  0.1599  0.7558  0.1517
  152DOPC  H14A18148   3.167   2.814  17.984  1.2513 -0.9438 -0.4421
  152DOPC  H14B18149   3.146   2.962  17.890 -4.5076 -1.1980  0.0369
  152DOPC  H14C18150   3.154   2.799  17.814  2.5194  1.2607 -1.5280
  152DOPC   C1518151   3.397   2.951  18.002 -0.3187 -0.2776 -0.6694
  152DOPC  H15A18152   3.379   3.056  17.990  3.3459  0.7180  1.0823
  152DOPC  H15B18153   3.504   2.950  17.984 -0.1796  2.3688 -0.2682
  152DOPC  H15C18154   3.377   2.924  18.104  0.5991  0.6151 -0.2382
  152DOPC   C1118155   3.354   3.073  17.713  0.4326  0.0221 -0.1372
  152DOPC  H11A18156   3.409   3.146  17.776 -0.0148  1.4538 -1.3420
  152DOPC  H11B18157   3.395   3.087  17.610  3.6864 -0.9259  0.9337
  152DOPC     P18158   3.144   3.229  17.659  0.3330  0.5900 -0.5993
  152DOPC   O1318159   3.239   3.339  17.685 -0.1396 -0.5816  0.0482
  152DOPC   O1418160   3.011   3.238  17.728 -0.2779  0.3243 -0.3791
  152DOPC   O1218161   3.209   3.100  17.712  0.3787  0.0817  0.0689
  152DOPC   O1118162   3.128   3.205  17.506  0.0853  0.1182 -0.0690
  152DOPC    C118163   3.034   3.122  17.443  0.1856  0.0013  0.8076
  152DOPC    HA18164   3.002   3.167  17.346  1.1526 -0.9202  0.0424
  152DOPC    HB18165   2.942   3.109  17.504 -0.1769 -1.7628 -0.0516
  152DOPC    C218166   3.093   2.982  17.411  0.0878 -0.3783 -0.0687
  152DOPC    HS18167   3.184   2.975  17.475  0.1775 -1.0125 -0.2547
  152DOPC   O2118168   3.130   2.990  17.274  0.2064 -0.2967 -0.2020
  152DOPC   C2118169   3.230   2.908  17.245  0.0203  0.1667  0.0889
  152DOPC   O2218170   3.289   2.831  17.320  0.0957  0.5630 -0.1555
  152DOPC   C2218171   3.261   2.922  17.095  0.4241  0.1628 -1.1166
  152DOPC   H2R18172   3.299   3.026  17.084  2.1472 -0.1788  0.8758
  152DOPC   H2S18173   3.160   2.908  17.051  0.5486 -1.0034 -1.0627
  152DOPC    C318174   2.987   2.867  17.428  0.0264  0.2316  0.1527
  152DOPC    HX18175   2.947   2.875  17.532  0.5371  0.6670  0.3181
  152DOPC    HY18176   3.034   2.767  17.436 -0.1718  0.1070 -0.2105
  152DOPC   O3118177   2.888   2.879  17.326  0.1037 -0.0581  0.4532
  152DOPC   C3118178   2.910   2.797  17.224 -0.3146 -0.0309 -0.2177
  152DOPC   O3218179   2.994   2.711  17.216  0.1502 -0.0820 -0.2007
  152DOPC   C3218180   2.829   2.843  17.106  0.0617  0.1478 -0.8657
  152DOPC   H2X18181   2.724   2.850  17.140  1.3687 -1.2198  4.2039
  152DOPC   H2Y18182   2.872   2.945  17.090  1.8730 -0.1937  1.3819
  152DOPC   C2318183   3.360   2.835  17.021 -0.0501  0.6873  0.0721
  152DOPC   H3R18184   3.334   2.730  17.050 -1.4394  0.5341 -1.5535
  152DOPC   H3S18185   3.464   2.852  17.056 -0.0689  1.0309 -0.0353
  152DOPC   C2418186   3.349   2.861  16.870  0.0287  0.5869  1.3834
  152DOPC   H4R18187   3.246   2.864  16.829 -0.0916 -0.4217  1.5803
  152DOPC   H4S18188   3.401   2.772  16.829  1.1141  0.8995  2.0487
  152DOPC   C2518189   3.417   2.990  16.826  0.3328 -0.3905 -0.3692
  152DOPC   H5R18190   3.518   2.992  16.872  0.1410 -1.9340  0.1653
  152DOPC   H5S18191   3.368   3.075  16.879  0.5661 -0.1161 -0.5916
  152DOPC   C2618192   3.413   3.009  16.674 -0.1920 -0.3278 -0.1583
  152DOPC   H6R18193   3.308   3.017  16.639  0.6625  0.3873 -2.8343
  152DOPC   H6S18194   3.448   2.914  16.628 -1.0175  0.0473 -1.6245
  152DOPC   C2718195   3.507   3.123  16.633  0.3905 -0.1793 -0.1831
  152DOPC   H7R18196   3.615   3.122  16.661  1.7578 -0.8623 -4.7321
  152DOPC   H7S18197   3.461   3.213  16.678 -0.4885  0.1326 -1.6702
  152DOPC   C2818198   3.530   3.151  16.479  0.1171 -0.2333 -0.7987
  152DOPC   H8R18199   3.428   3.135  16.437 -0.6495 -0.2454  0.9686
  152DOPC   H8S18200   3.599   3.070  16.447  1.5924  0.7157 -0.0781
  152DOPC   C2918201   3.574   3.294  16.450  0.4731  0.3097 -0.5578
  152DOPC   H9R18202   3.676   3.322  16.479  1.1982 -1.4579 -1.2705
  152DOPC  C21018203   3.498   3.395  16.405  0.0220  0.6082  0.1041
  152DOPC  H10R18204   3.541   3.496  16.398 -0.0312  0.6695  0.6115
  152DOPC  C21118205   3.361   3.389  16.366  0.8416  0.5684  0.1670
  152DOPC  H11R18206   3.324   3.493  16.351 -1.9482 -0.5189 -1.3987
  152DOPC  H11S18207   3.299   3.357  16.453  2.2049  0.2482  1.0386
  152DOPC  C21218208   3.314   3.314  16.235  0.7522  0.3083  0.1508
  152DOPC  H12R18209   3.206   3.291  16.251  0.4298  1.6158 -0.0538
  152DOPC  H12S18210   3.367   3.217  16.225 -0.6015 -0.9202  3.6013
  152DOPC  C21318211   3.331   3.411  16.116 -0.0356 -1.1421 -0.1414
  152DOPC  H13R18212   3.437   3.436  16.093 -0.8044  0.3729 -2.3421
  152DOPC  H13S18213   3.281   3.509  16.135 -0.0147 -1.1148 -0.2293
  152DOPC  C21418214   3.270   3.352  15.987  0.1761 -0.2054  0.0521
  152DOPC  H14R18215   3.160   3.351  16.001  0.3695 -2.2416  1.9231
  152DOPC  H14S18216   3.303   3.247  15.976 -2.9467 -1.1549 -1.4096
  152DOPC  C21518217   3.303   3.426  15.864 -0.3344  0.2672 -0.2541
  152DOPC  H15R18218   3.413   3.431  15.851 -0.4885  2.3444 -1.1874
  152DOPC  H15S18219   3.291   3.536  15.877  2.3822  0.6500 -0.4980
  152DOPC  C21618220   3.246   3.382  15.733 -0.0345  0.1285  0.5227
  152DOPC  H16R18221   3.281   3.455  15.657 -0.3020 -0.1856  0.0975
  152DOPC  H16S18222   3.137   3.402  15.746  0.0664  1.6049 -0.6364
  152DOPC  C21718223   3.265   3.243  15.698 -0.6700  0.2249 -0.0977
  152DOPC  H17R18224   3.214   3.177  15.772  0.0618 -1.0847 -0.7265
  152DOPC  H17S18225   3.373   3.216  15.699 -0.5761  0.5725  1.4604
  152DOPC  C21818226   3.213   3.210  15.552 -0.2323  0.1534 -0.2521
  152DOPC  H18R18227   3.104   3.226  15.538  0.1204  1.6157 -1.8140
  152DOPC  H18S18228   3.231   3.100  15.549  0.2945  0.2501 -1.8862
  152DOPC  H18T18229   3.260   3.277  15.476 -2.5968  0.4782 -1.5380
  152DOPC   C3318230   2.841   2.734  16.986  0.1050  0.3955 -0.0478
  152DOPC   H3X18231   2.781   2.641  16.998  1.7837 -0.9961 -1.7252
  152DOPC   H3Y18232   2.939   2.683  16.972 -0.3149  0.2162 -3.3521
  152DOPC   C3418233   2.820   2.785  16.843  0.3309  0.5177  0.0223
  152DOPC   H4X18234   2.905   2.855  16.825 -1.7393  2.8907 -1.1495
  152DOPC   H4Y18235   2.726   2.844  16.840  0.9039  1.5156  0.9841
  152DOPC   C3518236   2.823   2.667  16.737 -0.3455 -0.0723  0.7570
  152DOPC   H5X18237   2.729   2.608  16.743 -1.1868  0.8370 -1.9705
  152DOPC   H5Y18238   2.913   2.604  16.753  0.6006  0.8087 -0.8680
  152DOPC   C3618239   2.841   2.727  16.593 -0.2421  0.0584 -0.4019
  152DOPC   H6X18240   2.810   2.650  16.519 -2.5654 -0.4752  0.9981
  152DOPC   H6Y18241   2.780   2.819  16.583  0.3065  0.3626 -1.0476
  152DOPC   C3718242   2.984   2.754  16.561 -0.1216 -0.0565  0.0617
  152DOPC   H7X18243   3.016   2.852  16.600  0.9417 -0.1700 -0.5032
  152DOPC   H7Y18244   3.048   2.683  16.618 -1.7260 -1.5228  0.1420
  152DOPC   C3818245   3.018   2.745  16.413 -0.0020  0.1776  0.7668
  152DOPC   H8X18246   2.946   2.809  16.358  0.8674  1.2474  0.8466
  152DOPC   H8Y18247   3.006   2.642  16.373  2.1097  0.9490 -2.1148
  152DOPC   C3918248   3.157   2.787  16.387 -0.3879  0.8194 -0.1650
  152DOPC   H9X18249   3.239   2.721  16.416 -0.3767  0.3652 -1.1643
  152DOPC  C31018250   3.191   2.914  16.345 -0.3485 -0.2990  0.5694
  152DOPC  H10X18251   3.300   2.930  16.338  0.1221 -1.2696  3.8153
  152DOPC  C31118252   3.105   3.033  16.308 -0.0924  0.5707 -0.0728
  152DOPC  H11X18253   3.136   3.120  16.370  1.6590  1.0751 -1.5479
  152DOPC  H11Y18254   3.002   3.013  16.343 -0.5938 -1.7090 -2.5455
  152DOPC  C31218255   3.094   3.067  16.155  0.3964 -0.2763  0.3619
  152DOPC  H12X18256   3.189   3.081  16.100  0.1013  1.9913  0.3384
  152DOPC  H12Y18257   3.051   3.169  16.150 -0.9097 -0.8593 -0.8403
  152DOPC  C31318258   2.999   2.967  16.091 -0.1562 -0.5972 -0.5062
  152DOPC  H13X18259   3.030   2.861  16.088 -0.8703 -0.8622  0.6629
  152DOPC  H13Y18260   2.908   2.956  16.154  0.2154 -0.6408  0.0283
  152DOPC  C31418261   2.975   3.007  15.946  0.0982  0.6117  0.0490
  152DOPC  H14X18262   3.068   2.987  15.888  1.4400 -0.2398  2.3483
  152DOPC  H14Y18263   2.894   2.938  15.914 -0.8089  1.0495  1.3466
  152DOPC  C31518264   2.916   3.148  15.934 -0.7407  0.3482 -0.2034
  152DOPC  H15X18265   2.991   3.222  15.971  0.8448 -0.4027 -1.7225
  152DOPC  H15Y18266   2.830   3.153  16.003  0.9445 -0.6790  2.1054
  152DOPC  C31618267   2.886   3.179  15.785 -0.6151  0.1707 -0.0948
  152DOPC  H16X18268   2.976   3.183  15.720 -0.1704  1.9566  0.5715
  152DOPC  H16Y18269   2.828   3.094  15.743  1.5148 -1.8201  0.7994
  152DOPC  C31718270   2.795   3.304  15.762  0.0536  0.4986  0.4068
  152DOPC  H17X18271   2.703   3.294  15.823 -0.4312  0.0863 -0.3809
  152DOPC  H17Y18272   2.848   3.399  15.783 -1.3492  2.0458 -2.5625
  152DOPC  C31818273   2.740   3.310  15.616 -0.3797 -0.4349  0.0861
  152DOPC  H18X18274   2.679   3.403  15.606  2.1045  1.2596 -0.2363
  152DOPC  H18Y18275   2.816   3.308  15.536 -0.4054 -0.2620  0.0565
  152DOPC  H18Z18276   2.670   3.225  15.605  0.0040 -0.9155  1.1939
  153DOPC     N18277   3.492   7.326  17.293  0.4893  0.3461 -0.9708
  153DOPC   C1218278   3.521   7.432  17.193  0.4526  0.1556  1.1239
  153DOPC  H12A18279   3.489   7.523  17.241 -0.5395  1.1116 -1.2013
  153DOPC  H12B18280   3.460   7.419  17.105 -1.5692  0.0218  2.4797
  153DOPC   C1318281   3.337   7.312  17.308 -0.2436 -0.4303 -0.0676
  153DOPC  H13A18282   3.321   7.239  17.387  2.6575  0.3789  1.4488
  153DOPC  H13B18283   3.290   7.403  17.344  2.1920  0.2516  1.6936
  153DOPC  H13C18284   3.297   7.279  17.214  2.7781 -2.9515 -0.6360
  153DOPC   C1418285   3.557   7.354  17.424  0.0546  0.0647  0.6416
  153DOPC  H14A18286   3.516   7.448  17.456 -0.1169 -0.3931  1.7968
  153DOPC  H14B18287   3.511   7.294  17.501  0.0230  0.8189  1.2276
  153DOPC  H14C18288   3.665   7.364  17.421  0.0723 -0.2618 -0.2132
  153DOPC   C1518289   3.535   7.191  17.244 -0.1518 -0.1832 -0.1357
  153DOPC  H15A18290   3.475   7.159  17.160 -0.9905 -1.3837  0.8964
  153DOPC  H15B18291   3.514   7.119  17.321 -0.4771  1.3090  1.2349
  153DOPC  H15C18292   3.641   7.190  17.222 -0.3044 -0.7496 -0.8832
  153DOPC   C1118293   3.662   7.459  17.147 -0.0189 -0.6943 -0.0893
  153DOPC  H11A18294   3.702   7.366  17.102 -0.4295 -0.5957 -0.6641
  153DOPC  H11B18295   3.665   7.531  17.063 -1.8684 -0.5767 -0.0967
  153DOPC     P18296   3.766   7.635  17.308  0.2209  0.0552  0.1424
  153DOPC   O1318297   3.834   7.640  17.436  0.0667 -0.3045 -0.6161
  153DOPC   O1418298   3.628   7.687  17.301 -0.3702  0.1095  0.6942
  153DOPC   O1218299   3.754   7.484  17.250  0.1852 -0.5655 -0.2826
  153DOPC   O1118300   3.841   7.720  17.204  0.1230 -0.2840  0.1316
  153DOPC    C118301   3.981   7.688  17.170  0.4431 -0.5948  0.8100
  153DOPC    HA18302   4.002   7.582  17.196 -1.6798 -1.6492 -1.3404
  153DOPC    HB18303   4.051   7.751  17.228 -0.0970  1.3116 -0.5298
  153DOPC    C218304   4.008   7.718  17.021  0.3209 -0.0522  0.2572
  153DOPC    HS18305   4.112   7.684  17.002  0.3342  0.8065 -1.4239
  153DOPC   O2118306   3.998   7.855  16.982 -0.5557  0.1300 -0.1606
  153DOPC   C2118307   4.092   7.930  17.012  0.7058 -0.6818 -0.3637
  153DOPC   O2218308   4.188   7.909  17.084  0.0164  0.0071 -0.2757
  153DOPC   C2218309   4.055   8.065  16.941 -0.2723  0.3147 -0.0766
  153DOPC   H2R18310   4.118   8.141  16.992 -0.7555  0.5934  0.1079
  153DOPC   H2S18311   3.948   8.087  16.962 -0.5605  0.4511 -1.5790
  153DOPC    C318312   3.912   7.635  16.924 -0.4358  0.0600  0.4727
  153DOPC    HX18313   3.803   7.655  16.926 -0.5095 -0.2825 -0.1819
  153DOPC    HY18314   3.934   7.532  16.959  3.5019  0.4351 -0.4244
  153DOPC   O3118315   3.968   7.634  16.793 -0.1799  0.2102  0.0785
  153DOPC   C3118316   3.901   7.709  16.704 -0.2546 -0.3600  0.1926
  153DOPC   O3218317   3.792   7.765  16.719 -0.1887 -0.0473 -0.2252
  153DOPC   C3218318   3.996   7.706  16.581  0.6051  0.2358  0.7043
  153DOPC   H2X18319   4.077   7.781  16.595 -0.8135  1.5740  2.3037
  153DOPC   H2Y18320   4.035   7.603  16.573  0.7410  0.2111  1.5579
  153DOPC   C2318321   4.081   8.060  16.789 -0.3852  0.5091  0.3777
  153DOPC   H3R18322   4.005   7.999  16.736 -1.5385  0.6133  1.8712
  153DOPC   H3S18323   4.177   8.009  16.766 -1.5825 -1.4945 -0.4957
  153DOPC   C2418324   4.078   8.204  16.732  0.1888  0.2788 -0.3529
  153DOPC   H4R18325   4.174   8.250  16.764  1.1884 -0.9959 -1.3680
  153DOPC   H4S18326   3.988   8.253  16.774 -0.8461 -2.6884  1.2031
  153DOPC   C2518327   4.077   8.210  16.579  0.0305 -0.1571  0.4527
  153DOPC   H5R18328   4.078   8.316  16.547 -2.5289 -0.4479 -0.8622
  153DOPC   H5S18329   3.982   8.165  16.540  0.6505 -0.7693 -0.3883
  153DOPC   C2618330   4.201   8.136  16.525 -0.4655 -0.1952  0.2330
  153DOPC   H6R18331   4.185   8.028  16.545  0.6897 -0.1558  1.5271
  153DOPC   H6S18332   4.300   8.162  16.570  0.2551 -1.3732 -0.6085
  153DOPC   C2718333   4.217   8.145  16.374  0.4386  0.1095 -0.6385
  153DOPC   H7R18334   4.222   8.255  16.356  1.2280 -0.3956 -4.3234
  153DOPC   H7S18335   4.125   8.111  16.322  1.4452 -2.5810 -0.7854
  153DOPC   C2818336   4.339   8.083  16.317 -0.5968  1.3117  0.2617
  153DOPC   H8R18337   4.317   7.975  16.301 -0.7092  1.4241 -0.3515
  153DOPC   H8S18338   4.415   8.085  16.398 -2.5253  0.0276  2.2246
  153DOPC   C2918339   4.398   8.143  16.193 -0.8835  0.0362  0.0367
  153DOPC   H9R18340   4.406   8.253  16.203 -0.2662  0.0091 -0.1307
  153DOPC  C21018341   4.427   8.080  16.071 -0.0773 -0.8444 -0.1179
  153DOPC  H10R18342   4.469   8.135  15.985 -1.7742 -1.8353 -1.6222
  153DOPC  C21118343   4.423   7.933  16.046  0.4885  0.0319  0.0762
  153DOPC  H11R18344   4.318   7.909  16.075  0.8315  0.8902  2.2373
  153DOPC  H11S18345   4.491   7.879  16.115 -0.2066 -0.0117  0.7460
  153DOPC  C21218346   4.442   7.872  15.903  0.3786 -0.0433 -0.1685
  153DOPC  H12R18347   4.364   7.913  15.835  0.0811 -0.0840  0.1458
  153DOPC  H12S18348   4.425   7.762  15.899  0.0763  0.0097 -0.4202
  153DOPC  C21318349   4.576   7.900  15.844 -0.0296  0.1797  0.1580
  153DOPC  H13R18350   4.644   7.833  15.899  0.4229  0.9308  0.5384
  153DOPC  H13S18351   4.601   8.005  15.872  0.6869  0.0128  0.1595
  153DOPC  C21418352   4.581   7.880  15.687 -0.1728 -0.8064 -0.5654
  153DOPC  H14R18353   4.526   7.962  15.636  3.1114  1.0804 -1.3563
  153DOPC  H14S18354   4.526   7.785  15.669  0.6629 -1.2923 -0.6217
  153DOPC  C21518355   4.721   7.872  15.631 -0.1009 -0.1596  0.1901
  153DOPC  H15R18356   4.773   7.968  15.655  1.5286 -0.1117 -2.9200
  153DOPC  H15S18357   4.705   7.885  15.522  2.3164  1.4555 -0.0489
  153DOPC  C21618358   4.803   7.747  15.661 -0.0807 -0.9094  0.2991
  153DOPC  H16R18359   4.762   7.657  15.609  3.5627 -0.4484 -3.9262
  153DOPC  H16S18360   4.804   7.723  15.770  0.6607 -0.2594  0.4414
  153DOPC  C21718361   4.947   7.760  15.602 -0.3661  0.0382 -1.1007
  153DOPC  H17R18362   4.990   7.858  15.632 -0.6896 -0.0478 -0.3325
  153DOPC  H17S18363   4.936   7.764  15.491  0.3794  0.6672 -1.1561
  153DOPC  C21818364   5.032   7.642  15.652 -0.2946  0.1891  0.1152
  153DOPC  H18R18365   5.020   7.624  15.761 -1.8647  0.7976  0.0675
  153DOPC  H18S18366   5.138   7.666  15.628 -0.5249 -0.2120 -1.4232
  153DOPC  H18T18367   4.999   7.545  15.607  1.9612 -0.0188 -1.2475
  153DOPC   C3318368   3.916   7.752  16.453  0.5306 -0.2621 -0.1371
  153DOPC   H3X18369   3.876   7.853  16.475  0.1052 -0.2224 -1.0312
  153DOPC   H3Y18370   3.821   7.698  16.431  1.0094 -0.3909 -2.0897
  153DOPC   C3418371   4.003   7.752  16.325  1.5085 -0.2989  0.4613
  153DOPC   H4X18372   4.026   7.644  16.307 -1.3453 -0.8929 -0.1585
  153DOPC   H4Y18373   4.088   7.823  16.329  0.2947  1.2235 -0.1734
  153DOPC   C3518374   3.918   7.807  16.207  0.6800  0.3962  0.0017
  153DOPC   H5X18375   3.886   7.911  16.231 -0.4961  0.6961 -2.5220
  153DOPC   H5Y18376   3.831   7.738  16.204 -0.3070  1.6041 -0.4528
  153DOPC   C3618377   3.991   7.815  16.076 -0.3472  0.6280  0.4964
  153DOPC   H6X18378   3.924   7.861  16.001  0.8917  1.4913 -0.1218
  153DOPC   H6Y18379   4.080   7.882  16.072 -0.1060  0.2438 -0.9764
  153DOPC   C3718380   4.048   7.680  16.031  0.2118  0.8590  0.1322
  153DOPC   H7X18381   4.130   7.670  16.105 -0.7104  0.2729  1.0999
  153DOPC   H7Y18382   3.977   7.595  16.041  1.7234 -0.5765 -0.7879
  153DOPC   C3818383   4.104   7.684  15.885 -0.1302  0.0876 -0.0387
  153DOPC   H8X18384   4.182   7.608  15.862 -0.8583  0.4245 -4.8173
  153DOPC   H8Y18385   4.160   7.779  15.870  1.0851 -0.4519  0.9520
  153DOPC   C3918386   3.990   7.681  15.787  0.3127  0.6038 -0.1054
  153DOPC   H9X18387   3.934   7.774  15.805  1.0443  0.8363  1.0925
  153DOPC  C31018388   3.954   7.596  15.692 -0.8300  0.2346 -0.3347
  153DOPC  H10X18389   3.861   7.613  15.636 -0.8870 -0.4884 -0.4695
  153DOPC  C31118390   4.039   7.472  15.672  0.6940 -0.7096  0.6686
  153DOPC  H11X18391   4.015   7.398  15.751  0.1316  1.5563  2.7327
  153DOPC  H11Y18392   4.150   7.482  15.680  0.7812 -2.1085  1.5253
  153DOPC  C31218393   4.002   7.413  15.533 -0.0829 -0.0789  0.7264
  153DOPC  H12X18394   4.020   7.485  15.449  0.3711 -2.9143 -1.7667
  153DOPC  H12Y18395   3.893   7.396  15.537  0.0477 -1.3690 -0.4761
  153DOPC  C31318396   4.075   7.282  15.515  1.0966  0.5666 -1.2026
  153DOPC  H13X18397   4.178   7.277  15.555  0.6943 -1.4243 -0.2813
  153DOPC  H13Y18398   4.013   7.207  15.568  0.4443 -0.2169 -2.9774
  153DOPC  C31418399   4.082   7.249  15.369 -0.1830 -0.3922 -0.4124
  153DOPC  H14X18400   3.991   7.286  15.317  1.0792  2.0236 -1.0295
  153DOPC  H14Y18401   4.166   7.307  15.325 -0.9269 -0.8211 -2.5251
  153DOPC  C31518402   4.095   7.097  15.338  0.3754  0.2192 -0.2272
  153DOPC  H15X18403   4.017   7.038  15.390  0.0856  0.3187 -0.5422
  153DOPC  H15Y18404   4.194   7.076  15.383  1.4108  2.7255 -1.1344
  153DOPC  C31618405   4.104   7.056  15.193 -1.6554  0.5549 -0.3757
  153DOPC  H16X18406   4.121   6.946  15.186 -0.0501  0.6343  1.3626
  153DOPC  H16Y18407   4.015   7.089  15.136 -2.4537  0.6707  0.8956
  153DOPC  C31718408   4.224   7.114  15.121 -0.2367  1.0640 -0.7340
  153DOPC  H17X18409   4.207   7.221  15.097 -1.7523  1.0077 -0.0279
  153DOPC  H17Y18410   4.310   7.106  15.192 -1.2527  0.9132  0.5201
  153DOPC  C31818411   4.240   7.040  14.978 -0.7278  0.2521 -0.5485
  153DOPC  H18X18412   4.271   6.933  14.980  0.0037  0.4340 -1.6671
  153DOPC  H18Y18413   4.138   7.044  14.934 -0.7842  2.7079 -0.3111
  153DOPC  H18Z18414   4.315   7.104  14.928 -0.6121  1.7400  1.3943
  154DOPC     N18415   6.135   4.540  17.166  0.2677 -0.3415 -0.0140
  154DOPC   C1218416   6.074   4.660  17.092 -0.1127 -0.0263 -0.1078
  154DOPC  H12A18417   5.967   4.661  17.105 -0.0978 -1.6387  0.3251
  154DOPC  H12B18418   6.092   4.645  16.986  0.3634  1.0654 -0.1970
  154DOPC   C1318419   6.117   4.555  17.310 -0.0198 -0.1093 -0.3819
  154DOPC  H13A18420   6.164   4.471  17.360  0.2743  1.4598  2.1397
  154DOPC  H13B18421   6.148   4.652  17.344 -2.5042  0.7082 -0.2323
  154DOPC  H13C18422   6.013   4.553  17.341 -0.0653 -1.2680 -0.5470
  154DOPC   C1418423   6.272   4.521  17.130  0.1134  0.2887  0.1760
  154DOPC  H14A18424   6.286   4.501  17.025  0.8360  0.5704  0.2151
  154DOPC  H14B18425   6.323   4.613  17.153  1.5242 -0.1433 -1.1216
  154DOPC  H14C18426   6.313   4.445  17.194  3.5083  2.6478  1.0703
  154DOPC   C1518427   6.067   4.412  17.123 -0.1792  0.2194 -0.3261
  154DOPC  H15A18428   6.069   4.383  17.019  2.8263 -3.5827  0.5429
  154DOPC  H15B18429   5.962   4.409  17.147 -0.0251  0.3079  0.3756
  154DOPC  H15C18430   6.104   4.324  17.174 -2.1245 -0.5301 -0.1490
  154DOPC   C1118431   6.128   4.802  17.127  0.3960 -0.2426 -0.2549
  154DOPC  H11A18432   6.053   4.868  17.078  0.5686 -0.5255 -0.9210
  154DOPC  H11B18433   6.120   4.815  17.237  1.8910 -1.0572 -0.0304
  154DOPC     P18434   6.308   4.965  17.056 -0.2321  0.3347 -0.1039
  154DOPC   O1318435   6.444   4.947  17.002  0.2566  0.0560 -0.0578
  154DOPC   O1418436   6.298   5.046  17.176 -0.2283  0.6060 -0.4579
  154DOPC   O1218437   6.253   4.823  17.069 -0.8061 -0.2976 -0.0678
  154DOPC   O1118438   6.214   5.030  16.947 -0.4485  0.2367 -0.5877
  154DOPC    C118439   6.199   4.970  16.821 -0.2304  0.0738  0.3244
  154DOPC    HA18440   6.096   4.977  16.781 -0.5850 -0.7163  1.0562
  154DOPC    HB18441   6.224   4.862  16.816 -0.5945 -0.1078  1.9329
  154DOPC    C218442   6.279   5.050  16.712 -0.0775 -0.0031 -1.5163
  154DOPC    HS18443   6.378   5.065  16.758 -1.2605 -0.2560  1.2694
  154DOPC   O2118444   6.207   5.179  16.695 -0.8438 -0.2594 -0.6549
  154DOPC   C2118445   6.272   5.269  16.623 -0.8567  0.9564 -0.3890
  154DOPC   O2218446   6.390   5.262  16.590  0.7252 -0.4290 -0.1196
  154DOPC   C2218447   6.171   5.378  16.584 -0.4470 -0.4904 -0.2396
  154DOPC   H2R18448   6.211   5.471  16.630 -0.5630 -1.8539  2.8726
  154DOPC   H2S18449   6.072   5.357  16.630  0.4442 -2.0059  1.0838
  154DOPC    C318450   6.293   4.964  16.585  0.5791 -0.4475  0.0369
  154DOPC    HX18451   6.191   4.936  16.555 -0.6759  1.1724  2.4012
  154DOPC    HY18452   6.344   4.871  16.618  0.0291 -0.1344  1.9239
  154DOPC   O3118453   6.359   5.032  16.469  0.1610 -0.0454 -0.0505
  154DOPC   C3118454   6.489   5.032  16.468  0.5348  0.0502  0.1767
  154DOPC   O3218455   6.562   4.964  16.537 -0.2958  0.4337 -0.3587
  154DOPC   C3218456   6.538   5.117  16.346  0.1980  0.0231 -0.1820
  154DOPC   H2X18457   6.518   5.224  16.369  2.7492  0.1461  1.8990
  154DOPC   H2Y18458   6.648   5.115  16.362  0.1446  0.6207  0.2894
  154DOPC   C2318459   6.166   5.397  16.435 -0.9744  0.0156 -0.8358
  154DOPC   H3R18460   6.263   5.433  16.394  0.4204 -3.2337 -0.6758
  154DOPC   H3S18461   6.097   5.481  16.411 -2.8130 -1.2426 -0.1918
  154DOPC   C2418462   6.125   5.277  16.350 -0.0430 -0.1230  0.1426
  154DOPC   H4R18463   6.026   5.246  16.389 -0.3781  0.1485 -0.4737
  154DOPC   H4S18464   6.201   5.196  16.352  1.1561  0.7922 -2.4549
  154DOPC   C2518465   6.098   5.309  16.208 -0.4083  0.4464  0.4736
  154DOPC   H5R18466   6.178   5.372  16.164  0.7540 -0.3568  1.3527
  154DOPC   H5S18467   6.001   5.362  16.202 -0.0525  0.9133 -1.8819
  154DOPC   C2618468   6.080   5.186  16.124  0.8822  0.0286 -0.3752
  154DOPC   H6R18469   5.989   5.128  16.149  1.0718 -0.0806  0.0767
  154DOPC   H6S18470   6.162   5.116  16.150  1.2624  0.3640 -0.6535
  154DOPC   C2718471   6.064   5.216  15.977  0.8218  0.8302  0.2567
  154DOPC   H7R18472   6.150   5.271  15.934  0.6924  0.3235 -0.6697
  154DOPC   H7S18473   5.970   5.276  15.978  0.2127 -0.0433  2.8858
  154DOPC   C2818474   6.039   5.080  15.900  0.4984  0.1909 -0.2425
  154DOPC   H8R18475   6.011   5.107  15.796  0.7606  0.2559 -0.2986
  154DOPC   H8S18476   5.949   5.034  15.945  0.1553  0.8710 -0.2173
  154DOPC   C2918477   6.154   4.981  15.899 -0.5749  0.1358  0.3771
  154DOPC   H9R18478   6.170   4.945  16.001 -0.0602 -0.0523  0.2370
  154DOPC  C21018479   6.217   4.925  15.795 -0.0948 -0.5178  0.1816
  154DOPC  H10R18480   6.289   4.844  15.812  3.1997  1.5849 -2.4625
  154DOPC  C21118481   6.189   4.966  15.650 -0.9788 -0.2329 -0.0507
  154DOPC  H11R18482   6.282   5.010  15.609 -0.6885  0.5017  1.3426
  154DOPC  H11S18483   6.103   5.036  15.642 -1.7797 -1.0245  1.2374
  154DOPC  C21218484   6.168   4.847  15.560  0.5224  0.3918 -0.2604
  154DOPC  H12R18485   6.135   4.881  15.460  0.0261  1.2036  0.1753
  154DOPC  H12S18486   6.084   4.788  15.602 -1.0979  1.4553 -1.8784
  154DOPC  C21318487   6.286   4.757  15.533  0.1315 -0.5637  0.0142
  154DOPC  H13R18488   6.262   4.660  15.582  1.4687 -0.4416  0.9830
  154DOPC  H13S18489   6.372   4.809  15.580 -0.4169 -0.4015  0.8602
  154DOPC  C21418490   6.304   4.742  15.383  0.2410 -0.1627  0.0265
  154DOPC  H14R18491   6.319   4.841  15.334  1.3605 -0.3417 -0.0245
  154DOPC  H14S18492   6.211   4.694  15.346  0.3504 -0.1161 -0.3201
  154DOPC  C21518493   6.418   4.643  15.359 -0.0888 -0.0950 -1.0679
  154DOPC  H15R18494   6.392   4.553  15.418 -1.8331  1.9599  1.5137
  154DOPC  H15S18495   6.505   4.689  15.410 -1.3283  2.3799 -1.0337
  154DOPC  C21618496   6.434   4.599  15.211 -0.1830  0.0763  0.1496
  154DOPC  H16R18497   6.472   4.685  15.151 -1.1779  0.9170  0.6795
  154DOPC  H16S18498   6.333   4.569  15.174  0.4145  0.6115 -2.1069
  154DOPC  C21718499   6.539   4.495  15.187 -0.2722  0.4502  0.1240
  154DOPC  H17R18500   6.507   4.410  15.252  1.5852 -0.4983 -0.1209
  154DOPC  H17S18501   6.638   4.532  15.224  0.3643  0.0777 -1.1696
  154DOPC  C21818502   6.555   4.440  15.046  0.0604  0.0862  0.3476
  154DOPC  H18R18503   6.628   4.356  15.048  0.9654  0.8308 -0.4411
  154DOPC  H18S18504   6.593   4.521  14.981 -2.6831  1.4104  0.2438
  154DOPC  H18T18505   6.454   4.406  15.012 -0.4851  1.5032  0.5095
  154DOPC   C3318506   6.504   5.078  16.201 -0.9717  0.5299 -0.3170
  154DOPC   H3X18507   6.393   5.080  16.199 -1.0620 -0.4427  1.2287
  154DOPC   H3Y18508   6.546   4.978  16.178  1.3155  1.9170 -2.7271
  154DOPC   C3418509   6.562   5.175  16.097 -0.3686  0.7319 -0.3059
  154DOPC   H4X18510   6.668   5.201  16.117 -0.1040  0.2552 -1.0255
  154DOPC   H4Y18511   6.513   5.274  16.104  0.4801  1.0909  0.9904
  154DOPC   C3518512   6.549   5.123  15.951  0.4138  1.1241  0.0708
  154DOPC   H5X18513   6.447   5.086  15.926 -0.2670  2.3740  0.8938
  154DOPC   H5Y18514   6.604   5.027  15.949  1.9922  1.8989  2.3367
  154DOPC   C3618515   6.575   5.232  15.842 -0.5052  0.0341  0.3939
  154DOPC   H6X18516   6.497   5.306  15.871 -1.2510 -0.2596 -0.7875
  154DOPC   H6Y18517   6.674   5.282  15.847  0.1217 -1.2382  1.1583
  154DOPC   C3718518   6.539   5.197  15.697 -0.0583  0.6086 -0.4017
  154DOPC   H7X18519   6.428   5.192  15.690 -0.0478 -2.0024  0.0043
  154DOPC   H7Y18520   6.576   5.279  15.632  1.0207 -0.2388 -0.8972
  154DOPC   C3818521   6.597   5.069  15.646  0.4558  0.1827 -0.1665
  154DOPC   H8X18522   6.568   4.987  15.716  0.5826 -0.7330 -1.1606
  154DOPC   H8Y18523   6.708   5.074  15.650  0.4936 -0.1664 -0.6594
  154DOPC   C3918524   6.558   5.044  15.506 -0.0474  0.5343  0.4621
  154DOPC   H9X18525   6.456   5.005  15.491 -0.0867  0.3596  1.1518
  154DOPC  C31018526   6.634   5.054  15.394  0.2371  0.1229  0.4073
  154DOPC  H10X18527   6.590   5.020  15.299  0.8096 -1.9001  0.8184
  154DOPC  C31118528   6.778   5.100  15.388  0.3487  0.1358  0.4685
  154DOPC  H11X18529   6.812   5.142  15.485  0.1808  0.1294  0.5301
  154DOPC  H11Y18530   6.800   5.181  15.316 -0.8283 -1.2350 -1.5394
  154DOPC  C31218531   6.881   4.993  15.343  0.5135  0.2633  0.3023
  154DOPC  H12X18532   6.862   4.896  15.391 -1.0734 -0.3584 -1.4462
  154DOPC  H12Y18533   6.977   5.034  15.381  0.3279  1.9961 -0.9438
  154DOPC  C31318534   6.895   4.974  15.189  0.1502 -0.3720  0.3521
  154DOPC  H13X18535   6.796   4.977  15.138 -0.4074 -0.3030  1.3914
  154DOPC  H13Y18536   6.946   5.064  15.151  0.9383  0.0650  2.3029
  154DOPC  C31418537   6.966   4.851  15.149 -0.5231  0.0128 -0.3160
  154DOPC  H14X18538   7.015   4.858  15.049 -0.1167 -2.4285 -0.3325
  154DOPC  H14Y18539   7.052   4.852  15.219 -0.5297 -0.5097 -0.2971
  154DOPC  C31518540   6.871   4.732  15.156  0.6612  0.1540  0.1319
  154DOPC  H15X18541   6.781   4.762  15.098  0.9860 -0.6204 -0.8059
  154DOPC  H15Y18542   6.836   4.722  15.260 -1.0826  0.8809 -0.3460
  154DOPC  C31618543   6.927   4.609  15.088  0.0642 -0.5655 -0.8554
  154DOPC  H16X18544   6.844   4.536  15.075 -1.1612  0.4132  1.0667
  154DOPC  H16Y18545   6.936   4.635  14.981  3.9726  0.5986 -0.3909
  154DOPC  C31718546   7.061   4.561  15.149  0.0291  0.1043 -0.3101
  154DOPC  H17X18547   7.133   4.646  15.143 -0.0688  0.1484 -0.9782
  154DOPC  H17Y18548   7.043   4.535  15.255  1.8348  1.7096  0.4573
  154DOPC  C31818549   7.115   4.433  15.085  0.2294  0.7226 -0.5930
  154DOPC  H18X18550   7.043   4.352  15.107  1.9785 -0.7738 -0.2140
  154DOPC  H18Y18551   7.143   4.439  14.977 -1.0997 -1.7318 -1.1421
  154DOPC  H18Z18552   7.210   4.407  15.136 -0.3462  0.0820  0.1683
  155DOPC     N18553   1.233   3.920  17.686  0.4366  0.3741 -0.0389
  155DOPC   C1218554   1.166   3.839  17.576 -0.3139 -0.2986 -0.3211
  155DOPC  H12A18555   1.134   3.905  17.498  2.3117 -1.2020 -2.3064
  155DOPC  H12B18556   1.083   3.789  17.623  0.1018 -0.9645 -0.2798
  155DOPC   C1318557   1.135   4.019  17.744  0.3572  0.4927 -0.1244
  155DOPC  H13A18558   1.190   4.086  17.808  1.0074  1.4798 -1.6753
  155DOPC  H13B18559   1.099   4.080  17.663  0.7813  2.0073  0.7837
  155DOPC  H13C18560   1.052   3.971  17.793  0.8426 -1.6922 -1.3028
  155DOPC   C1418561   1.348   3.994  17.638 -0.3101 -0.1144  0.2808
  155DOPC  H14A18562   1.413   3.936  17.574 -0.4029 -0.3415  0.3897
  155DOPC  H14B18563   1.317   4.080  17.580  0.1070 -1.1074 -1.4567
  155DOPC  H14C18564   1.411   4.042  17.712 -1.6863  1.2693  0.5994
  155DOPC   C1518565   1.276   3.830  17.798 -0.1607  0.1221 -0.3575
  155DOPC  H15A18566   1.335   3.748  17.759 -0.2732  0.6948 -1.8157
  155DOPC  H15B18567   1.191   3.771  17.830  1.2578 -2.2894 -0.7416
  155DOPC  H15C18568   1.332   3.883  17.874  2.2661 -1.1162 -1.1597
  155DOPC   C1118569   1.242   3.722  17.499  0.3554 -0.2635  0.1941
  155DOPC  H11A18570   1.171   3.686  17.422 -0.0290  0.7603  0.0563
  155DOPC  H11B18571   1.336   3.744  17.443 -0.0189 -0.3346 -0.4651
  155DOPC     P18572   1.238   3.470  17.592 -0.4871  0.0408 -0.1738
  155DOPC   O1318573   1.114   3.470  17.673 -0.0575 -0.5045  0.2670
  155DOPC   O1418574   1.357   3.398  17.644 -0.6050 -0.1275 -0.1515
  155DOPC   O1218575   1.283   3.618  17.586  0.4704 -0.3933 -0.1512
  155DOPC   O1118576   1.215   3.428  17.443  0.5540  0.3214 -0.8580
  155DOPC    C118577   1.314   3.440  17.344  0.0030 -0.2042 -0.1287
  155DOPC    HA18578   1.357   3.341  17.321 -1.4118 -0.6950 -0.7777
  155DOPC    HB18579   1.397   3.500  17.387  0.0055  0.4245 -0.9913
  155DOPC    C218580   1.273   3.504  17.211 -0.0008 -0.7394  0.3608
  155DOPC    HS18581   1.222   3.602  17.224 -1.7693 -1.6190  0.4204
  155DOPC   O2118582   1.179   3.416  17.147  0.3096  0.0436 -0.3695
  155DOPC   C2118583   1.056   3.431  17.192  0.7450 -0.2358  0.7838
  155DOPC   O2218584   1.019   3.517  17.268 -0.4889 -0.5043 -0.2457
  155DOPC   C2218585   0.956   3.332  17.129 -0.3567 -0.1816  0.0881
  155DOPC   H2R18586   0.920   3.363  17.029  0.6302 -0.3329 -0.3262
  155DOPC   H2S18587   0.875   3.323  17.205  0.3865 -1.4057  0.7679
  155DOPC    C318588   1.388   3.526  17.114 -0.1215  0.0594  0.1040
  155DOPC    HX18589   1.361   3.548  17.008  1.9846  0.9785 -0.2841
  155DOPC    HY18590   1.438   3.428  17.105  1.1326  0.8487 -2.2510
  155DOPC   O3118591   1.493   3.614  17.164 -0.2278  0.3255  0.1585
  155DOPC   C3118592   1.479   3.746  17.131 -0.3894 -0.4192  0.6626
  155DOPC   O3218593   1.373   3.800  17.105 -0.4164 -0.2496  0.3385
  155DOPC   C3218594   1.616   3.810  17.121  0.6943 -0.5799 -0.6167
  155DOPC   H2X18595   1.630   3.837  17.228  0.0177 -1.0506 -0.3988
  155DOPC   H2Y18596   1.696   3.735  17.106  0.5261 -0.8927  0.0162
  155DOPC   C2318597   1.029   3.199  17.116  0.5550  0.6923  0.2152
  155DOPC   H3R18598   1.079   3.169  17.210  1.2514 -1.8459 -0.8922
  155DOPC   H3S18599   1.106   3.207  17.037 -1.0831  0.7046 -1.4532
  155DOPC   C2418600   0.928   3.086  17.085 -0.3751  0.1699 -0.1529
  155DOPC   H4R18601   0.883   3.102  16.985 -1.0376 -1.1192 -0.0782
  155DOPC   H4S18602   0.848   3.092  17.162  0.6083  2.1214  0.8125
  155DOPC   C2518603   0.996   2.950  17.107  0.2145  0.4955 -0.2416
  155DOPC   H5R18604   1.003   2.930  17.216 -0.9163 -1.5935 -0.5151
  155DOPC   H5S18605   1.096   2.957  17.058  0.1200  0.3380 -0.4567
  155DOPC   C2618606   0.921   2.830  17.058 -0.4834  0.5507  0.4728
  155DOPC   H6R18607   0.919   2.835  16.947 -0.9725 -1.4625  0.3437
  155DOPC   H6S18608   0.816   2.819  17.092 -0.5988 -0.2402 -0.1210
  155DOPC   C2718609   0.991   2.689  17.089  0.0365  0.7523 -0.2313
  155DOPC   H7R18610   1.019   2.679  17.197  0.8157 -1.9112 -0.6047
  155DOPC   H7S18611   1.090   2.679  17.039  0.9653 -0.4346  1.7156
  155DOPC   C2818612   0.905   2.568  17.046  0.4289  0.0163  0.1498
  155DOPC   H8R18613   0.879   2.571  16.938  0.3611  0.4124  0.1767
  155DOPC   H8S18614   0.811   2.581  17.102  0.6171  0.5101  0.3646
  155DOPC   C2918615   0.956   2.433  17.085 -1.1897 -1.4845 -0.2340
  155DOPC   H9R18616   0.954   2.414  17.193  0.4378  0.2960  0.1617
  155DOPC  C21018617   1.001   2.345  16.996  0.0665  0.1145 -0.7266
  155DOPC  H10R18618   1.043   2.251  17.034  0.7284  1.1893  1.3441
  155DOPC  C21118619   1.028   2.374  16.844  0.6774 -0.3806 -1.2908
  155DOPC  H11R18620   1.038   2.481  16.820  0.2404 -0.1678 -0.5826
  155DOPC  H11S18621   0.942   2.339  16.782 -0.9524  2.6157 -0.8797
  155DOPC  C21218622   1.160   2.311  16.783  0.3067  0.0631 -0.2866
  155DOPC  H12R18623   1.173   2.356  16.682  1.3606  1.2735  0.3571
  155DOPC  H12S18624   1.146   2.202  16.767 -0.4230  0.1405 -0.2057
  155DOPC  C21318625   1.288   2.330  16.864  0.5179  0.4077  0.3757
  155DOPC  H13R18626   1.364   2.275  16.805  0.6191  1.5390 -0.6071
  155DOPC  H13S18627   1.286   2.281  16.964  0.2898  1.3450  0.8482
  155DOPC  C21418628   1.334   2.469  16.903  0.3987 -0.2436  0.5318
  155DOPC  H14R18629   1.433   2.469  16.954  1.1423  0.2906 -0.8733
  155DOPC  H14S18630   1.261   2.502  16.980 -0.2670  0.1349 -0.2513
  155DOPC  C21518631   1.348   2.574  16.784 -0.3673 -0.0735 -0.2102
  155DOPC  H15R18632   1.358   2.675  16.830 -1.3921 -0.4697  0.9144
  155DOPC  H15S18633   1.256   2.576  16.722 -1.6832  1.0453  1.6845
  155DOPC  C21618634   1.479   2.551  16.698  1.3438  0.1101  0.1841
  155DOPC  H16R18635   1.492   2.444  16.669  0.6245 -0.6197  2.3160
  155DOPC  H16S18636   1.560   2.563  16.774  0.0498 -0.8173  1.7803
  155DOPC  C21718637   1.498   2.654  16.586  0.4562  0.1467 -0.2527
  155DOPC  H17R18638   1.590   2.625  16.531  0.9466  0.4149  0.4121
  155DOPC  H17S18639   1.515   2.748  16.643 -0.6354  1.3726 -1.8259
  155DOPC  C21818640   1.387   2.670  16.483  0.8717  0.2892 -0.5155
  155DOPC  H18R18641   1.379   2.576  16.424  0.6780 -0.6451  0.9528
  155DOPC  H18S18642   1.399   2.758  16.416 -1.1325  1.0783  0.0914
  155DOPC  H18T18643   1.291   2.683  16.537  2.9247  2.0059  3.0938
  155DOPC   C3318644   1.617   3.935  17.031 -0.8384 -0.0349 -0.0190
  155DOPC   H3X18645   1.720   3.976  17.046 -0.3219 -1.2590 -0.1136
  155DOPC   H3Y18646   1.544   4.010  17.069  0.3243  2.0732 -1.7391
  155DOPC   C3418647   1.602   3.912  16.883 -0.1852  0.4010  0.5566
  155DOPC   H4X18648   1.511   3.861  16.844  0.4019 -0.4341  0.2610
  155DOPC   H4Y18649   1.681   3.842  16.851 -0.0659  0.2238  1.2121
  155DOPC   C3518650   1.631   4.050  16.811 -0.9187 -0.1888 -0.6779
  155DOPC   H5X18651   1.731   4.095  16.829 -0.4530 -1.8388  1.3071
  155DOPC   H5Y18652   1.549   4.121  16.832  0.6034  1.7097 -0.9096
  155DOPC   C3618653   1.631   4.027  16.658  0.1222  0.3917  0.3877
  155DOPC   H6X18654   1.536   3.997  16.607  1.8939 -0.7564 -2.5069
  155DOPC   H6Y18655   1.646   4.131  16.621  1.0375  0.0305 -0.2871
  155DOPC   C3718656   1.761   3.962  16.596  0.7261  0.0285  0.1731
  155DOPC   H7X18657   1.850   3.989  16.656  0.4375  0.8473  0.2491
  155DOPC   H7Y18658   1.745   3.852  16.603  0.5853  0.1398  1.8556
  155DOPC   C3818659   1.786   4.003  16.448 -0.5877 -1.1385 -0.0108
  155DOPC   H8X18660   1.706   3.964  16.381 -3.2142  0.3161  2.0260
  155DOPC   H8Y18661   1.889   3.968  16.429  0.4491  1.0789  1.1115
  155DOPC   C3918662   1.809   4.156  16.433 -0.1231  0.6641 -0.0945
  155DOPC   H9X18663   1.908   4.191  16.465 -0.1983  0.4989  0.3360
  155DOPC  C31018664   1.714   4.244  16.384  0.5222  0.2380  0.2139
  155DOPC  H10X18665   1.728   4.353  16.395  0.2569  0.0934  2.3001
  155DOPC  C31118666   1.579   4.211  16.335 -0.4077  0.4977 -0.2127
  155DOPC  H11X18667   1.505   4.230  16.416  0.4316  1.0739  0.4420
  155DOPC  H11Y18668   1.567   4.105  16.303 -0.6519  0.7766 -1.0987
  155DOPC  C31218669   1.534   4.299  16.210  0.3936 -0.3631 -0.0879
  155DOPC  H12X18670   1.561   4.405  16.233 -0.9077 -0.3387  1.4560
  155DOPC  H12Y18671   1.423   4.300  16.205  0.1626  0.2059  3.0109
  155DOPC  C31318672   1.595   4.241  16.084  0.4036 -0.5591  0.0369
  155DOPC  H13X18673   1.703   4.225  16.100  0.6569  1.4423  0.6634
  155DOPC  H13Y18674   1.556   4.138  16.067  0.2955 -0.8213  1.6947
  155DOPC  C31418675   1.567   4.330  15.964 -0.0264 -0.3084  0.3729
  155DOPC  H14X18676   1.460   4.328  15.937 -0.0516  0.6876  0.3475
  155DOPC  H14Y18677   1.592   4.436  15.986  0.0478 -0.2115 -0.1621
  155DOPC  C31518678   1.642   4.287  15.846  1.0786 -0.0331 -0.2425
  155DOPC  H15X18679   1.617   4.179  15.837 -0.1446  0.2287 -0.1687
  155DOPC  H15Y18680   1.752   4.289  15.861  1.1084 -3.6665  0.9989
  155DOPC  C31618681   1.612   4.352  15.713  0.0552 -0.0409 -0.1361
  155DOPC  H16X18682   1.678   4.318  15.630 -1.3869 -1.2339 -0.8637
  155DOPC  H16Y18683   1.509   4.325  15.682 -0.3012  0.4472  0.5926
  155DOPC  C31718684   1.615   4.509  15.712 -0.7574 -0.1310 -0.4584
  155DOPC  H17X18685   1.546   4.546  15.791  0.0315  0.7895 -0.1753
  155DOPC  H17Y18686   1.712   4.532  15.761 -0.7302 -0.3409 -0.4119
  155DOPC  C31818687   1.584   4.579  15.579  0.7115  0.5279 -0.5051
  155DOPC  H18X18688   1.480   4.554  15.547  0.0674  0.9157  1.1710
  155DOPC  H18Y18689   1.587   4.689  15.593  0.2047  0.7111 -1.6420
  155DOPC  H18Z18690   1.665   4.549  15.509  0.4339 -0.4034 -0.4392
  156DOPC     N18691   4.885   6.195  17.504 -0.6728  0.1684 -0.3985
  156DOPC   C1218692   4.908   6.145  17.362 -0.5015 -0.0337  0.2597
  156DOPC  H12A18693   4.820   6.087  17.339  0.2589 -2.0188  2.0190
  156DOPC  H12B18694   4.992   6.078  17.366  0.8509  1.5247 -0.7304
  156DOPC   C1318695   4.870   6.079  17.592  0.9271 -0.2199 -0.4746
  156DOPC  H13A18696   4.794   6.012  17.557 -0.4449  0.4000  1.1507
  156DOPC  H13B18697   4.962   6.023  17.604  1.9303  1.7097  1.7585
  156DOPC  H13C18698   4.840   6.123  17.686  0.7296  0.6520 -0.9326
  156DOPC   C1418699   4.774   6.294  17.505  0.3029  0.8225  0.3034
  156DOPC  H14A18700   4.690   6.259  17.448  1.8872  0.8490 -2.1926
  156DOPC  H14B18701   4.742   6.330  17.602 -0.8017 -1.0022  0.6556
  156DOPC  H14C18702   4.812   6.378  17.449 -1.3402 -0.1749 -2.4602
  156DOPC   C1518703   5.000   6.262  17.552 -0.5903 -0.2857 -0.0602
  156DOPC  H15A18704   4.976   6.320  17.640 -0.0707  0.5320 -0.4405
  156DOPC  H15B18705   5.044   6.318  17.471 -0.7738 -1.1335 -0.7488
  156DOPC  H15C18706   5.082   6.197  17.577 -1.6831 -1.2695  1.1091
  156DOPC   C1118707   4.950   6.248  17.252 -0.0884 -0.3151  0.0802
  156DOPC  H11A18708   4.958   6.191  17.157 -0.8192 -0.7740  0.2891
  156DOPC  H11B18709   4.869   6.313  17.212 -0.0015 -0.5906 -0.5556
  156DOPC     P18710   5.213   6.302  17.208  0.0014  0.3819  0.0560
  156DOPC   O1318711   5.231   6.156  17.180 -0.0897 -0.3130  0.2135
  156DOPC   O1418712   5.312   6.368  17.293 -0.5073 -0.1810 -0.2012
  156DOPC   O1218713   5.072   6.320  17.280  0.5413 -0.2007 -0.0204
  156DOPC   O1118714   5.191   6.379  17.078  0.6584 -0.3914  0.1237
  156DOPC    C118715   5.217   6.517  17.069 -0.4439  0.1249  0.7644
  156DOPC    HA18716   5.288   6.555  17.145  1.6808 -0.5690 -0.7602
  156DOPC    HB18717   5.122   6.570  17.089 -0.6041 -0.0848  0.5600
  156DOPC    C218718   5.275   6.552  16.930 -0.0096  0.2620  0.5862
  156DOPC    HS18719   5.201   6.517  16.855  1.1870 -0.2634 -0.3917
  156DOPC   O2118720   5.409   6.507  16.919  0.3032  0.3284  0.3758
  156DOPC   C2118721   5.416   6.377  16.880 -0.0867  0.4349 -0.3215
  156DOPC   O2218722   5.323   6.308  16.851  0.5379  0.1803 -0.1117
  156DOPC   C2218723   5.559   6.319  16.882 -0.3858  0.1608  0.3052
  156DOPC   H2R18724   5.563   6.216  16.925 -0.3370 -0.0514 -0.1921
  156DOPC   H2S18725   5.626   6.381  16.945 -1.3725 -1.3729  3.0524
  156DOPC    C318726   5.264   6.715  16.926 -0.4512  0.1678 -0.5789
  156DOPC    HX18727   5.342   6.750  16.997 -0.5427 -0.2837 -0.2562
  156DOPC    HY18728   5.165   6.735  16.971 -0.6213 -0.1767 -0.7997
  156DOPC   O3118729   5.287   6.778  16.796  0.1728 -0.1930 -0.0280
  156DOPC   C3118730   5.183   6.776  16.709 -0.3059  0.2656 -0.5346
  156DOPC   O3218731   5.068   6.754  16.753 -0.2690 -0.1826 -0.2501
  156DOPC   C3218732   5.233   6.809  16.567  0.4450 -0.0089  1.3603
  156DOPC   H2X18733   5.228   6.919  16.552 -1.4108 -0.3660 -1.0691
  156DOPC   H2Y18734   5.336   6.767  16.556  0.7202  1.1187 -1.1241
  156DOPC   C2318735   5.622   6.321  16.743  0.6129 -0.3321 -0.7365
  156DOPC   H3R18736   5.577   6.256  16.665 -2.0786  1.6553 -0.9656
  156DOPC   H3S18737   5.724   6.278  16.748  1.0906  0.7106 -1.2576
  156DOPC   C2418738   5.650   6.463  16.695  0.0750 -0.8141  1.0397
  156DOPC   H4R18739   5.709   6.521  16.769 -0.3985 -1.4289  1.9246
  156DOPC   H4S18740   5.565   6.528  16.665  1.5698  0.4497 -0.6795
  156DOPC   C2518741   5.740   6.465  16.561  0.4844 -0.7233 -0.2322
  156DOPC   H5R18742   5.809   6.379  16.573 -1.4650 -2.6462 -1.9639
  156DOPC   H5S18743   5.790   6.564  16.557 -1.7505  0.5245  0.5916
  156DOPC   C2618744   5.666   6.457  16.419  0.1092  0.3251 -1.4097
  156DOPC   H6R18745   5.593   6.540  16.409 -0.5952 -0.2449 -1.1050
  156DOPC   H6S18746   5.615   6.359  16.425  0.4773  0.0937 -2.0231
  156DOPC   C2718747   5.766   6.460  16.310 -0.1085  0.4194 -0.1478
  156DOPC   H7R18748   5.854   6.402  16.344 -0.5241  0.5914  1.2725
  156DOPC   H7S18749   5.798   6.566  16.304  3.5687 -0.5011  0.8518
  156DOPC   C2818750   5.722   6.408  16.168 -0.3657  0.3439 -0.1425
  156DOPC   H8R18751   5.804   6.429  16.096  1.4773  1.0139  1.9851
  156DOPC   H8S18752   5.637   6.472  16.139  0.3281  1.1478 -0.4485
  156DOPC   C2918753   5.684   6.258  16.173 -0.6171 -0.2614 -0.3532
  156DOPC   H9R18754   5.589   6.240  16.225 -1.4122  3.4066 -0.2853
  156DOPC  C21018755   5.736   6.167  16.094  0.4783  0.0905  0.0448
  156DOPC  H10R18756   5.682   6.071  16.096 -1.9337  1.0459 -4.4968
  156DOPC  C21118757   5.856   6.166  16.009 -0.4585 -0.2871  0.0592
  156DOPC  H11R18758   5.906   6.067  16.017  0.0325 -0.0488  0.0110
  156DOPC  H11S18759   5.924   6.245  16.047 -1.6973 -0.0641  1.9132
  156DOPC  C21218760   5.839   6.172  15.860  0.3422  0.2149  0.0570
  156DOPC  H12R18761   5.763   6.246  15.827 -0.1246 -0.6459 -0.8504
  156DOPC  H12S18762   5.794   6.080  15.818 -0.9260  0.1674  1.4145
  156DOPC  C21318763   5.971   6.209  15.788 -0.7163 -0.1010  0.5813
  156DOPC  H13R18764   6.025   6.291  15.841  0.0479 -0.9318  1.0998
  156DOPC  H13S18765   5.938   6.250  15.689 -2.8698  1.8813  1.9951
  156DOPC  C21418766   6.074   6.094  15.769 -0.1175 -0.8488 -0.9318
  156DOPC  H14R18767   6.017   6.026  15.702  0.2317 -0.6797 -1.3986
  156DOPC  H14S18768   6.095   6.042  15.865  1.4982 -0.4386 -1.0353
  156DOPC  C21518769   6.198   6.133  15.693  0.4654 -0.1918 -0.9850
  156DOPC  H15R18770   6.247   6.215  15.750  0.6190 -1.4854  0.8562
  156DOPC  H15S18771   6.178   6.170  15.591  0.6641 -1.0027 -1.3294
  156DOPC  C21618772   6.295   6.013  15.679 -0.1026 -0.0602 -0.4040
  156DOPC  H16R18773   6.245   5.941  15.612  1.3152 -0.0164 -1.5503
  156DOPC  H16S18774   6.320   5.969  15.778  0.8682 -0.0228 -0.6199
  156DOPC  C21718775   6.424   6.055  15.611  0.1719  0.6137 -0.1841
  156DOPC  H17R18776   6.449   6.163  15.618 -1.0395  0.9063 -0.2394
  156DOPC  H17S18777   6.404   6.026  15.505  0.6686 -0.4430 -0.0005
  156DOPC  C21818778   6.536   5.968  15.648 -0.5610 -0.2142 -0.3520
  156DOPC  H18R18779   6.573   6.002  15.746 -0.9768  1.8135 -0.8560
  156DOPC  H18S18780   6.626   5.974  15.583  0.9055  0.2137  1.6373
  156DOPC  H18T18781   6.514   5.859  15.659  1.3622 -0.6185 -0.1812
  156DOPC   C3318782   5.136   6.745  16.463 -0.3743  0.2445  1.0765
  156DOPC   H3X18783   5.052   6.816  16.457  0.6002  1.3221 -0.5974
  156DOPC   H3Y18784   5.096   6.644  16.486 -0.1999 -0.3558 -1.1152
  156DOPC   C3418785   5.204   6.737  16.323  0.3491  0.6662 -0.1641
  156DOPC   H4X18786   5.253   6.835  16.301 -0.5244  0.9639 -0.8235
  156DOPC   H4Y18787   5.125   6.736  16.245 -0.2938 -2.3383  0.4022
  156DOPC   C3518788   5.294   6.623  16.296  0.1187  0.6970  0.4507
  156DOPC   H5X18789   5.243   6.533  16.338  0.5776  0.5589  0.7266
  156DOPC   H5Y18790   5.385   6.639  16.358  0.6683 -2.0390  0.4968
  156DOPC   C3618791   5.335   6.591  16.152  0.1607  0.3102  0.0973
  156DOPC   H6X18792   5.391   6.675  16.106 -0.4294  0.8079  0.2727
  156DOPC   H6Y18793   5.405   6.505  16.158  0.2947  0.4450  0.4329
  156DOPC   C3718794   5.211   6.545  16.069 -0.4109 -0.0100 -0.6727
  156DOPC   H7X18795   5.170   6.451  16.112 -1.9184  0.7036 -0.4937
  156DOPC   H7Y18796   5.131   6.622  16.064  1.4288  1.9165 -3.1855
  156DOPC   C3818797   5.249   6.507  15.926  0.1262 -0.1195  0.2643
  156DOPC   H8X18798   5.162   6.462  15.872 -1.3124  2.2007  0.5427
  156DOPC   H8Y18799   5.324   6.426  15.937  0.2757 -0.0900 -0.4741
  156DOPC   C3918800   5.317   6.608  15.835  0.6619 -0.0271 -0.0064
  156DOPC   H9X18801   5.264   6.704  15.841 -1.7634 -1.3211  0.5384
  156DOPC  C31018802   5.405   6.587  15.737  0.0026 -0.0006 -0.6927
  156DOPC  H10X18803   5.442   6.676  15.683 -0.6975  0.8175  0.1350
  156DOPC  C31118804   5.451   6.456  15.687 -0.4439  0.1890 -0.2367
  156DOPC  H11X18805   5.443   6.381  15.768  0.0607 -0.0061 -0.3620
  156DOPC  H11Y18806   5.559   6.461  15.660 -0.7428  0.2165 -1.4877
  156DOPC  C31218807   5.377   6.383  15.571  0.8451 -0.6114 -0.1460
  156DOPC  H12X18808   5.398   6.434  15.474  1.4270 -0.5020  0.0313
  156DOPC  H12Y18809   5.270   6.379  15.599  0.2908 -1.0250 -2.1362
  156DOPC  C31318810   5.422   6.240  15.541  0.3268 -0.3233 -0.2198
  156DOPC  H13X18811   5.418   6.186  15.639 -2.0010  2.7950  1.5921
  156DOPC  H13Y18812   5.348   6.200  15.468  0.7491  0.4008 -1.0491
  156DOPC  C31418813   5.571   6.240  15.477  0.0111 -0.0035 -0.0295
  156DOPC  H14X18814   5.551   6.289  15.379 -0.7053 -0.0833  0.0731
  156DOPC  H14Y18815   5.638   6.301  15.542  0.2501 -1.8492  1.5242
  156DOPC  C31518816   5.633   6.109  15.463  0.3649  0.0656 -0.2333
  156DOPC  H15X18817   5.570   6.040  15.403 -2.4781  0.1737  2.3757
  156DOPC  H15Y18818   5.627   6.053  15.559  1.1683 -0.1879 -0.3251
  156DOPC  C31618819   5.779   6.105  15.419  0.0644 -0.0362  0.3834
  156DOPC  H16X18820   5.773   6.126  15.310  3.6735  2.2145  0.4175
  156DOPC  H16Y18821   5.841   6.191  15.454  2.9992 -1.3269 -1.2607
  156DOPC  C31718822   5.861   5.981  15.451 -0.0223 -0.1434 -0.5654
  156DOPC  H17X18823   5.851   5.945  15.555 -1.6400  0.9899 -0.3000
  156DOPC  H17Y18824   5.834   5.890  15.393  1.5965 -1.5966  0.8590
  156DOPC  C31818825   6.007   6.012  15.419 -0.7896  0.5508 -0.0925
  156DOPC  H18X18826   6.061   5.917  15.442 -1.5414  0.2424  0.4084
  156DOPC  H18Y18827   6.016   6.041  15.312 -1.3513  0.8635 -0.0597
  156DOPC  H18Z18828   6.043   6.098  15.479 -1.6824  0.6508  0.3133
  157DOPC     N18829   5.646   1.794  17.188 -0.2249 -0.1216 -0.2819
  157DOPC   C1218830   5.731   1.899  17.263  0.1617 -0.4549  0.8171
  157DOPC  H12A18831   5.815   1.848  17.309  1.0108 -0.5704 -0.7678
  157DOPC  H12B18832   5.677   1.931  17.350 -3.2851 -0.5285 -1.1213
  157DOPC   C1318833   5.499   1.834  17.196 -0.0421  0.1317  0.9014
  157DOPC  H13A18834   5.476   1.923  17.139  1.3507  0.9949  1.6166
  157DOPC  H13B18835   5.441   1.757  17.147 -0.6573  1.1625 -0.0342
  157DOPC  H13C18836   5.464   1.847  17.298 -1.2979  0.1734  0.4827
  157DOPC   C1418837   5.663   1.658  17.251 -0.5439  0.3045  0.1988
  157DOPC  H14A18838   5.764   1.629  17.277 -1.0759 -0.5288  1.4302
  157DOPC  H14B18839   5.606   1.642  17.341 -0.7986  0.0280 -0.0107
  157DOPC  H14C18840   5.626   1.584  17.182  0.5824 -0.9782  0.9244
  157DOPC   C1518841   5.691   1.776  17.041 -0.5745  0.5354  0.6295
  157DOPC  H15A18842   5.788   1.728  17.039  0.1707  1.9862  0.6514
  157DOPC  H15B18843   5.706   1.872  16.994  1.0488  0.5935  1.2175
  157DOPC  H15C18844   5.628   1.714  16.979  1.3276 -0.2551 -0.6404
  157DOPC   C1118845   5.779   2.033  17.191  0.0056 -0.3241  0.2416
  157DOPC  H11A18846   5.813   2.087  17.283 -1.1295 -2.8599  2.2780
  157DOPC  H11B18847   5.861   2.004  17.122 -1.4534 -1.5920 -1.0002
  157DOPC     P18848   5.571   2.201  17.172 -0.3148  0.1493  0.2097
  157DOPC   O1318849   5.616   2.269  17.294 -0.2018 -0.1774  0.0293
  157DOPC   O1418850   5.444   2.127  17.188  0.0127 -0.3324 -0.3802
  157DOPC   O1218851   5.683   2.102  17.116 -0.4355 -0.0302 -0.1526
  157DOPC   O1118852   5.549   2.302  17.057 -0.6471  0.5919 -0.1737
  157DOPC    C118853   5.484   2.265  16.934  0.0464  0.5546 -0.8755
  157DOPC    HA18854   5.477   2.359  16.876  1.3582  1.7107  0.7363
  157DOPC    HB18855   5.383   2.220  16.945  1.1030 -1.8628 -0.3162
  157DOPC    C218856   5.566   2.155  16.851  0.4547 -0.3414 -0.0608
  157DOPC    HS18857   5.562   2.061  16.910 -1.2329 -1.1673 -1.4175
  157DOPC   O2118858   5.700   2.213  16.836  0.5659  0.0181  0.0680
  157DOPC   C2118859   5.797   2.129  16.846 -0.3145 -0.0358 -0.4422
  157DOPC   O2218860   5.800   2.011  16.843  0.5522  0.0948  0.0658
  157DOPC   C2218861   5.928   2.209  16.863  0.1653 -0.6480 -0.2706
  157DOPC   H2R18862   6.006   2.133  16.885 -0.3618 -0.8829  0.8343
  157DOPC   H2S18863   5.912   2.289  16.938  0.8635  1.3901 -2.1531
  157DOPC    C318864   5.493   2.127  16.717 -0.0559  0.2439  0.2592
  157DOPC    HX18865   5.476   2.227  16.672  0.5194  0.5188  0.6433
  157DOPC    HY18866   5.394   2.083  16.740  0.6048 -3.2921 -2.6744
  157DOPC   O3118867   5.577   2.049  16.624  0.1107  0.1244  0.1273
  157DOPC   C3118868   5.555   1.919  16.638 -0.3739  1.2625  0.5822
  157DOPC   O3218869   5.481   1.863  16.719 -0.7253 -0.3358  0.4451
  157DOPC   C3218870   5.638   1.832  16.544 -0.0073  0.1619 -0.2124
  157DOPC   H2X18871   5.615   1.862  16.440 -2.0568 -1.9069 -0.4164
  157DOPC   H2Y18872   5.748   1.841  16.557 -0.2310  1.5664  1.0238
  157DOPC   C2318873   5.964   2.276  16.730 -0.1724 -0.6636 -0.2238
  157DOPC   H3R18874   6.045   2.348  16.751  0.1216 -0.8118 -0.8458
  157DOPC   H3S18875   5.878   2.338  16.698  0.2399 -0.4557 -0.9426
  157DOPC   C2418876   5.995   2.180  16.618 -0.1198  1.0658  0.6700
  157DOPC   H4R18877   5.947   2.212  16.523 -0.4856  0.5061  0.6600
  157DOPC   H4S18878   5.945   2.083  16.638  0.9322  0.6057  1.1481
  157DOPC   C2518879   6.142   2.145  16.603 -0.2869 -0.1288 -0.3376
  157DOPC   H5R18880   6.171   2.060  16.669 -1.3422  0.6255  1.1441
  157DOPC   H5S18881   6.191   2.233  16.648  1.3236 -0.4567 -1.3582
  157DOPC   C2618882   6.179   2.136  16.459  0.5790  0.1752 -0.1425
  157DOPC   H6R18883   6.110   2.070  16.401 -0.7630  2.0961 -0.8233
  157DOPC   H6S18884   6.277   2.084  16.456  0.3782 -0.3609  1.6615
  157DOPC   C2718885   6.176   2.274  16.386 -0.4662  0.3791 -0.8624
  157DOPC   H7R18886   6.206   2.352  16.460 -3.1634 -0.0696  0.8454
  157DOPC   H7S18887   6.070   2.303  16.367 -0.9708 -1.1215 -0.4602
  157DOPC   C2818888   6.270   2.295  16.264  0.8910 -0.4977  0.7200
  157DOPC   H8R18889   6.373   2.257  16.279  0.6356 -1.9764 -0.9925
  157DOPC   H8S18890   6.268   2.406  16.254 -0.3311 -0.6702 -1.6752
  157DOPC   C2918891   6.209   2.215  16.151  0.1401 -0.1849 -0.2612
  157DOPC   H9R18892   6.200   2.108  16.175 -4.1518 -0.1012 -0.7431
  157DOPC  C21018893   6.151   2.269  16.041  0.4382  0.6023 -0.2977
  157DOPC  H10R18894   6.099   2.198  15.974  0.2032  0.8998 -0.4335
  157DOPC  C21118895   6.119   2.413  16.004  0.5112  0.0832  0.5536
  157DOPC  H11R18896   6.142   2.424  15.896  1.1272  1.6117  0.8182
  157DOPC  H11S18897   6.192   2.479  16.056 -2.5996  1.6934  3.2023
  157DOPC  C21218898   5.975   2.463  16.034  0.4546 -0.1780  0.7010
  157DOPC  H12R18899   5.968   2.490  16.141 -1.9984 -1.6825  0.9915
  157DOPC  H12S18900   5.893   2.392  16.009 -1.5799  1.7980  1.4356
  157DOPC  C21318901   5.943   2.593  15.962 -0.4131  0.9433 -0.0568
  157DOPC  H13R18902   6.028   2.662  15.978  0.1340  0.9397 -2.5673
  157DOPC  H13S18903   5.863   2.636  16.026  0.3084  0.8925  0.9002
  157DOPC  C21418904   5.914   2.595  15.811 -0.9525  0.0569  0.4954
  157DOPC  H14R18905   5.853   2.508  15.780 -2.3761  1.6495 -1.4805
  157DOPC  H14S18906   6.014   2.572  15.767 -0.8207 -1.2313  1.4040
  157DOPC  C21518907   5.857   2.726  15.759 -0.0460  0.7293 -0.4690
  157DOPC  H15R18908   5.935   2.804  15.768 -0.1054  0.5838  1.6702
  157DOPC  H15S18909   5.783   2.759  15.834  2.2977  0.2850  2.2329
  157DOPC  C21618910   5.793   2.710  15.627  0.4381  0.4591  0.2455
  157DOPC  H16R18911   5.709   2.637  15.630 -1.1860  1.9928 -2.8824
  157DOPC  H16S18912   5.873   2.669  15.562  0.6964 -0.2904  1.0193
  157DOPC  C21718913   5.739   2.845  15.574  0.2212 -0.0649 -0.0578
  157DOPC  H17R18914   5.664   2.881  15.648 -0.0587 -0.3186 -0.2108
  157DOPC  H17S18915   5.675   2.824  15.485 -0.7222 -0.8286  0.7714
  157DOPC  C21818916   5.850   2.953  15.550  0.5794 -0.8540  0.7480
  157DOPC  H18R18917   5.922   2.981  15.630  1.2554 -0.0998 -0.1083
  157DOPC  H18S18918   5.796   3.044  15.516 -0.6768 -2.0880 -0.6794
  157DOPC  H18T18919   5.918   2.934  15.464 -0.0012 -2.5930  0.6383
  157DOPC   C3318920   5.599   1.683  16.543  0.1682  0.1590  0.2254
  157DOPC   H3X18921   5.498   1.672  16.497 -0.6069 -1.8284  2.2368
  157DOPC   H3Y18922   5.582   1.648  16.647 -2.0535 -0.9315 -0.4350
  157DOPC   C3418923   5.707   1.597  16.480  0.4883  0.0532  0.5340
  157DOPC   H4X18924   5.802   1.609  16.537  1.3657 -2.0901 -0.3559
  157DOPC   H4Y18925   5.725   1.624  16.373  2.0573 -1.6901  0.3086
  157DOPC   C3518926   5.680   1.450  16.488  0.7959  0.8694 -0.3359
  157DOPC   H5X18927   5.579   1.439  16.444  1.2908  1.2171 -1.6098
  157DOPC   H5Y18928   5.673   1.418  16.594  1.9537  1.5721 -0.0211
  157DOPC   C3618929   5.780   1.355  16.422  0.2688 -0.5899 -0.3114
  157DOPC   H6X18930   5.746   1.249  16.424 -0.9447 -0.2323  2.0829
  157DOPC   H6Y18931   5.793   1.372  16.313 -0.1559 -0.5621 -0.3586
  157DOPC   C3718932   5.913   1.365  16.496  0.4217  0.0294 -0.1343
  157DOPC   H7X18933   5.978   1.424  16.428  2.3123 -1.6577  0.1429
  157DOPC   H7Y18934   5.909   1.412  16.597 -1.1998 -0.4500  0.0529
  157DOPC   C3818935   5.981   1.227  16.502 -0.1702 -0.4130  0.9220
  157DOPC   H8X18936   5.981   1.192  16.397 -1.8305  1.5879  0.1753
  157DOPC   H8Y18937   5.912   1.156  16.553  0.3403  0.0376  2.2876
  157DOPC   C3918938   6.129   1.223  16.547  0.3355  0.8631  0.3840
  157DOPC   H9X18939   6.137   1.217  16.657 -0.0923 -0.2498  0.3635
  157DOPC  C31018940   6.239   1.246  16.474 -0.3910 -0.8823  0.5506
  157DOPC  H10X18941   6.336   1.250  16.526  0.8537  1.6794 -1.7403
  157DOPC  C31118942   6.240   1.287  16.328 -0.5272 -0.1990  0.5675
  157DOPC  H11X18943   6.317   1.366  16.313  0.4518 -1.2540 -0.1288
  157DOPC  H11Y18944   6.142   1.326  16.292 -0.2453 -1.2180 -1.4852
  157DOPC  C31218945   6.282   1.173  16.229  0.0493 -0.0867  0.5331
  157DOPC  H12X18946   6.195   1.108  16.204  1.7230 -2.5193  0.6965
  157DOPC  H12Y18947   6.355   1.105  16.277 -0.0456  0.0499  0.8720
  157DOPC  C31318948   6.341   1.226  16.103 -0.9969 -0.0217  0.2719
  157DOPC  H13X18949   6.263   1.270  16.037 -0.4902 -1.6322 -1.4978
  157DOPC  H13Y18950   6.420   1.300  16.129  0.4711 -1.0109 -1.2303
  157DOPC  C31418951   6.418   1.117  16.026 -0.5234 -0.4538  0.3590
  157DOPC  H14X18952   6.470   1.059  16.105 -1.4748  0.4988  1.7471
  157DOPC  H14Y18953   6.335   1.059  15.981 -1.1123  1.1594 -0.7295
  157DOPC  C31518954   6.509   1.179  15.919 -0.0201 -0.0623  0.2002
  157DOPC  H15X18955   6.569   1.096  15.876 -1.4283 -0.8441 -0.3261
  157DOPC  H15Y18956   6.585   1.248  15.964 -0.5928 -0.0318  1.1354
  157DOPC  C31618957   6.427   1.247  15.809 -0.3627  0.1776  0.0315
  157DOPC  H16X18958   6.375   1.166  15.755 -0.2480  0.1981 -0.1136
  157DOPC  H16Y18959   6.350   1.315  15.850 -1.1299  0.0079 -1.0950
  157DOPC  C31718960   6.511   1.330  15.707 -0.2327 -0.0910 -0.3236
  157DOPC  H17X18961   6.556   1.417  15.759  1.3380 -0.7409 -0.5428
  157DOPC  H17Y18962   6.593   1.263  15.673 -0.1748  0.6318 -1.7045
  157DOPC  C31818963   6.426   1.380  15.593 -0.5492 -0.3506  0.3619
  157DOPC  H18X18964   6.358   1.300  15.557 -0.4271  0.2910 -1.4289
  157DOPC  H18Y18965   6.355   1.461  15.619  1.4185  1.8560 -0.7904
  157DOPC  H18Z18966   6.485   1.424  15.509  0.8450 -3.0116 -0.1683
  158DOPC     N18967   3.266   1.739  17.984  0.6238 -0.0991 -0.0725
  158DOPC   C1218968   3.116   1.715  17.985  0.7269  0.2148  0.2535
  158DOPC  H12A18969   3.095   1.684  17.884  1.7900 -2.0918  0.6757
  158DOPC  H12B18970   3.068   1.807  18.017  0.7301 -0.8046  3.5928
  158DOPC   C1318971   3.302   1.761  18.127 -0.1021  0.0910  0.2812
  158DOPC  H13A18972   3.400   1.800  18.153  0.2331 -1.4507  1.5139
  158DOPC  H13B18973   3.228   1.825  18.172 -0.2843  0.1199 -0.0642
  158DOPC  H13C18974   3.288   1.674  18.190  2.8788 -1.9407 -1.5961
  158DOPC   C1418975   3.296   1.859  17.894  0.1839  0.5702  0.1194
  158DOPC  H14A18976   3.272   1.836  17.792 -0.1155  1.2929  0.0178
  158DOPC  H14B18977   3.237   1.947  17.917  0.2167  0.4865  0.5459
  158DOPC  H14C18978   3.400   1.886  17.891  0.5554 -0.7168  0.4868
  158DOPC   C1518979   3.348   1.624  17.927  0.7942 -0.4809  0.5687
  158DOPC  H15A18980   3.320   1.534  17.979 -0.5225 -0.2394  0.3201
  158DOPC  H15B18981   3.453   1.640  17.944  0.6079  0.0070  1.3091
  158DOPC  H15C18982   3.330   1.621  17.820 -0.0192  0.0704  0.6774
  158DOPC   C1118983   3.057   1.605  18.072 -0.1578 -0.7390  0.3092
  158DOPC  H11A18984   3.082   1.626  18.179 -0.4654  1.6052 -0.0093
  158DOPC  H11B18985   2.946   1.609  18.061 -0.0828 -2.1708 -1.3296
  158DOPC     P18986   3.054   1.411  17.897  0.3792 -0.0533  0.7189
  158DOPC   O1318987   2.929   1.345  17.931 -0.7473 -0.0336 -0.1987
  158DOPC   O1418988   3.165   1.335  17.834  0.4768 -0.5703 -0.2689
  158DOPC   O1218989   3.108   1.474  18.028  0.1296 -0.2271 -0.4147
  158DOPC   O1118990   3.018   1.533  17.802 -0.0684  0.0288  0.5582
  158DOPC    C118991   2.885   1.547  17.750 -0.2078 -0.2256 -0.1379
  158DOPC    HA18992   2.825   1.615  17.814 -1.3636 -1.6672  0.3598
  158DOPC    HB18993   2.828   1.453  17.740 -0.5997 -0.0083  0.0542
  158DOPC    C218994   2.893   1.607  17.604 -0.1685  0.3230  0.2806
  158DOPC    HS18995   2.787   1.602  17.570  0.3524  1.2187 -1.5648
  158DOPC   O2118996   2.981   1.537  17.509 -0.7255 -0.3939 -0.5477
  158DOPC   C2118997   2.952   1.408  17.506 -0.3771 -1.4159  0.9960
  158DOPC   O2218998   2.850   1.354  17.544 -0.2098  0.9311  0.0520
  158DOPC   C2218999   3.066   1.338  17.429 -0.0985  0.0339  0.0676
  158DOPC   H2R19000   3.158   1.331  17.491  0.1313  1.1192 -0.1151
  158DOPC   H2S19001   3.090   1.397  17.338 -2.0705  0.3941 -0.2589
  158DOPC    C319002   2.940   1.755  17.609 -0.1917 -0.7494  0.0138
  158DOPC    HX19003   3.041   1.756  17.655 -1.2007 -0.0350  2.3748
  158DOPC    HY19004   2.870   1.796  17.684 -1.6729 -0.5200 -1.4295
  158DOPC   O3119005   2.949   1.829  17.486 -0.0872 -0.5922 -0.3676
  158DOPC   C3119006   2.842   1.896  17.459  0.0871 -0.4699  0.1272
  158DOPC   O3219007   2.739   1.909  17.529 -0.1722 -0.4343 -0.1226
  158DOPC   C3219008   2.845   1.960  17.319  0.4321 -0.0875  0.0983
  158DOPC   H2X19009   2.736   1.965  17.294  0.0559  2.5257  1.8960
  158DOPC   H2Y19010   2.897   2.058  17.316  0.5579 -0.1651 -0.3415
  158DOPC   C2319011   3.033   1.194  17.386  0.5879  0.2787  0.1080
  158DOPC   H3R19012   2.970   1.138  17.459 -1.9739  2.5699 -0.1766
  158DOPC   H3S19013   3.129   1.139  17.375  2.3826  3.3739 -0.6682
  158DOPC   C2419014   2.948   1.190  17.257  0.0738  0.3449 -0.0066
  158DOPC   H4R19015   3.013   1.213  17.169 -0.9991  0.0890 -0.8873
  158DOPC   H4S19016   2.866   1.263  17.264 -0.2904 -0.0579 -0.0407
  158DOPC   C2519017   2.882   1.054  17.244  0.1808 -0.0662 -0.0086
  158DOPC   H5R19018   2.799   1.060  17.318 -0.6342 -1.7127 -0.7516
  158DOPC   H5S19019   2.943   0.961  17.250  1.3487  0.7551  1.4609
  158DOPC   C2619020   2.804   1.039  17.109  0.6351 -0.1840  0.4343
  158DOPC   H6R19021   2.799   1.134  17.052  0.5252  1.3164  2.8216
  158DOPC   H6S19022   2.701   1.003  17.133  0.1941  1.2241  0.7239
  158DOPC   C2719023   2.862   0.932  17.012 -0.3955 -1.0429 -0.3970
  158DOPC   H7R19024   2.789   0.927  16.928 -1.5447 -0.0373  0.4984
  158DOPC   H7S19025   2.849   0.830  17.055  1.0404 -1.5493 -1.1044
  158DOPC   C2819026   3.005   0.948  16.968  0.4467  0.3813  0.1597
  158DOPC   H8R19027   3.068   0.961  17.058  1.7527 -1.8060 -0.3768
  158DOPC   H8S19028   3.020   1.045  16.916  0.4320 -0.0590 -0.6837
  158DOPC   C2919029   3.068   0.838  16.888 -0.7839 -0.1525 -0.5139
  158DOPC   H9R19030   3.056   0.746  16.948 -1.2800  1.1707  1.5348
  158DOPC  C21019031   3.133   0.844  16.769  0.4261 -0.6199 -0.3660
  158DOPC  H10R19032   3.176   0.753  16.725  0.7150 -0.3857 -0.5770
  158DOPC  C21119033   3.145   0.961  16.672 -0.5750  0.3897  0.0735
  158DOPC  H11R19034   3.065   1.038  16.686  0.1644  1.8088 -2.8094
  158DOPC  H11S19035   3.121   0.916  16.574 -1.1829  0.9394 -0.0413
  158DOPC  C21219036   3.289   1.022  16.659  0.5937 -0.1103  0.1052
  158DOPC  H12R19037   3.330   1.055  16.757  1.8520 -0.4944 -0.2759
  158DOPC  H12S19038   3.296   1.111  16.592  1.6996 -1.6219 -1.8879
  158DOPC  C21319039   3.387   0.922  16.599 -0.0590 -0.1429  0.0520
  158DOPC  H13R19040   3.355   0.911  16.493 -0.3885  0.3306  0.0990
  158DOPC  H13S19041   3.375   0.819  16.640 -0.6850 -0.3915 -0.7269
  158DOPC  C21419042   3.526   0.983  16.598  0.3386 -0.4231 -0.1821
  158DOPC  H14R19043   3.569   1.004  16.698  1.2159  1.6005 -0.9341
  158DOPC  H14S19044   3.513   1.077  16.539 -0.3522  0.0039  0.6306
  158DOPC  C21519045   3.636   0.903  16.531  0.4605 -0.2017 -0.2435
  158DOPC  H15R19046   3.597   0.887  16.428  0.6352 -0.6290 -0.2458
  158DOPC  H15S19047   3.650   0.805  16.580 -0.1347  0.3521  1.0760
  158DOPC  C21619048   3.765   0.979  16.510  0.4145  0.0658 -0.8998
  158DOPC  H16R19049   3.815   1.014  16.603 -1.0974  0.7127 -0.2821
  158DOPC  H16S19050   3.744   1.072  16.453 -2.5424 -0.4648 -0.8459
  158DOPC  C21719051   3.858   0.891  16.427 -0.9281  0.1067 -0.0686
  158DOPC  H17R19052   3.814   0.871  16.327 -0.6725  0.2017 -0.2006
  158DOPC  H17S19053   3.871   0.793  16.477 -0.5809  0.2276  0.0807
  158DOPC  C21819054   4.001   0.959  16.414  0.0068 -0.2622 -0.4394
  158DOPC  H18R19055   4.037   0.956  16.519 -3.5105  1.2166  1.0057
  158DOPC  H18S19056   3.988   1.067  16.388  0.2335 -0.0384  0.3302
  158DOPC  H18T19057   4.059   0.912  16.333 -1.1129  0.4910 -1.7236
  158DOPC   C3319058   2.915   1.862  17.215 -0.3535  0.4277 -0.4171
  158DOPC   H3X19059   3.011   1.819  17.252 -0.0180  0.0861 -1.6554
  158DOPC   H3Y19060   2.946   1.919  17.125 -0.6199 -0.9649 -1.4167
  158DOPC   C3419061   2.806   1.753  17.178  0.3813 -0.1986  0.2683
  158DOPC   H4X19062   2.758   1.788  17.084  0.5662 -1.3664 -0.2782
  158DOPC   H4Y19063   2.732   1.740  17.260  0.9324  0.0632  0.8219
  158DOPC   C3519064   2.851   1.610  17.146 -0.0330 -0.1152 -0.5257
  158DOPC   H5X19065   2.775   1.535  17.112  1.3756 -1.1077 -1.6029
  158DOPC   H5Y19066   2.891   1.572  17.242 -1.1004  1.3717  0.5342
  158DOPC   C3619067   2.973   1.605  17.041  0.2580 -0.1341 -0.2282
  158DOPC   H6X19068   2.956   1.662  16.946  4.0681 -1.0541 -1.6220
  158DOPC   H6Y19069   3.062   1.658  17.081 -0.2431  1.6721 -1.4042
  158DOPC   C3719070   3.003   1.456  17.010  0.2960  0.4426 -0.7101
  158DOPC   H7X19071   3.075   1.474  16.928  2.5781  1.4501  1.4010
  158DOPC   H7Y19072   3.052   1.405  17.096  1.6570 -0.4803 -1.9839
  158DOPC   C3819073   2.883   1.373  16.957 -0.1229 -0.3242  0.1569
  158DOPC   H8X19074   2.813   1.362  17.043  0.5415 -0.9699  0.6312
  158DOPC   H8Y19075   2.919   1.271  16.931 -1.2158 -1.2842  2.1114
  158DOPC   C3919076   2.810   1.433  16.840 -0.0027  0.7148  0.1995
  158DOPC   H9X19077   2.751   1.521  16.872 -2.1726 -1.0469  1.3720
  158DOPC  C31019078   2.813   1.390  16.716  0.1621 -0.3036 -0.0695
  158DOPC  H10X19079   2.744   1.426  16.638 -2.4352 -2.3366  1.1227
  158DOPC  C31119080   2.891   1.270  16.664  1.2164 -0.0202 -0.4761
  158DOPC  H11X19081   2.833   1.179  16.689  0.3835  0.3183 -1.1211
  158DOPC  H11Y19082   2.992   1.263  16.710  0.5103 -0.9865  1.0246
  158DOPC  C31219083   2.906   1.269  16.509 -0.1381 -0.2583 -0.7899
  158DOPC  H12X19084   2.954   1.365  16.482  0.5805 -0.5240 -0.4884
  158DOPC  H12Y19085   2.812   1.258  16.452  1.0658  0.7647 -3.1212
  158DOPC  C31319086   3.004   1.153  16.463 -0.1297 -0.3045  0.3009
  158DOPC  H13X19087   3.106   1.177  16.502  0.6821 -1.9625 -0.6916
  158DOPC  H13Y19088   2.963   1.054  16.489  1.2899 -1.3932 -1.3503
  158DOPC  C31419089   3.019   1.147  16.306 -0.0836  0.1628 -0.1064
  158DOPC  H14X19090   2.934   1.083  16.272  0.0534 -0.5678  0.8705
  158DOPC  H14Y19091   3.017   1.249  16.263  3.9991  0.4385  0.0299
  158DOPC  C31519092   3.146   1.081  16.255 -0.3412  0.2466  0.1680
  158DOPC  H15X19093   3.138   1.060  16.146 -0.4739  0.3722  0.1542
  158DOPC  H15Y19094   3.161   0.985  16.310  1.3699  0.6237  0.4067
  158DOPC  C31619095   3.265   1.170  16.272 -0.3675  0.6237 -0.5771
  158DOPC  H16X19096   3.251   1.259  16.206  1.2797  0.1986 -1.5605
  158DOPC  H16Y19097   3.277   1.197  16.379 -0.2126 -1.0401 -0.1446
  158DOPC  C31719098   3.397   1.094  16.246  0.3947 -0.1826 -0.2160
  158DOPC  H17X19099   3.473   1.160  16.295 -0.9027  0.9156  0.3700
  158DOPC  H17Y19100   3.398   1.007  16.314 -0.8174 -0.4159 -0.4764
  158DOPC  C31819101   3.444   1.056  16.105  0.3498 -0.2832 -0.7284
  158DOPC  H18X19102   3.382   0.982  16.051  2.3621 -2.6643  0.0495
  158DOPC  H18Y19103   3.461   1.138  16.031  0.0558  0.2650 -0.2015
  158DOPC  H18Z19104   3.538   1.000  16.121  0.3958 -0.4896 -1.6598
  159DOPC     N19105   6.239   3.066  17.408 -0.9000  0.0618 -0.8272
  159DOPC   C1219106   6.202   3.035  17.266  0.5318  0.7035 -0.9091
  159DOPC  H12A19107   6.139   3.117  17.233 -1.7587 -0.0860  1.2467
  159DOPC  H12B19108   6.133   2.952  17.264  0.3289  0.8780 -1.7094
  159DOPC   C1319109   6.353   2.978  17.456 -0.5162  0.3494 -0.1722
  159DOPC  H13A19110   6.445   3.007  17.407 -0.6317  3.2962  1.1315
  159DOPC  H13B19111   6.366   2.982  17.563 -3.6937  1.3977  0.2827
  159DOPC  H13C19112   6.318   2.878  17.436 -1.6128  0.2604  1.9217
  159DOPC   C1419113   6.120   3.042  17.497  0.6202  0.3552 -0.8192
  159DOPC  H14A19114   6.142   3.072  17.598 -2.7473  1.4282 -0.2985
  159DOPC  H14B19115   6.031   3.100  17.476 -0.8859 -1.3351  0.6925
  159DOPC  H14C19116   6.098   2.938  17.510 -0.9146  0.6027 -1.2765
  159DOPC   C1519117   6.275   3.207  17.427  0.6629 -0.1723  0.0056
  159DOPC  H15A19118   6.361   3.235  17.368  1.3195  0.5640  1.2767
  159DOPC  H15B19119   6.282   3.224  17.533  1.1600 -1.3595  0.1859
  159DOPC  H15C19120   6.201   3.271  17.381  1.5129  0.2935 -0.7351
  159DOPC   C1119121   6.308   3.013  17.163  0.2033 -0.3659 -0.5639
  159DOPC  H11A19122   6.255   3.025  17.067  0.4274  2.3332 -0.4498
  159DOPC  H11B19123   6.378   3.100  17.164 -0.7564  0.5201  2.6124
  159DOPC     P19124   6.316   2.748  17.167 -0.1322  0.2613 -0.1682
  159DOPC   O1319125   6.166   2.750  17.179 -0.2765 -0.1449 -0.3766
  159DOPC   O1419126   6.384   2.652  17.256  0.0366  0.2779 -0.4352
  159DOPC   O1219127   6.376   2.888  17.191  0.8277 -0.3565  0.3542
  159DOPC   O1119128   6.356   2.727  17.017 -0.4260 -0.1908  1.0512
  159DOPC    C119129   6.485   2.755  16.959 -0.1952 -0.1289 -0.2997
  159DOPC    HA19130   6.559   2.792  17.033 -1.3572  0.6995  0.4941
  159DOPC    HB19131   6.492   2.835  16.883 -1.3855  0.9381  0.6655
  159DOPC    C219132   6.555   2.623  16.901 -0.4071 -0.3121  0.4773
  159DOPC    HS19133   6.661   2.655  16.903 -0.9170  2.0015 -2.3753
  159DOPC   O2119134   6.502   2.610  16.771  0.1371 -0.2186 -0.2776
  159DOPC   C2119135   6.593   2.584  16.681 -0.4055 -0.3263  0.0564
  159DOPC   O2219136   6.706   2.548  16.702  0.0249 -0.5120 -0.0908
  159DOPC   C2219137   6.539   2.604  16.541  0.0617 -0.4715 -0.2408
  159DOPC   H2R19138   6.526   2.711  16.515  1.6492  0.0125  0.8347
  159DOPC   H2S19139   6.444   2.549  16.525 -0.6192  0.9163 -1.1418
  159DOPC    C319140   6.544   2.495  16.994 -0.3436  0.2541  0.8275
  159DOPC    HX19141   6.436   2.475  17.011 -1.0829  0.9552 -2.4984
  159DOPC    HY19142   6.591   2.524  17.091  1.0902 -1.9666  0.8710
  159DOPC   O3119143   6.601   2.373  16.939  0.3820 -0.1796  0.2044
  159DOPC   C3119144   6.533   2.316  16.844 -0.4399 -0.0024  0.0095
  159DOPC   O3219145   6.417   2.331  16.820  0.3452  0.0423 -0.1391
  159DOPC   C3219146   6.631   2.238  16.759  0.1427  0.3227  0.5297
  159DOPC   H2X19147   6.724   2.298  16.742 -0.6674  1.2006 -1.0616
  159DOPC   H2Y19148   6.654   2.146  16.817 -1.7402 -0.0722  0.6979
  159DOPC   C2319149   6.649   2.549  16.445  0.2652 -0.1971 -0.1620
  159DOPC   H3R19150   6.705   2.462  16.485  1.4441  0.4491 -0.3491
  159DOPC   H3S19151   6.725   2.626  16.418  1.4828 -1.4739 -0.4415
  159DOPC   C2419152   6.592   2.518  16.304  0.3408 -0.2936 -0.3336
  159DOPC   H4R19153   6.541   2.603  16.255 -1.6129 -0.5956  1.0605
  159DOPC   H4S19154   6.530   2.425  16.307  2.2695 -1.6630 -0.9849
  159DOPC   C2519155   6.685   2.484  16.188  0.5136 -1.0230  0.7324
  159DOPC   H5R19156   6.751   2.398  16.213  1.3511 -0.5327  0.2190
  159DOPC   H5S19157   6.761   2.563  16.174 -0.8375  0.3367  0.8305
  159DOPC   C2619158   6.606   2.473  16.053  0.4231 -0.1135 -0.0414
  159DOPC   H6R19159   6.567   2.577  16.041  0.4345  0.3193  2.8553
  159DOPC   H6S19160   6.530   2.396  16.079 -0.0881  0.0910 -0.8889
  159DOPC   C2719161   6.691   2.408  15.940  0.2337 -0.7227  0.2413
  159DOPC   H7R19162   6.613   2.374  15.868 -0.5587 -0.1770  0.8265
  159DOPC   H7S19163   6.743   2.326  15.993  0.3469  0.0578  1.3735
  159DOPC   C2819164   6.788   2.512  15.874  0.2533 -0.2005 -0.5983
  159DOPC   H8R19165   6.842   2.449  15.800  0.7285  0.3093 -0.6948
  159DOPC   H8S19166   6.861   2.552  15.947 -2.5320  0.9580  1.7868
  159DOPC   C2919167   6.735   2.631  15.796  0.4790  0.2529  0.5793
  159DOPC   H9R19168   6.649   2.682  15.843 -1.3625 -1.3056 -0.9517
  159DOPC  C21019169   6.793   2.689  15.693  0.4079 -0.4381 -0.1562
  159DOPC  H10R19170   6.754   2.784  15.654  1.7518 -0.5596 -1.8978
  159DOPC  C21119171   6.919   2.639  15.612 -0.0943  0.8002 -0.6357
  159DOPC  H11R19172   6.926   2.529  15.622  1.2656  0.8479 -0.7798
  159DOPC  H11S19173   7.008   2.676  15.668 -0.6236 -0.8891  1.4694
  159DOPC  C21219174   6.918   2.685  15.466  0.1445 -0.1461 -0.3120
  159DOPC  H12R19175   7.013   2.657  15.417 -0.4001 -3.8234  0.4629
  159DOPC  H12S19176   6.899   2.794  15.478 -0.0027 -0.1366 -0.6171
  159DOPC  C21319177   6.806   2.630  15.372  0.0178  0.0877 -0.4716
  159DOPC  H13R19178   6.706   2.641  15.419 -0.5935 -2.9692 -0.8472
  159DOPC  H13S19179   6.801   2.519  15.366 -1.2357 -0.0790  2.1632
  159DOPC  C21419180   6.825   2.693  15.232 -0.1867  0.0852  0.7048
  159DOPC  H14R19181   6.763   2.633  15.162  2.0080 -1.0791 -0.3481
  159DOPC  H14S19182   6.931   2.672  15.207  0.7733  0.6895  3.8104
  159DOPC  C21519183   6.781   2.844  15.209 -0.8083 -1.0036 -0.5604
  159DOPC  H15R19184   6.798   2.862  15.101  1.5734 -0.9498 -0.2404
  159DOPC  H15S19185   6.859   2.906  15.258  1.1807 -1.9929 -2.2677
  159DOPC  C21619186   6.641   2.882  15.255 -0.0355  0.0543  0.2441
  159DOPC  H16R19187   6.621   2.852  15.360 -1.8085  0.9526  0.2154
  159DOPC  H16S19188   6.570   2.823  15.192  2.2562 -1.1717 -1.3556
  159DOPC  C21719189   6.607   3.032  15.251  0.1583 -0.2247 -0.7159
  159DOPC  H17R19190   6.497   3.050  15.251 -0.1672 -2.0055 -1.1099
  159DOPC  H17S19191   6.651   3.073  15.157  0.1341  1.2108 -0.1304
  159DOPC  C21819192   6.671   3.108  15.369 -0.6611  0.1668  0.6640
  159DOPC  H18R19193   6.779   3.082  15.379 -0.5368 -0.1158 -1.0313
  159DOPC  H18S19194   6.623   3.087  15.467  0.6836 -1.7126  0.9601
  159DOPC  H18T19195   6.677   3.217  15.347  0.9183  0.0664  0.4432
  159DOPC   C3319196   6.573   2.190  16.621 -0.6985  0.5198  0.1141
  159DOPC   H3X19197   6.514   2.272  16.575 -0.0101  1.5142  0.9834
  159DOPC   H3Y19198   6.499   2.107  16.624  1.5744 -1.6592 -0.5944
  159DOPC   C3419199   6.684   2.156  16.526  0.1701 -0.1290  0.0046
  159DOPC   H4X19200   6.760   2.237  16.531 -0.0365  0.1369 -0.9669
  159DOPC   H4Y19201   6.643   2.157  16.422 -0.0944 -1.6790  0.0582
  159DOPC   C3519202   6.733   2.018  16.551 -0.1494  0.8216  0.1836
  159DOPC   H5X19203   6.647   1.950  16.531 -0.6275  0.6633  2.4485
  159DOPC   H5Y19204   6.766   1.995  16.655 -1.4550 -0.9145  0.2594
  159DOPC   C3619205   6.856   1.986  16.463  0.2366  0.0560  0.6087
  159DOPC   H6X19206   6.862   1.876  16.450  1.0048  0.1981 -0.3875
  159DOPC   H6Y19207   6.834   2.025  16.361  1.6232  1.0421  0.6480
  159DOPC   C3719208   6.988   2.031  16.520 -0.4596 -0.5843 -0.1934
  159DOPC   H7X19209   7.001   2.141  16.528  1.3512 -0.8001  0.1105
  159DOPC   H7Y19210   6.993   1.986  16.621 -0.6534 -0.4794 -0.1362
  159DOPC   C3819211   7.114   1.982  16.448 -0.2378  0.4208 -0.3695
  159DOPC   H8X19212   7.128   1.873  16.464 -0.0588  0.6541  1.2695
  159DOPC   H8Y19213   7.204   2.034  16.487  0.7073  0.1080 -2.0334
  159DOPC   C3919214   7.107   2.012  16.305 -0.5089 -0.4623 -0.0874
  159DOPC   H9X19215   7.063   2.110  16.285 -1.5554 -0.5480  1.5614
  159DOPC  C31019216   7.147   1.938  16.203 -1.0661 -0.6113  0.3222
  159DOPC  H10X19217   7.121   1.982  16.105  0.1253 -0.4166  0.0772
  159DOPC  C31119218   7.226   1.814  16.208  0.9236  0.3265  0.3439
  159DOPC  H11X19219   7.159   1.725  16.211  0.4110  0.6788 -0.3372
  159DOPC  H11Y19220   7.283   1.811  16.303  0.7440  0.9525  0.4765
  159DOPC  C31219221   7.311   1.786  16.071 -0.4287  0.7140 -0.1724
  159DOPC  H12X19222   7.249   1.791  15.979  0.5171 -0.4209 -0.8951
  159DOPC  H12Y19223   7.348   1.681  16.064 -1.0185  0.4914 -0.0472
  159DOPC  C31319224   7.424   1.888  16.066  0.2922 -0.1833 -0.2507
  159DOPC  H13X19225   7.372   1.986  16.054 -1.7892 -1.2793 -0.6483
  159DOPC  H13Y19226   7.498   1.880  16.148 -1.5952  0.3441  1.6068
  159DOPC  C31419227   7.504   1.874  15.938 -0.0304 -0.1206  0.1352
  159DOPC  H14X19228   7.606   1.917  15.939  0.2253 -0.7055 -0.0550
  159DOPC  H14Y19229   7.520   1.765  15.925 -0.8913 -0.1769 -0.5368
  159DOPC  C31519230   7.437   1.933  15.810  0.0151 -0.2746  0.1854
  159DOPC  H15X19231   7.418   2.040  15.833  1.4634 -0.2147  1.2347
  159DOPC  H15Y19232   7.344   1.878  15.784  0.9161 -2.5751  1.5646
  159DOPC  C31619233   7.518   1.935  15.681  0.0471  0.8552  0.0754
  159DOPC  H16X19234   7.457   1.969  15.595  0.3530 -2.3676 -1.5526
  159DOPC  H16Y19235   7.606   2.001  15.696  2.5611 -2.1832 -0.1519
  159DOPC  C31719236   7.562   1.799  15.643 -0.8983  0.0328 -0.1358
  159DOPC  H17X19237   7.635   1.758  15.716 -0.3935 -1.2505 -1.3178
  159DOPC  H17Y19238   7.485   1.718  15.643  0.3648 -1.2167 -0.9578
  159DOPC  C31819239   7.628   1.785  15.498  0.4133 -0.3739  1.1508
  159DOPC  H18X19240   7.709   1.858  15.474  0.7601 -1.1322 -0.0742
  159DOPC  H18Y19241   7.680   1.687  15.499  0.9008 -0.1373  0.1496
  159DOPC  H18Z19242   7.554   1.784  15.415 -0.5710  0.5785  1.9845
  160DOPC     N19243   1.246   0.012  17.210 -0.6936 -0.3999 -0.2786
  160DOPC   C1219244   1.169   0.005  17.079  0.1717  0.6464  0.2090
  160DOPC  H12A19245   1.113  -0.087  17.079 -0.7242  1.1452 -1.3887
  160DOPC  H12B19246   1.243  -0.017  17.003  2.2991 -0.8622  2.5618
  160DOPC   C1319247   1.315  -0.122  17.238 -0.8382  0.1677  0.0238
  160DOPC  H13A19248   1.360  -0.162  17.149 -0.9960 -0.8520  0.3863
  160DOPC  H13B19249   1.383  -0.132  17.321  0.7312  0.1739 -1.2191
  160DOPC  H13C19250   1.237  -0.195  17.257 -1.2822  0.6928  0.2340
  160DOPC   C1419251   1.160   0.041  17.326  0.3805  0.2177 -0.4265
  160DOPC  H14A19252   1.118   0.140  17.332 -2.4605 -0.9847  1.9142
  160DOPC  H14B19253   1.076  -0.027  17.330  0.0127  0.6275 -1.0099
  160DOPC  H14C19254   1.207   0.037  17.423 -0.0044  1.4380 -0.1658
  160DOPC   C1519255   1.356   0.124  17.213  0.0372  1.0700  0.6992
  160DOPC  H15A19256   1.416   0.106  17.125  1.9972  2.1772  1.7578
  160DOPC  H15B19257   1.423   0.117  17.297 -0.3764 -0.9242  0.9309
  160DOPC  H15C19258   1.322   0.226  17.205 -0.6124  0.7930 -0.1273
  160DOPC   C1119259   1.074   0.112  17.038 -0.8210  0.1907  0.0702
  160DOPC  H11A19260   1.119   0.209  17.066 -3.2326  1.2008  0.7741
  160DOPC  H11B19261   1.046   0.114  16.930 -3.0323  1.4728  0.5934
  160DOPC     P19262   0.848  -0.007  17.115  0.1254 -0.3273 -0.0448
  160DOPC   O1319263   0.715   0.064  17.123 -0.5291  0.0379 -0.1131
  160DOPC   O1419264   0.873  -0.114  17.213 -0.5266 -0.0297 -0.8218
  160DOPC   O1219265   0.964   0.100  17.125 -0.4268  0.2515  0.1156
  160DOPC   O1119266   0.847  -0.068  16.969 -0.3919 -0.3652 -0.2373
  160DOPC    C119267   0.756  -0.032  16.865 -0.3083 -0.0149  0.4365
  160DOPC    HA19268   0.751   0.078  16.847 -0.2016 -0.0520  0.1701
  160DOPC    HB19269   0.657  -0.070  16.898 -0.2254 -0.8172 -0.2300
  160DOPC    C219270   0.787  -0.080  16.726 -0.7239  0.6812  0.2329
  160DOPC    HS19271   0.812  -0.187  16.742 -1.5864  0.4420  0.0167
  160DOPC   O2119272   0.894  -0.001  16.665  0.7732  0.0595 -0.6868
  160DOPC   C2119273   0.985  -0.063  16.590  0.0545 -0.1533  0.3102
  160DOPC   O2219274   0.990  -0.180  16.567 -0.0414 -0.6994  0.5324
  160DOPC   C2219275   1.090   0.046  16.546  0.2482 -0.1285 -0.1250
  160DOPC   H2R19276   1.135   0.089  16.637 -1.9983  0.5409  0.7513
  160DOPC   H2S19277   1.026   0.122  16.497 -0.5387 -2.2183 -2.6191
  160DOPC    C319278   0.659  -0.065  16.637 -0.2674  0.4381  0.6371
  160DOPC    HX19279   0.640   0.044  16.627 -3.1860 -0.1488 -1.3451
  160DOPC    HY19280   0.567  -0.101  16.687  0.6736 -1.9160  0.7876
  160DOPC   O3119281   0.674  -0.111  16.504  0.0662 -0.0070  0.0111
  160DOPC   C3119282   0.674  -0.237  16.481  0.4237  0.1596  0.1199
  160DOPC   O3219283   0.642  -0.329  16.557 -0.1621 -0.1134 -0.5663
  160DOPC   C3219284   0.711  -0.256  16.332  0.3011 -0.6203 -0.2272
  160DOPC   H2X19285   0.638  -0.216  16.258  1.1693  1.5128  0.0037
  160DOPC   H2Y19286   0.809  -0.205  16.318  1.3844 -2.5031  0.1200
  160DOPC   C2319287   1.197  -0.016  16.457 -0.7382 -0.3229 -0.1590
  160DOPC   H3R19288   1.151  -0.067  16.369  0.2458 -0.1289 -0.8062
  160DOPC   H3S19289   1.248  -0.102  16.505  0.4120 -0.1954 -1.1032
  160DOPC   C2419290   1.300   0.085  16.411 -0.5372 -0.6538 -0.0523
  160DOPC   H4R19291   1.369   0.115  16.493  1.5310 -1.4471 -1.4196
  160DOPC   H4S19292   1.250   0.180  16.380  0.2826 -0.2648 -0.2147
  160DOPC   C2519293   1.385   0.024  16.296 -0.4201 -0.1929  0.1169
  160DOPC   H5R19294   1.441  -0.057  16.347 -0.8623 -0.0283  0.8841
  160DOPC   H5S19295   1.448   0.107  16.258 -2.3132  1.3907  0.2795
  160DOPC   C2619296   1.313  -0.021  16.170  0.2299  0.6435 -1.1295
  160DOPC   H6R19297   1.247   0.060  16.132  0.9148  2.1232  0.6865
  160DOPC   H6S19298   1.243  -0.105  16.192 -0.3491  0.9978 -1.6007
  160DOPC   C2719299   1.403  -0.079  16.059  0.2599 -0.2308 -0.3248
  160DOPC   H7R19300   1.338  -0.105  15.973 -2.1974 -0.3023  1.4520
  160DOPC   H7S19301   1.458  -0.168  16.096  2.5940  2.0179  2.1342
  160DOPC   C2819302   1.502   0.020  16.002 -0.3137 -0.3750 -0.0562
  160DOPC   H8R19303   1.564  -0.046  15.937  0.4077  1.3087 -1.1422
  160DOPC   H8S19304   1.575   0.055  16.077  0.0215 -0.9674 -0.1008
  160DOPC   C2919305   1.447   0.133  15.920  0.1654 -1.2850  0.7081
  160DOPC   H9R19306   1.365   0.186  15.969  0.0557  0.3528 -1.1232
  160DOPC  C21019307   1.481   0.172  15.792  0.2586 -0.0444  0.2120
  160DOPC  H10R19308   1.434   0.259  15.744  2.1437  0.3255 -1.0430
  160DOPC  C21119309   1.582   0.098  15.711 -0.4214 -0.5946 -0.4737
  160DOPC  H11R19310   1.547   0.064  15.611 -0.8050  0.4882 -0.7158
  160DOPC  H11S19311   1.606   0.002  15.760  0.1535  1.1474  2.9526
  160DOPC  C21219312   1.721   0.177  15.701  1.0749 -0.4363  0.1266
  160DOPC  H12R19313   1.764   0.180  15.803  2.4662 -0.4915 -0.4465
  160DOPC  H12S19314   1.705   0.281  15.666 -0.8336 -0.7041  0.0930
  160DOPC  C21319315   1.821   0.110  15.604  0.5812  0.1683 -0.0906
  160DOPC  H13R19316   1.781   0.127  15.501 -0.4171  2.4989  0.6329
  160DOPC  H13S19317   1.810  -0.000  15.615 -1.7644  0.4558  1.0813
  160DOPC  C21419318   1.969   0.158  15.598  0.3108  0.1565  0.5056
  160DOPC  H14R19319   2.019   0.116  15.508 -0.7709 -2.1271  0.8964
  160DOPC  H14S19320   2.017   0.128  15.694 -1.3094 -0.3904  1.1977
  160DOPC  C21519321   1.978   0.314  15.599  0.1349 -0.3075  0.1555
  160DOPC  H15R19322   1.957   0.356  15.699 -0.0040 -0.8971  0.3771
  160DOPC  H15S19323   1.909   0.359  15.525  1.2844  3.4375  1.1506
  160DOPC  C21619324   2.120   0.354  15.542  0.5844  0.4652 -0.7482
  160DOPC  H16R19325   2.117   0.410  15.446 -0.0030  0.6036 -0.6516
  160DOPC  H16S19326   2.180   0.264  15.515  0.3400  0.7609 -2.3432
  160DOPC  C21719327   2.203   0.429  15.644  0.4781  0.0336  0.1039
  160DOPC  H17R19328   2.192   0.407  15.752 -1.3991 -1.1635 -0.2811
  160DOPC  H17S19329   2.156   0.530  15.642 -1.8313 -0.9857 -0.5765
  160DOPC  C21819330   2.347   0.439  15.597  0.2390  0.6105 -0.0562
  160DOPC  H18R19331   2.405   0.483  15.681 -1.1167 -0.6267  1.6177
  160DOPC  H18S19332   2.352   0.510  15.512 -1.6718 -1.0187 -1.6178
  160DOPC  H18T19333   2.409   0.348  15.579  0.3095  0.8571 -1.0734
  160DOPC   C3319334   0.716  -0.400  16.284 -1.1725 -0.0560  0.1618
  160DOPC   H3X19335   0.616  -0.430  16.246 -1.1138  0.7078 -0.6221
  160DOPC   H3Y19336   0.735  -0.460  16.375  0.9944 -1.4591 -1.1150
  160DOPC   C3419337   0.829  -0.418  16.176  0.0094  0.3086 -0.4684
  160DOPC   H4X19338   0.842  -0.528  16.172  1.0782  0.3060  1.6439
  160DOPC   H4Y19339   0.923  -0.383  16.223 -0.7411  2.0527 -0.1828
  160DOPC   C3519340   0.819  -0.345  16.040 -0.5752 -0.6555  0.4302
  160DOPC   H5X19341   0.908  -0.387  15.988 -0.5667  1.7116 -1.6694
  160DOPC   H5Y19342   0.848  -0.238  16.042  0.8290 -0.9334 -1.4630
  160DOPC   C3619343   0.697  -0.383  15.951  0.2094 -0.3271 -0.4947
  160DOPC   H6X19344   0.703  -0.493  15.934 -0.2040 -0.2725 -1.0045
  160DOPC   H6Y19345   0.605  -0.350  16.004  1.4148  0.5692  1.1386
  160DOPC   C3719346   0.699  -0.312  15.813 -0.0806 -0.3664  0.4625
  160DOPC   H7X19347   0.596  -0.331  15.777  0.5842 -1.2922 -1.1001
  160DOPC   H7Y19348   0.727  -0.205  15.823 -0.9732 -0.0819  0.0371
  160DOPC   C3819349   0.797  -0.381  15.715  0.5598 -0.4393 -0.6201
  160DOPC   H8X19350   0.780  -0.491  15.719 -1.4005 -0.1462  1.1339
  160DOPC   H8Y19351   0.897  -0.369  15.762 -1.4913  2.4267  3.7752
  160DOPC   C3919352   0.803  -0.329  15.579  0.2968 -1.3303  0.2463
  160DOPC   H9X19353   0.867  -0.240  15.569 -0.1008 -1.0073  0.5388
  160DOPC  C31019354   0.748  -0.384  15.469  0.5766  0.1647  0.0214
  160DOPC  H10X19355   0.759  -0.324  15.378  1.3569  2.1088  1.3200
  160DOPC  C31119356   0.665  -0.507  15.458 -0.2535  0.4055 -0.1150
  160DOPC  H11X19357   0.629  -0.535  15.560 -1.7685  1.0727 -0.4333
  160DOPC  H11Y19358   0.723  -0.592  15.417  0.4593  0.5190  0.6180
  160DOPC  C31219359   0.535  -0.494  15.375 -0.4920  0.2765  0.2162
  160DOPC  H12X19360   0.482  -0.398  15.393  1.0309  1.5445 -1.6887
  160DOPC  H12Y19361   0.462  -0.572  15.407 -1.1720  0.3706 -1.0248
  160DOPC  C31319362   0.572  -0.498  15.221 -0.4895 -0.3730  0.1941
  160DOPC  H13X19363   0.606  -0.399  15.184  1.3602 -0.5017  1.4558
  160DOPC  H13Y19364   0.654  -0.569  15.196 -0.7165 -0.4903 -0.2449
  160DOPC  C31419365   0.437  -0.539  15.146  0.0955  0.7582 -0.3140
  160DOPC  H14X19366   0.409  -0.645  15.165  0.5578  0.5000 -1.0017
  160DOPC  H14Y19367   0.359  -0.467  15.178  0.3402  1.2697 -0.8491
  160DOPC  C31519368   0.457  -0.552  14.994  0.3365  0.1208  0.4626
  160DOPC  H15X19369   0.541  -0.618  14.962 -1.1898 -0.7391 -2.1105
  160DOPC  H15Y19370   0.489  -0.456  14.948 -0.8711  0.5211  0.4219
  160DOPC  C31619371   0.339  -0.624  14.922  0.3959 -1.2789  0.5859
  160DOPC  H16X19372   0.332  -0.724  14.971  2.6190 -1.1959  1.1975
  160DOPC  H16Y19373   0.244  -0.572  14.948  1.2649  0.9532 -0.4553
  160DOPC  C31719374   0.368  -0.636  14.771  0.1463 -0.5033  0.5078
  160DOPC  H17X19375   0.378  -0.530  14.740 -0.8560 -0.5778 -0.0936
  160DOPC  H17Y19376   0.463  -0.689  14.750 -1.3337 -1.6614 -4.8882
  160DOPC  C31819377   0.245  -0.691  14.697 -0.2232 -0.2749  0.7752
  160DOPC  H18X19378   0.169  -0.609  14.695 -0.3523 -0.3944  0.6991
  160DOPC  H18Y19379   0.269  -0.714  14.591 -3.3223 -1.1350  0.1439
  160DOPC  H18Z19380   0.204  -0.783  14.743 -0.3172 -0.1781  0.8851
  161DOPC     N19381   1.549   2.064  17.793  0.1251  0.0009  0.3171
  161DOPC   C1219382   1.479   2.017  17.667 -0.7096  0.3847  0.4895
  161DOPC  H12A19383   1.544   2.051  17.588  1.9693 -1.0650  1.9011
  161DOPC  H12B19384   1.382   2.066  17.667 -0.6691  0.4665  0.1700
  161DOPC   C1319385   1.680   1.997  17.820  0.9851  1.0609  0.8519
  161DOPC  H13A19386   1.725   2.011  17.917  1.6251 -1.9909  1.0712
  161DOPC  H13B19387   1.679   1.891  17.804  0.9466  1.4495 -2.5707
  161DOPC  H13C19388   1.746   2.024  17.738  0.0088 -1.4357 -0.8673
  161DOPC   C1419389   1.457   2.054  17.913 -0.1624 -0.3106 -0.9258
  161DOPC  H14A19390   1.422   1.952  17.919 -1.4117  0.0275 -1.9930
  161DOPC  H14B19391   1.511   2.088  18.000  0.3442  1.2170 -1.7889
  161DOPC  H14C19392   1.373   2.122  17.906 -0.0866  0.0346  1.0641
  161DOPC   C1519393   1.582   2.209  17.787  0.3344 -0.0710 -0.0339
  161DOPC  H15A19394   1.487   2.260  17.796  0.6624  0.2960  1.7652
  161DOPC  H15B19395   1.636   2.229  17.696  0.6171  0.4827  0.2553
  161DOPC  H15C19396   1.643   2.241  17.870 -1.5814 -2.3950  2.4978
  161DOPC   C1119397   1.454   1.868  17.654 -0.5956  0.4333 -0.0468
  161DOPC  H11A19398   1.385   1.834  17.734  1.1823  1.0162  1.8220
  161DOPC  H11B19399   1.393   1.844  17.564  1.0194  1.2309 -1.4037
  161DOPC     P19400   1.653   1.777  17.520  0.0554  0.1673 -0.3526
  161DOPC   O1319401   1.597   1.689  17.415 -0.1522  0.4755  0.3625
  161DOPC   O1419402   1.787   1.732  17.552  0.4791  0.1205  0.6323
  161DOPC   O1219403   1.570   1.789  17.656  0.2284 -0.7012 -0.4680
  161DOPC   O1119404   1.670   1.922  17.462  0.3374 -0.0359  0.0304
  161DOPC    C119405   1.593   1.962  17.345 -0.2652  0.1165  0.2899
  161DOPC    HA19406   1.587   2.072  17.342  0.4187  0.2233  1.9864
  161DOPC    HB19407   1.493   1.913  17.332 -0.3434  0.8823 -2.9918
  161DOPC    C219408   1.663   1.912  17.214  0.4978  0.2047  0.8391
  161DOPC    HS19409   1.675   1.801  17.215 -0.3671 -0.0359 -2.5454
  161DOPC   O2119410   1.783   1.989  17.188 -0.1173  0.1053 -0.4470
  161DOPC   C2119411   1.889   1.943  17.261  0.3077  0.3869 -0.7813
  161DOPC   O2219412   1.899   1.830  17.304 -0.2610 -0.0130  0.4347
  161DOPC   C2219413   2.004   2.049  17.289 -0.0350  0.3558 -0.6247
  161DOPC   H2R19414   1.999   2.060  17.399  1.1157  0.0099 -0.5207
  161DOPC   H2S19415   1.961   2.139  17.239 -1.2122 -0.8321 -1.8248
  161DOPC    C319416   1.562   1.933  17.094 -0.1785 -0.2675 -0.0312
  161DOPC    HX19417   1.558   2.044  17.090  1.4331 -0.1941  0.0639
  161DOPC    HY19418   1.463   1.888  17.119 -0.4546  0.4782  0.2492
  161DOPC   O3119419   1.628   1.885  16.974  0.8734 -0.3928 -0.0486
  161DOPC   C3119420   1.584   1.761  16.942 -0.1446 -0.4434  0.0508
  161DOPC   O3219421   1.491   1.699  16.985 -0.8064  0.0608  0.1604
  161DOPC   C3219422   1.666   1.733  16.817 -0.5258  0.4213  0.0541
  161DOPC   H2X19423   1.772   1.759  16.837 -0.1693 -1.4728  0.8817
  161DOPC   H2Y19424   1.676   1.622  16.814  0.4497  0.4865  0.6687
  161DOPC   C2319425   2.141   2.000  17.236 -0.1148  0.5331  0.9019
  161DOPC   H3R19426   2.160   1.891  17.244  0.6451  0.6192  0.3291
  161DOPC   H3S19427   2.220   2.041  17.302  0.8626  1.5193 -0.8233
  161DOPC   C2419428   2.166   2.053  17.090  0.0174  0.2066 -0.0540
  161DOPC   H4R19429   2.136   2.159  17.099  1.0677  0.5358 -0.2363
  161DOPC   H4S19430   2.086   2.005  17.030 -1.4386  1.5650  0.7251
  161DOPC   C2519431   2.311   2.038  17.046  0.0101 -0.3470  0.3558
  161DOPC   H5R19432   2.318   2.025  16.936  0.1077 -1.4360  0.4745
  161DOPC   H5S19433   2.344   1.944  17.095 -0.3325 -0.0305  1.2120
  161DOPC   C2619434   2.408   2.140  17.103  0.1344 -0.4932  0.3708
  161DOPC   H6R19435   2.414   2.126  17.213  0.7992  1.7493  0.6638
  161DOPC   H6S19436   2.362   2.240  17.086  0.7020 -0.5489 -1.8105
  161DOPC   C2719437   2.545   2.136  17.031  0.0608 -0.2250 -0.4372
  161DOPC   H7R19438   2.522   2.195  16.940  0.4982  1.0480  0.2367
  161DOPC   H7S19439   2.573   2.031  17.010  2.2445 -0.2584  2.0984
  161DOPC   C2819440   2.661   2.218  17.099 -0.9862  0.6252 -0.2056
  161DOPC   H8R19441   2.651   2.213  17.210  0.2732  1.0735 -0.0606
  161DOPC   H8S19442   2.646   2.324  17.072  1.8106  1.0537 -0.3986
  161DOPC   C2919443   2.791   2.160  17.043 -0.4268  0.4243 -0.0423
  161DOPC   H9R19444   2.803   2.055  17.071 -0.1972 -0.4928 -3.1911
  161DOPC  C21019445   2.876   2.203  16.946 -0.0117  0.9010 -0.0857
  161DOPC  H10R19446   2.978   2.160  16.948 -0.3644 -0.1061 -1.7471
  161DOPC  C21119447   2.852   2.331  16.875  0.4092  0.7455 -0.3755
  161DOPC  H11R19448   2.942   2.396  16.889  1.3393 -0.5448 -0.1904
  161DOPC  H11S19449   2.765   2.393  16.905  1.0450  2.3745 -1.6737
  161DOPC  C21219450   2.837   2.310  16.722  0.1291  0.0842  0.8691
  161DOPC  H12R19451   2.860   2.409  16.677  1.4863 -0.9199 -0.7588
  161DOPC  H12S19452   2.738   2.263  16.703  0.7822 -1.0476  0.1696
  161DOPC  C21319453   2.945   2.212  16.662  0.4103  0.1124  0.6078
  161DOPC  H13R19454   2.905   2.111  16.680  0.6446 -0.0772  0.0887
  161DOPC  H13S19455   3.041   2.215  16.719  1.1342 -0.7107 -0.5277
  161DOPC  C21419456   2.967   2.250  16.519 -0.7703 -0.5075  0.5006
  161DOPC  H14R19457   3.026   2.344  16.515 -2.1825  0.4130  0.4250
  161DOPC  H14S19458   2.878   2.270  16.455 -0.1912  0.9330  0.1141
  161DOPC  C21519459   3.041   2.147  16.429 -0.3254  0.9006  0.0456
  161DOPC  H15R19460   2.982   2.055  16.409 -0.9954  1.6621 -1.7507
  161DOPC  H15S19461   3.136   2.114  16.475 -1.8556 -3.2784  0.6499
  161DOPC  C21619462   3.069   2.214  16.297  0.3269  0.7276  0.0623
  161DOPC  H16R19463   3.116   2.314  16.313  0.7764  0.5606 -0.2068
  161DOPC  H16S19464   2.975   2.230  16.240  1.0006  2.4250 -0.6536
  161DOPC  C21719465   3.168   2.139  16.196 -0.0103 -0.7217 -0.4121
  161DOPC  H17R19466   3.123   2.042  16.167  0.3987 -1.9695  2.7471
  161DOPC  H17S19467   3.263   2.113  16.248  0.4691 -2.1551 -1.9250
  161DOPC  C21819468   3.190   2.227  16.074  0.2525  0.0729  0.5055
  161DOPC  H18R19469   3.209   2.333  16.100  1.4781  0.1229 -0.4706
  161DOPC  H18S19470   3.094   2.216  16.018  0.5804 -2.2801  0.2967
  161DOPC  H18T19471   3.276   2.207  16.006 -0.6475 -0.8953 -0.3969
  161DOPC   C3319472   1.601   1.786  16.690  0.1848  0.4703  0.2038
  161DOPC   H3X19473   1.600   1.897  16.692  1.5476  0.4974  1.8304
  161DOPC   H3Y19474   1.500   1.740  16.680  1.4771 -2.0418 -3.7214
  161DOPC   C3419475   1.659   1.729  16.561  0.0107  0.2265  0.1063
  161DOPC   H4X19476   1.646   1.618  16.556  1.6806 -0.0039  0.5192
  161DOPC   H4Y19477   1.769   1.735  16.549  0.1568 -0.7452  0.8815
  161DOPC   C3519478   1.611   1.790  16.432  0.0014  0.1917 -0.5609
  161DOPC   H5X19479   1.607   1.900  16.447 -0.5124 -0.0018  0.9941
  161DOPC   H5Y19480   1.509   1.768  16.394  0.2324 -1.0556 -0.4976
  161DOPC   C3619481   1.702   1.760  16.312  0.0354 -0.2205  0.4265
  161DOPC   H6X19482   1.804   1.798  16.332  0.6965 -2.2229  1.1352
  161DOPC   H6Y19483   1.711   1.650  16.298 -2.3821 -0.3227 -1.0126
  161DOPC   C3719484   1.641   1.825  16.183  0.2349  0.4379 -0.3531
  161DOPC   H7X19485   1.683   1.782  16.089  2.2305  0.5129  0.4410
  161DOPC   H7Y19486   1.534   1.796  16.187 -0.1386  1.8490  0.7679
  161DOPC   C3819487   1.656   1.979  16.182  0.0084 -0.0904 -0.2289
  161DOPC   H8X19488   1.763   2.006  16.188  0.1548  0.0160 -2.5797
  161DOPC   H8Y19489   1.594   2.018  16.266 -0.4401 -0.1310 -0.5349
  161DOPC   C3919490   1.604   2.037  16.051  0.2385 -0.4964  0.0711
  161DOPC   H9X19491   1.525   1.974  16.007 -1.1174  0.6984  0.7490
  161DOPC  C31019492   1.657   2.150  15.997 -0.3016 -0.2989  0.1402
  161DOPC  H10X19493   1.612   2.206  15.914  1.9788  0.6044 -0.5746
  161DOPC  C31119494   1.755   2.236  16.074 -0.1697  0.1037  0.5198
  161DOPC  H11X19495   1.852   2.182  16.060  0.2165  0.9354 -0.1547
  161DOPC  H11Y19496   1.728   2.223  16.181 -1.0150 -1.7334  0.1181
  161DOPC  C31219497   1.772   2.379  16.030 -0.5442 -1.0886 -0.2239
  161DOPC  H12X19498   1.815   2.382  15.928  0.8333 -2.3129  0.2827
  161DOPC  H12Y19499   1.843   2.444  16.086 -1.7711  1.4476 -1.4410
  161DOPC  C31319500   1.642   2.463  16.026  0.3558 -0.0726 -0.4340
  161DOPC  H13X19501   1.570   2.409  15.961 -1.1478 -0.4530  1.4369
  161DOPC  H13Y19502   1.600   2.482  16.127  2.9341 -0.0434  0.6980
  161DOPC  C31419503   1.662   2.593  15.946  0.3187  0.4341 -0.1815
  161DOPC  H14X19504   1.732   2.659  16.002 -0.2808  0.3332  0.7182
  161DOPC  H14Y19505   1.728   2.578  15.859 -1.2140  0.7394 -1.4498
  161DOPC  C31519506   1.529   2.669  15.913  0.1535 -0.0518  0.3597
  161DOPC  H15X19507   1.503   2.727  16.004 -2.2134  0.2939 -0.4543
  161DOPC  H15Y19508   1.443   2.604  15.887  0.5857 -0.9912  1.2108
  161DOPC  C31619509   1.549   2.771  15.795 -0.2811  0.0374 -0.3261
  161DOPC  H16X19510   1.632   2.837  15.828 -0.9834  1.6517 -1.6660
  161DOPC  H16Y19511   1.580   2.712  15.706  0.4523  1.4351 -1.0342
  161DOPC  C31719512   1.434   2.864  15.778  0.6557  0.0735  0.0096
  161DOPC  H17X19513   1.335   2.814  15.784  0.3432  0.6202 -0.4564
  161DOPC  H17Y19514   1.432   2.933  15.865  1.6396  1.1264 -0.7734
  161DOPC  C31819515   1.438   2.954  15.653 -0.4556  0.1730  0.1536
  161DOPC  H18X19516   1.341   3.007  15.645 -0.1666  0.5966 -0.8041
  161DOPC  H18Y19517   1.513   3.033  15.675  0.4897 -0.7221  0.2119
  161DOPC  H18Z19518   1.470   2.902  15.559 -0.0644 -1.5792  1.2136
  162DOPC     N19519   0.296   6.504  17.502 -0.0722 -0.4984 -0.3292
  162DOPC   C1219520   0.359   6.485  17.361 -0.2632 -0.2427  0.0138
  162DOPC  H12A19521   0.345   6.384  17.324  1.5605 -0.1197 -1.1528
  162DOPC  H12B19522   0.466   6.495  17.375 -0.2540  1.4730 -1.0772
  162DOPC   C1319523   0.342   6.627  17.585 -0.3814  0.2341  0.2703
  162DOPC  H13A19524   0.300   6.632  17.685  0.7057 -1.1288  0.8372
  162DOPC  H13B19525   0.450   6.620  17.593 -0.4637 -0.0628  1.4269
  162DOPC  H13C19526   0.321   6.720  17.536 -0.3420 -0.6181 -1.4198
  162DOPC   C1419527   0.324   6.381  17.579 -0.3233  0.4713 -0.0571
  162DOPC  H14A19528   0.425   6.371  17.617 -0.6271  0.4417  0.7588
  162DOPC  H14B19529   0.258   6.386  17.664  1.2973  0.4768  1.2727
  162DOPC  H14C19530   0.303   6.293  17.521  0.7107 -0.8232  1.4498
  162DOPC   C1519531   0.148   6.525  17.482  0.5580  0.4326 -1.2026
  162DOPC  H15A19532   0.094   6.537  17.575 -0.6229  0.2095 -1.8441
  162DOPC  H15B19533   0.110   6.437  17.433  0.3925 -0.9069  1.1807
  162DOPC  H15C19534   0.136   6.610  17.417 -3.9036  0.2411 -0.9152
  162DOPC   C1119535   0.320   6.591  17.251 -0.4426 -0.2466 -0.3938
  162DOPC  H11A19536   0.360   6.565  17.150 -3.2374 -0.2288 -1.5863
  162DOPC  H11B19537   0.210   6.601  17.235 -0.8207  0.7205  2.3483
  162DOPC     P19538   0.496   6.782  17.263  0.0015 -0.2971  0.0725
  162DOPC   O1319539   0.592   6.680  17.308  0.4340  0.5720  0.2492
  162DOPC   O1419540   0.503   6.912  17.333  0.0064 -0.2045  0.1769
  162DOPC   O1219541   0.353   6.723  17.279 -0.8426 -0.3279 -0.6732
  162DOPC   O1119542   0.506   6.818  17.111  0.5200 -0.2799  0.2877
  162DOPC    C119543   0.397   6.881  17.049 -0.0725  0.2236 -0.3632
  162DOPC    HA19544   0.415   6.990  17.044  0.7946  0.0889 -0.2630
  162DOPC    HB19545   0.297   6.886  17.097 -0.5884 -1.3769 -1.1664
  162DOPC    C219546   0.380   6.821  16.909 -0.0694 -0.1727 -0.1081
  162DOPC    HS19547   0.349   6.717  16.934 -1.1449  0.4355  1.1992
  162DOPC   O2119548   0.504   6.818  16.837 -0.2675 -0.5240 -0.2180
  162DOPC   C2119549   0.495   6.738  16.733  0.1917 -0.0664  0.1089
  162DOPC   O2219550   0.428   6.634  16.734  0.2827 -0.3736  0.3350
  162DOPC   C2219551   0.573   6.793  16.612  0.0936  0.2943  0.1692
  162DOPC   H2R19552   0.598   6.707  16.546 -2.3588 -0.3210 -0.0531
  162DOPC   H2S19553   0.670   6.837  16.643 -0.0535  0.7208  0.0315
  162DOPC    C319554   0.259   6.890  16.825  0.0700  0.1615 -0.0916
  162DOPC    HX19555   0.287   6.997  16.810 -1.7435  0.8617  1.1655
  162DOPC    HY19556   0.163   6.898  16.880 -1.1822 -1.2213 -1.9486
  162DOPC   O3119557   0.235   6.831  16.693  0.2026  0.1550 -0.1475
  162DOPC   C3119558   0.145   6.743  16.690  0.2397  0.1238 -0.2299
  162DOPC   O3219559   0.082   6.695  16.785  0.0675  0.3381 -0.2171
  162DOPC   C3219560   0.135   6.694  16.541 -0.5456  0.1077 -0.5199
  162DOPC   H2X19561   0.234   6.645  16.526 -1.2555 -2.0888  1.3553
  162DOPC   H2Y19562   0.062   6.610  16.540 -0.1062 -0.2789 -1.6479
  162DOPC   C2319563   0.500   6.890  16.524 -0.0421  0.1412 -0.6038
  162DOPC   H3R19564   0.467   6.974  16.589 -0.0927 -0.1673 -0.2307
  162DOPC   H3S19565   0.409   6.852  16.473 -1.1226  1.1860  0.4870
  162DOPC   C2419566   0.594   6.950  16.416  0.3074 -0.4058 -0.1122
  162DOPC   H4R19567   0.698   6.966  16.451  0.3409 -2.0090  0.6081
  162DOPC   H4S19568   0.547   7.049  16.397  1.0134  0.4130  2.1484
  162DOPC   C2519569   0.590   6.884  16.280 -0.3899  0.2105 -0.2095
  162DOPC   H5R19570   0.624   6.778  16.282  0.2379  0.3935 -0.8269
  162DOPC   H5S19571   0.647   6.938  16.201 -0.5234 -0.4876 -0.7890
  162DOPC   C2619572   0.449   6.878  16.220  0.1263  0.2502  0.1337
  162DOPC   H6R19573   0.398   6.969  16.258 -0.4847 -0.0230 -0.0205
  162DOPC   H6S19574   0.389   6.800  16.272  1.3155 -0.5693  0.3105
  162DOPC   C2719575   0.451   6.886  16.072  0.1450  0.5068  0.8849
  162DOPC   H7R19576   0.502   6.977  16.034 -3.6962  2.1989 -0.7323
  162DOPC   H7S19577   0.345   6.899  16.042  0.1217 -0.4895  0.5035
  162DOPC   C2819578   0.495   6.755  15.995 -0.1601 -0.2824  0.1244
  162DOPC   H8R19579   0.589   6.720  16.043  0.3585  1.6557  0.6011
  162DOPC   H8S19580   0.533   6.775  15.893  1.0400 -3.5950 -0.2054
  162DOPC   C2919581   0.388   6.641  15.987  0.3877 -0.3719 -0.3220
  162DOPC   H9R19582   0.285   6.671  16.014  0.5576 -1.3677  1.6290
  162DOPC  C21019583   0.412   6.522  15.938  0.7210  0.0046 -0.2758
  162DOPC  H10R19584   0.328   6.454  15.916  1.0710 -0.3480 -0.5375
  162DOPC  C21119585   0.549   6.477  15.891  0.2063 -0.4337 -0.6189
  162DOPC  H11R19586   0.582   6.396  15.959 -0.7653 -2.3756 -2.3556
  162DOPC  H11S19587   0.620   6.558  15.916  0.6838 -0.7707 -0.8773
  162DOPC  C21219588   0.567   6.448  15.742  0.4313 -0.1537  0.1532
  162DOPC  H12R19589   0.500   6.522  15.693  0.7663 -0.5905 -1.0065
  162DOPC  H12S19590   0.524   6.346  15.726 -0.7707 -0.3055  3.4795
  162DOPC  C21319591   0.711   6.456  15.688  0.8192 -0.3571 -0.7415
  162DOPC  H13R19592   0.776   6.404  15.761  3.1663  3.0190 -0.2430
  162DOPC  H13S19593   0.740   6.563  15.685 -1.3351  0.2706 -1.5788
  162DOPC  C21419594   0.735   6.404  15.542 -0.2093 -0.1634  0.1363
  162DOPC  H14R19595   0.673   6.463  15.470  0.0196  2.3859  1.9071
  162DOPC  H14S19596   0.697   6.299  15.533  1.4841 -0.8878  0.9886
  162DOPC  C21519597   0.883   6.393  15.499  0.0052 -0.6644  0.4074
  162DOPC  H15R19598   0.952   6.359  15.579  1.5638  2.3252  0.4966
  162DOPC  H15S19599   0.924   6.494  15.477  1.4589 -1.2426  0.3804
  162DOPC  C21619600   0.893   6.307  15.372 -0.2405 -0.4716  0.0457
  162DOPC  H16R19601   0.840   6.365  15.293  0.9504  1.6268  0.6906
  162DOPC  H16S19602   0.842   6.210  15.390  0.8375 -0.8758  1.0974
  162DOPC  C21719603   1.043   6.285  15.325  0.5003 -0.0464  0.0661
  162DOPC  H17R19604   1.086   6.382  15.294 -0.2497  0.4082  0.4122
  162DOPC  H17S19605   1.047   6.233  15.227 -0.2984  2.0286 -1.1212
  162DOPC  C21819606   1.145   6.233  15.427  0.2207 -0.0134 -0.5505
  162DOPC  H18R19607   1.148   6.309  15.509 -1.8836  0.3616 -0.7705
  162DOPC  H18S19608   1.249   6.233  15.386  1.2866 -0.4060  1.9515
  162DOPC  H18T19609   1.124   6.135  15.475  0.3744  0.0730 -0.3007
  162DOPC   C3319610   0.106   6.804  16.445  0.9254  0.0241  0.7226
  162DOPC   H3X19611   0.194   6.871  16.436  0.4657  0.4719 -0.6982
  162DOPC   H3Y19612   0.016   6.862  16.475 -1.6069 -3.7404  1.0148
  162DOPC   C3419613   0.063   6.740  16.309  1.1156  0.6574 -0.7129
  162DOPC   H4X19614  -0.029   6.678  16.309  1.6780 -0.2213 -2.2792
  162DOPC   H4Y19615   0.150   6.674  16.287 -1.2264 -1.8459 -3.1568
  162DOPC   C3519616   0.058   6.849  16.202 -0.8625  0.0516 -0.6897
  162DOPC   H5X19617   0.157   6.895  16.184 -0.8063  0.4684  0.5921
  162DOPC   H5Y19618  -0.009   6.928  16.242 -1.8909 -0.9483 -0.3648
  162DOPC   C3619619   0.004   6.795  16.069 -0.5791  0.5548  0.7724
  162DOPC   H6X19620  -0.013   6.888  16.011  1.0780 -0.9328 -2.3624
  162DOPC   H6Y19621   0.086   6.738  16.020 -0.2615 -0.0212  1.9398
  162DOPC   C3719622  -0.126   6.718  16.073  0.2693 -0.1043  0.1853
  162DOPC   H7X19623  -0.113   6.622  16.127 -0.8669  0.0297  0.7336
  162DOPC   H7Y19624  -0.197   6.776  16.137 -0.2064  1.9316 -2.0450
  162DOPC   C3819625  -0.194   6.687  15.934  0.3444  0.3697  0.5248
  162DOPC   H8X19626  -0.279   6.616  15.944 -0.0461  1.0015  1.7783
  162DOPC   H8Y19627  -0.118   6.640  15.868 -0.5188 -1.6272  0.8556
  162DOPC   C3919628  -0.248   6.812  15.878 -0.1791  0.1642  0.4163
  162DOPC   H9X19629  -0.305   6.870  15.952 -1.7766 -0.8561  0.0420
  162DOPC  C31019630  -0.236   6.869  15.755  0.2559 -0.0613  0.4046
  162DOPC  H10X19631  -0.270   6.972  15.737  0.0687  0.2257  2.1772
  162DOPC  C31119632  -0.178   6.796  15.636  0.1119 -0.0031 -0.3574
  162DOPC  H11X19633  -0.152   6.690  15.659  0.5543 -0.0410 -1.0147
  162DOPC  H11Y19634  -0.083   6.844  15.603 -0.9688  2.3233 -0.2727
  162DOPC  C31219635  -0.270   6.791  15.510 -0.7906 -0.2902 -0.1671
  162DOPC  H12X19636  -0.228   6.727  15.429 -0.4362 -0.6921  0.3291
  162DOPC  H12Y19637  -0.270   6.888  15.455  1.8898 -1.0465 -1.6702
  162DOPC  C31319638  -0.414   6.753  15.546  0.8526 -0.1854  0.4339
  162DOPC  H13X19639  -0.409   6.663  15.612  0.2185 -0.4348  0.1529
  162DOPC  H13Y19640  -0.457   6.833  15.609  1.2628  0.0018  0.4756
  162DOPC  C31419641  -0.511   6.729  15.427 -0.1966 -0.2838  0.0457
  162DOPC  H14X19642  -0.527   6.828  15.377  2.2480  0.4963  0.6800
  162DOPC  H14Y19643  -0.477   6.651  15.356  1.3364  2.3063 -2.2888
  162DOPC  C31519644  -0.650   6.685  15.477 -0.6723  0.2294  0.6201
  162DOPC  H15X19645  -0.692   6.770  15.535  0.4203 -0.3198  2.3152
  162DOPC  H15Y19646  -0.648   6.596  15.544  1.3378 -0.5464 -0.3820
  162DOPC  C31619647  -0.746   6.649  15.366  0.7013 -1.1206  0.0974
  162DOPC  H16X19648  -0.827   6.588  15.412 -1.7365  0.3235 -2.0008
  162DOPC  H16Y19649  -0.795   6.741  15.328 -0.3185 -0.8181  1.9774
  162DOPC  C31719650  -0.714   6.563  15.250  0.2026  0.3741  1.2533
  162DOPC  H17X19651  -0.646   6.624  15.186 -0.3394  0.1941  0.4900
  162DOPC  H17Y19652  -0.651   6.475  15.275  2.8291  1.9867  0.7090
  162DOPC  C31819653  -0.831   6.542  15.158 -0.5090  0.5405 -0.1440
  162DOPC  H18X19654  -0.897   6.457  15.184  1.9478 -1.7402 -0.9374
  162DOPC  H18Y19655  -0.878   6.642  15.154 -0.3711  0.6036 -0.1958
  162DOPC  H18Z19656  -0.782   6.514  15.062  0.6102 -1.3783  0.9146
  163DOPC     N19657   0.376   4.630  17.489 -0.4489  0.1578 -0.3159
  163DOPC   C1219658   0.397   4.499  17.412 -0.0637  0.3024 -0.2602
  163DOPC  H12A19659   0.438   4.428  17.483  0.4820  1.0958  0.2313
  163DOPC  H12B19660   0.476   4.515  17.340  2.4205 -2.3648  1.6482
  163DOPC   C1319661   0.318   4.736  17.402 -0.2509 -0.3517 -0.1539
  163DOPC  H13A19662   0.378   4.740  17.312 -0.7654 -0.1938 -0.4957
  163DOPC  H13B19663   0.216   4.710  17.379 -0.5428 -0.1097  0.8085
  163DOPC  H13C19664   0.319   4.823  17.466  1.4550  0.1892 -0.8760
  163DOPC   C1419665   0.512   4.676  17.539  0.4273  0.3277  0.6402
  163DOPC  H14A19666   0.508   4.770  17.592 -0.4412 -0.5149  2.1387
  163DOPC  H14B19667   0.561   4.601  17.600  0.5059  2.1857  3.0256
  163DOPC  H14C19668   0.573   4.702  17.455  1.7305 -1.2742  1.0484
  163DOPC   C1519669   0.287   4.608  17.608 -0.4588 -0.1630 -0.1321
  163DOPC  H15A19670   0.324   4.521  17.661 -1.1035  0.3831  1.2638
  163DOPC  H15B19671   0.188   4.589  17.569  0.3178 -2.0514 -1.3473
  163DOPC  H15C19672   0.292   4.692  17.677  1.0034  0.6581 -1.1731
  163DOPC   C1119673   0.269   4.448  17.349  0.2719 -0.3876 -0.3457
  163DOPC  H11A19674   0.192   4.436  17.428  1.4331 -0.4203  0.8106
  163DOPC  H11B19675   0.227   4.516  17.272  0.0502 -0.5166 -0.3409
  163DOPC     P19676   0.297   4.297  17.142  0.3617  0.0757  0.2645
  163DOPC   O1319677   0.235   4.164  17.115 -0.3078 -0.2737 -0.0258
  163DOPC   O1419678   0.436   4.313  17.099  0.2145 -0.3315 -0.1186
  163DOPC   O1219679   0.295   4.317  17.296  0.1514  0.0510 -0.1929
  163DOPC   O1119680   0.213   4.410  17.077 -0.0631 -0.5186 -0.3748
  163DOPC    C119681   0.088   4.383  17.004 -0.3913 -0.2929  1.0133
  163DOPC    HA19682   0.039   4.481  16.986 -2.6609 -1.4988  0.2445
  163DOPC    HB19683   0.022   4.308  17.054 -2.0145 -0.6373 -1.4847
  163DOPC    C219684   0.126   4.328  16.863 -0.0414  0.5992  0.2213
  163DOPC    HS19685   0.183   4.233  16.877  0.1064  0.5476 -0.6814
  163DOPC   O2119686   0.196   4.446  16.802 -0.0495  0.0920 -0.1172
  163DOPC   C2119687   0.310   4.418  16.744 -0.2488 -0.1161 -0.5675
  163DOPC   O2219688   0.355   4.303  16.746 -0.0434  0.0941 -0.0191
  163DOPC   C2219689   0.370   4.534  16.663  0.3232 -0.3470 -0.0343
  163DOPC   H2R19690   0.457   4.496  16.606 -0.2829 -0.6039 -0.8247
  163DOPC   H2S19691   0.405   4.622  16.721  0.5763 -0.0519 -0.6251
  163DOPC    C319692  -0.000   4.287  16.782  0.0540  0.4890 -0.1456
  163DOPC    HX19693  -0.045   4.380  16.742 -0.2924  0.5051  0.2676
  163DOPC    HY19694  -0.080   4.241  16.844 -1.0545  3.3180  0.6703
  163DOPC   O3119695   0.050   4.205  16.675  0.3597  0.2184 -0.0272
  163DOPC   C3119696   0.037   4.073  16.680 -0.2217 -0.1911  0.1878
  163DOPC   O3219697  -0.014   4.008  16.765  0.2429  0.1950  0.0000
  163DOPC   C3219698   0.096   4.008  16.557 -0.1490 -0.6556 -1.2758
  163DOPC   H2X19699   0.123   3.904  16.585  0.8897  0.2202  1.2490
  163DOPC   H2Y19700   0.011   4.002  16.485 -0.3822  1.2348 -1.1856
  163DOPC   C2319701   0.277   4.594  16.557 -0.2351  0.1353 -0.3048
  163DOPC   H3R19702   0.339   4.673  16.509  0.0486 -0.6123 -1.2211
  163DOPC   H3S19703   0.191   4.635  16.613 -0.9760  0.0165 -1.3309
  163DOPC   C2419704   0.230   4.505  16.444 -0.9567  0.2518 -0.5421
  163DOPC   H4R19705   0.198   4.406  16.483  1.2972 -1.0436 -1.7945
  163DOPC   H4S19706   0.311   4.486  16.371  0.2116  0.3452  0.7126
  163DOPC   C2519707   0.110   4.557  16.369  0.8259 -0.4535 -0.3516
  163DOPC   H5R19708   0.141   4.652  16.320 -0.3466  0.6675  0.9937
  163DOPC   H5S19709   0.035   4.588  16.445  2.2664  0.3734  0.7989
  163DOPC   C2619710   0.056   4.460  16.260  0.2536 -0.2884 -0.2761
  163DOPC   H6R19711  -0.005   4.379  16.305 -3.9495  2.5853 -0.2469
  163DOPC   H6S19712   0.150   4.418  16.219 -0.6073 -2.5662 -0.0745
  163DOPC   C2719713  -0.032   4.522  16.153 -0.0578 -0.6054  0.1880
  163DOPC   H7R19714   0.034   4.588  16.093  0.0667 -1.3617 -0.5166
  163DOPC   H7S19715  -0.110   4.583  16.205 -1.0574  0.5423 -2.4554
  163DOPC   C2819716  -0.104   4.417  16.064  0.0310 -0.2328  0.8804
  163DOPC   H8R19717  -0.185   4.465  16.006  2.9536  1.9453 -1.7491
  163DOPC   H8S19718  -0.146   4.342  16.134 -1.6229  1.1677  1.4731
  163DOPC   C2919719  -0.008   4.350  15.958 -0.1352  0.2563  0.0306
  163DOPC   H9R19720   0.094   4.382  15.984 -0.2199  0.7171 -0.1886
  163DOPC  C21019721  -0.044   4.286  15.847  0.0223  0.2832  0.4239
  163DOPC  H10R19722   0.033   4.234  15.789  2.4923  0.4910  3.2765
  163DOPC  C21119723  -0.184   4.260  15.800  0.3011 -0.4826  0.4719
  163DOPC  H11R19724  -0.255   4.257  15.885  0.2188  0.4798  0.4524
  163DOPC  H11S19725  -0.187   4.158  15.756 -1.2944  0.1551 -1.0562
  163DOPC  C21219726  -0.228   4.364  15.697  0.7074  1.0762  0.1479
  163DOPC  H12R19727  -0.159   4.381  15.611 -0.7170  1.5858 -0.9292
  163DOPC  H12S19728  -0.257   4.462  15.740 -1.6466 -0.5610  2.6501
  163DOPC  C21319729  -0.351   4.309  15.629  0.1482 -0.2834  0.3040
  163DOPC  H13R19730  -0.422   4.392  15.607  1.2678  0.9179  1.0417
  163DOPC  H13S19731  -0.407   4.239  15.694 -3.6066  1.3914 -0.8453
  163DOPC  C21419732  -0.314   4.254  15.490 -0.6873  0.7915  0.6759
  163DOPC  H14R19733  -0.250   4.166  15.514 -2.4691 -0.0662  2.6744
  163DOPC  H14S19734  -0.250   4.324  15.432  0.5235  0.2875  1.3745
  163DOPC  C21519735  -0.437   4.214  15.412 -0.6679  0.4229 -0.3687
  163DOPC  H15R19736  -0.515   4.291  15.393 -0.4126  0.2907 -2.1417
  163DOPC  H15S19737  -0.482   4.129  15.468  0.3540 -0.3402 -0.6858
  163DOPC  C21619738  -0.403   4.137  15.277  0.1430 -0.2216  0.1529
  163DOPC  H16R19739  -0.332   4.055  15.303 -0.0597 -0.0703  1.2006
  163DOPC  H16S19740  -0.359   4.209  15.204 -0.6220 -0.3510 -0.4515
  163DOPC  C21719741  -0.522   4.054  15.217 -0.3199  0.0290 -0.0144
  163DOPC  H17R19742  -0.609   4.122  15.202  0.7055  1.9190  1.9634
  163DOPC  H17S19743  -0.558   3.985  15.297  1.6883 -0.5023  0.4889
  163DOPC  C21819744  -0.482   3.973  15.093  0.1782 -0.1936 -0.9545
  163DOPC  H18R19745  -0.414   3.888  15.114  0.5000  0.1918 -0.4249
  163DOPC  H18S19746  -0.432   4.038  15.018 -1.4179  0.5431 -1.4301
  163DOPC  H18T19747  -0.575   3.932  15.048 -0.6508 -1.5643  1.7673
  163DOPC   C3319748   0.222   4.081  16.495 -0.2924 -0.5427 -0.2968
  163DOPC   H3X19749   0.308   4.096  16.564  0.7881 -1.7744 -1.3393
  163DOPC   H3Y19750   0.200   4.186  16.468  0.1630 -0.3080  0.2330
  163DOPC   C3419751   0.276   3.994  16.385  0.2666 -0.1939 -0.2973
  163DOPC   H4X19752   0.188   3.973  16.321 -2.6356  0.0775  3.2865
  163DOPC   H4Y19753   0.294   3.892  16.425 -0.2708  0.1298  0.8133
  163DOPC   C3519754   0.399   4.051  16.309 -0.0983  0.2320  0.6619
  163DOPC   H5X19755   0.485   4.032  16.376  0.3460 -0.3385 -0.0504
  163DOPC   H5Y19756   0.390   4.162  16.310 -0.4928  0.2217 -0.4657
  163DOPC   C3619757   0.423   3.997  16.173 -0.3210 -0.5888  0.3969
  163DOPC   H6X19758   0.532   4.012  16.154  0.1501 -3.2367  0.6699
  163DOPC   H6Y19759   0.413   3.887  16.184  2.1101 -0.8358  0.8088
  163DOPC   C3719760   0.332   4.065  16.070 -0.1577 -0.3234  0.2351
  163DOPC   H7X19761   0.229   4.047  16.106 -0.7137  0.8210 -0.7324
  163DOPC   H7Y19762   0.356   4.173  16.070 -2.7418  0.3376  1.8730
  163DOPC   C3819763   0.356   4.013  15.929  0.3165  0.0683  0.8401
  163DOPC   H8X19764   0.327   3.907  15.910 -0.6416  0.0940  2.0285
  163DOPC   H8Y19765   0.466   4.016  15.911  0.2483  0.2868  0.4544
  163DOPC   C3919766   0.268   4.095  15.839 -0.2550  1.0160 -0.2977
  163DOPC   H9X19767   0.163   4.062  15.849  0.7569 -1.9394  2.5438
  163DOPC  C31019768   0.319   4.180  15.748  0.1367  0.5628  0.0107
  163DOPC  H10X19769   0.243   4.236  15.691 -2.8733 -1.4465  1.7870
  163DOPC  C31119770   0.461   4.212  15.729  0.5274 -0.3236  0.1645
  163DOPC  H11X19771   0.500   4.154  15.643 -0.4754  0.0205 -0.5367
  163DOPC  H11Y19772   0.524   4.189  15.817 -0.1447 -1.1648  0.4308
  163DOPC  C31219773   0.476   4.360  15.686 -0.4880  0.0908  0.4949
  163DOPC  H12X19774   0.458   4.424  15.775  1.8657  3.4298 -1.2387
  163DOPC  H12Y19775   0.405   4.388  15.605 -1.2284 -1.3535  0.6148
  163DOPC  C31319776   0.618   4.384  15.637  0.0970 -0.2000  0.5969
  163DOPC  H13X19777   0.702   4.352  15.701 -0.8691 -0.2633  1.8798
  163DOPC  H13Y19778   0.639   4.338  15.538  0.8262  0.9592  0.1835
  163DOPC  C31419779   0.648   4.534  15.609 -0.4771  0.0990 -0.3957
  163DOPC  H14X19780   0.581   4.577  15.531 -0.2917  0.9114 -0.1173
  163DOPC  H14Y19781   0.627   4.591  15.702  1.5111 -0.9169  0.7401
  163DOPC  C31519782   0.796   4.560  15.571  0.4293  0.0366 -0.2635
  163DOPC  H15X19783   0.841   4.537  15.670 -0.2148 -2.0570 -0.3998
  163DOPC  H15Y19784   0.810   4.665  15.538 -0.6370  0.1471 -0.4051
  163DOPC  C31619785   0.852   4.458  15.468  0.0429 -0.3341  0.6581
  163DOPC  H16X19786   0.857   4.366  15.530  1.1128 -0.1738  0.8380
  163DOPC  H16Y19787   0.779   4.455  15.385 -0.5946 -0.1155  1.2060
  163DOPC  C31719788   0.976   4.516  15.388 -0.1048  1.2600 -0.2069
  163DOPC  H17X19789   0.938   4.596  15.321 -1.1229 -0.4708 -1.7785
  163DOPC  H17Y19790   1.051   4.557  15.459 -0.0776  1.5651 -0.4100
  163DOPC  C31819791   1.049   4.411  15.298  0.1232  0.4160 -0.0593
  163DOPC  H18X19792   0.985   4.336  15.245 -0.1486  0.6971 -0.1324
  163DOPC  H18Y19793   1.112   4.465  15.225  0.4248  0.1276 -0.0138
  163DOPC  H18Z19794   1.113   4.348  15.363  1.4766 -0.1541 -1.8463
  164DOPC     N19795   0.347   2.410  17.365  0.0383  0.3407 -0.1381
  164DOPC   C1219796   0.490   2.406  17.304 -0.1899 -0.2711  0.5772
  164DOPC  H12A19797   0.566   2.445  17.370  0.2806 -2.4316  1.4065
  164DOPC  H12B19798   0.482   2.466  17.214 -0.5875 -1.3992 -0.1588
  164DOPC   C1319799   0.307   2.548  17.399  0.0071 -1.2822  0.4687
  164DOPC  H13A19800   0.321   2.625  17.325  1.5616 -1.1978  0.8033
  164DOPC  H13B19801   0.209   2.557  17.444  0.5866 -1.9404  1.9409
  164DOPC  H13C19802   0.380   2.578  17.473  1.1870 -0.4269 -0.9829
  164DOPC   C1419803   0.342   2.335  17.485 -0.0023 -0.0522 -0.4162
  164DOPC  H14A19804   0.402   2.372  17.566 -0.3337 -0.5084  0.0404
  164DOPC  H14B19805   0.244   2.315  17.525  0.1819  2.6636  1.6681
  164DOPC  H14C19806   0.392   2.241  17.471 -0.2581 -0.5042  1.4902
  164DOPC   C1519807   0.257   2.355  17.270  0.6540 -0.0514  0.7712
  164DOPC  H15A19808   0.292   2.263  17.226  1.2933  0.6892 -0.3284
  164DOPC  H15B19809   0.229   2.422  17.190 -2.7243 -2.5574 -0.3888
  164DOPC  H15C19810   0.165   2.331  17.321  0.4534 -0.2026  0.3429
  164DOPC   C1119811   0.545   2.269  17.269 -0.3624  1.0553 -0.1891
  164DOPC  H11A19812   0.490   2.202  17.200  1.0084 -1.0703  0.6760
  164DOPC  H11B19813   0.638   2.291  17.211 -1.1969  0.2401 -1.9095
  164DOPC     P19814   0.693   2.246  17.495 -0.0614 -0.1390 -0.2348
  164DOPC   O1319815   0.721   2.143  17.596 -0.6818  0.3752  0.1069
  164DOPC   O1419816   0.668   2.387  17.541 -0.1474  0.2693 -0.1597
  164DOPC   O1219817   0.573   2.197  17.402 -0.1371  0.0811  0.5881
  164DOPC   O1119818   0.818   2.253  17.395 -0.3433 -0.7518 -0.2268
  164DOPC    C119819   0.887   2.137  17.357  0.2945  0.4474  0.1078
  164DOPC    HA19820   0.894   2.140  17.246 -0.4323  0.5455  0.0602
  164DOPC    HB19821   0.839   2.040  17.382 -1.1453  1.4642  1.4540
  164DOPC    C219822   1.033   2.133  17.408  0.0302 -0.5605  0.1246
  164DOPC    HS19823   1.034   2.146  17.518 -2.3930  0.8050  0.0514
  164DOPC   O2119824   1.099   2.249  17.349 -0.2805 -0.6035  0.6628
  164DOPC   C2119825   1.217   2.263  17.398 -0.1998  0.1857 -0.4777
  164DOPC   O2219826   1.264   2.206  17.494 -0.0141 -0.4511 -0.0052
  164DOPC   C2219827   1.293   2.375  17.325 -0.2050  0.2769  0.0423
  164DOPC   H2R19828   1.258   2.391  17.221  0.8401  3.3833  0.0696
  164DOPC   H2S19829   1.400   2.347  17.321 -0.4091 -0.4487 -0.7658
  164DOPC    C319830   1.096   1.990  17.377 -0.2176 -0.2490  0.6562
  164DOPC    HX19831   1.034   1.920  17.437  0.2106 -1.0282  0.2199
  164DOPC    HY19832   1.204   1.992  17.406  0.3160  1.4627 -1.2718
  164DOPC   O3119833   1.076   1.953  17.240  0.1556  0.5583 -0.0739
  164DOPC   C3119834   1.168   1.992  17.150 -0.5660 -0.4803 -0.5201
  164DOPC   O3219835   1.263   2.065  17.177 -0.0527  0.1930  0.0782
  164DOPC   C3219836   1.117   1.957  17.018  0.3380  0.1650  0.2750
  164DOPC   H2X19837   1.011   1.990  17.013  0.7063  1.1709 -1.8902
  164DOPC   H2Y19838   1.181   2.010  16.945 -1.6768  1.3121 -0.7368
  164DOPC   C2319839   1.282   2.513  17.392  0.4104 -0.2829  0.0516
  164DOPC   H3R19840   1.351   2.523  17.478  2.2619  0.5572 -1.4513
  164DOPC   H3S19841   1.179   2.545  17.416 -0.1214 -0.1686 -2.1818
  164DOPC   C2419842   1.318   2.624  17.294 -0.0550 -0.0700 -0.0335
  164DOPC   H4R19843   1.269   2.721  17.319 -0.1454  0.3241 -1.6637
  164DOPC   H4S19844   1.286   2.602  17.190  1.1631 -1.1389 -0.2037
  164DOPC   C2519845   1.470   2.649  17.292  0.1454  0.2960  0.0871
  164DOPC   H5R19846   1.533   2.558  17.293  0.5637  0.4845 -2.5498
  164DOPC   H5S19847   1.504   2.701  17.384  0.0488  1.2101 -0.3821
  164DOPC   C2619848   1.506   2.731  17.167 -0.3061 -0.6694  0.8935
  164DOPC   H6R19849   1.471   2.680  17.075  1.7107 -1.3530  0.4573
  164DOPC   H6S19850   1.618   2.730  17.164 -0.3145 -2.1230  0.3871
  164DOPC   C2719851   1.449   2.872  17.152  1.2220  0.4437  0.4029
  164DOPC   H7R19852   1.432   2.909  17.255 -0.1834 -0.1937  0.4089
  164DOPC   H7S19853   1.351   2.853  17.103  2.2527  1.0541 -2.0669
  164DOPC   C2819854   1.533   2.977  17.074 -0.5124 -0.2183  0.5878
  164DOPC   H8R19855   1.577   2.945  16.977  0.9396  0.2623  1.0741
  164DOPC   H8S19856   1.617   2.991  17.145 -1.2827 -0.5712  1.5928
  164DOPC   C2919857   1.469   3.110  17.044  0.3632  0.8478 -0.6291
  164DOPC   H9R19858   1.495   3.180  17.125  4.6144 -0.9941 -0.1171
  164DOPC  C21019859   1.386   3.132  16.946 -0.1528  0.6040  0.1193
  164DOPC  H10R19860   1.340   3.230  16.927  0.7640  0.9722 -0.2355
  164DOPC  C21119861   1.346   3.027  16.840  0.1472  0.3506 -0.4263
  164DOPC  H11R19862   1.262   2.971  16.885  0.2796  1.2085  0.9236
  164DOPC  H11S19863   1.423   2.949  16.820  0.0969  0.2524 -0.2376
  164DOPC  C21219864   1.322   3.106  16.710  0.3380  0.3648  0.1671
  164DOPC  H12R19865   1.420   3.145  16.674  0.0031  0.1128 -1.0704
  164DOPC  H12S19866   1.240   3.180  16.722  0.5870  0.9349 -1.4641
  164DOPC  C21319867   1.277   3.001  16.610  0.2926 -0.0293  0.3603
  164DOPC  H13R19868   1.338   2.915  16.573 -1.6493 -0.6733 -1.5894
  164DOPC  H13S19869   1.273   3.049  16.509 -0.1034 -1.6320 -0.4296
  164DOPC  C21419870   1.131   2.953  16.629  1.5034  0.8439  0.5594
  164DOPC  H14R19871   1.070   3.032  16.677  1.7950  0.5606  1.4146
  164DOPC  H14S19872   1.137   2.869  16.702  3.2271  0.8132  0.4274
  164DOPC  C21519873   1.055   2.885  16.510 -0.3613 -0.0130  0.2377
  164DOPC  H15R19874   1.115   2.804  16.464 -0.6694  0.0552 -0.2844
  164DOPC  H15S19875   1.037   2.954  16.425  1.1981 -0.1218 -0.2135
  164DOPC  C21619876   0.922   2.824  16.548  0.0508  0.5470  0.4223
  164DOPC  H16R19877   0.883   2.779  16.454  2.4842 -1.6160  0.3226
  164DOPC  H16S19878   0.850   2.900  16.585 -0.9975  0.0929 -0.6060
  164DOPC  C21719879   0.926   2.713  16.649  0.0993 -0.4607  0.1581
  164DOPC  H17R19880   0.930   2.762  16.749  0.7948 -0.4918  0.1503
  164DOPC  H17S19881   1.022   2.658  16.638  0.0912 -0.6663  1.0089
  164DOPC  C21819882   0.808   2.610  16.646  0.2008  0.9332  0.1026
  164DOPC  H18R19883   0.818   2.539  16.731 -0.4380  0.4533 -0.2180
  164DOPC  H18S19884   0.818   2.549  16.554  2.1005 -1.3178  1.6846
  164DOPC  H18T19885   0.705   2.653  16.644 -0.7703 -1.2424 -2.1026
  164DOPC   C3319886   1.112   1.811  16.976  0.2049 -0.3952 -0.6923
  164DOPC   H3X19887   1.051   1.743  17.039 -0.0007  1.1685  0.8776
  164DOPC   H3Y19888   1.218   1.777  16.971  0.7289 -0.1029  3.8207
  164DOPC   C3419889   1.040   1.794  16.845  0.1516  0.0800 -0.3849
  164DOPC   H4X19890   0.948   1.857  16.843  0.1815  0.1447  0.1487
  164DOPC   H4Y19891   1.017   1.687  16.825  0.8724 -0.4267  1.2852
  164DOPC   C3519892   1.140   1.835  16.736  0.2786  0.1101 -0.2334
  164DOPC   H5X19893   1.231   1.771  16.745  0.8439  1.0703  1.1518
  164DOPC   H5Y19894   1.186   1.936  16.742  0.9665 -0.2899  2.3146
  164DOPC   C3619895   1.094   1.795  16.592 -0.1318 -0.4115  0.7716
  164DOPC   H6X19896   1.075   1.686  16.591  3.0343 -1.0652  2.3324
  164DOPC   H6Y19897   0.999   1.844  16.559  1.0823 -0.0917 -2.6626
  164DOPC   C3719898   1.188   1.844  16.479 -0.5219 -0.2875  0.1986
  164DOPC   H7X19899   1.292   1.830  16.514 -1.9722 -2.9962  4.1063
  164DOPC   H7Y19900   1.153   1.793  16.386 -1.6537  0.7235  0.0451
  164DOPC   C3819901   1.178   1.998  16.458  0.6670  0.7678  0.2695
  164DOPC   H8X19902   1.197   2.039  16.559 -2.7733 -0.4647  1.5549
  164DOPC   H8Y19903   1.076   2.029  16.427  0.2055  0.7480  1.7165
  164DOPC   C3919904   1.277   2.046  16.353  0.8326 -0.2417 -0.5104
  164DOPC   H9X19905   1.325   1.973  16.286  3.4568  1.0850 -0.1988
  164DOPC  C31019906   1.330   2.169  16.343  0.2319 -0.3814 -0.6192
  164DOPC  H10X19907   1.395   2.190  16.257 -0.3640  1.6495 -0.6340
  164DOPC  C31119908   1.288   2.286  16.431  0.2943 -0.3017 -0.2739
  164DOPC  H11X19909   1.367   2.365  16.435 -1.0159  1.0793 -0.7617
  164DOPC  H11Y19910   1.297   2.251  16.536 -3.1918  3.2626  1.4824
  164DOPC  C31219911   1.161   2.356  16.386  0.4512 -0.8941  0.4287
  164DOPC  H12X19912   1.148   2.436  16.463  0.7504  0.2338 -0.6488
  164DOPC  H12Y19913   1.067   2.298  16.385 -2.1512  2.8426  2.5019
  164DOPC  C31319914   1.159   2.429  16.244 -0.8379 -0.0436  0.0642
  164DOPC  H13X19915   1.254   2.484  16.224 -1.1783  0.6709  0.3947
  164DOPC  H13Y19916   1.148   2.343  16.174  0.9352 -0.1243 -0.1585
  164DOPC  C31419917   1.042   2.532  16.248  0.1365  0.0179 -0.6164
  164DOPC  H14X19918   1.063   2.617  16.316  0.4049  1.6112 -2.6087
  164DOPC  H14Y19919   0.954   2.472  16.281  0.1372  0.4765  0.2569
  164DOPC  C31519920   1.012   2.597  16.108  0.3842 -0.5877 -0.2244
  164DOPC  H15X19921   0.913   2.647  16.101 -0.0254 -1.5018 -1.2614
  164DOPC  H15Y19922   1.006   2.513  16.036  1.9267 -0.1098 -0.9544
  164DOPC  C31619923   1.121   2.690  16.049  0.3275 -0.9920 -0.1213
  164DOPC  H16X19924   1.228   2.662  16.059 -0.0359 -1.7493  2.5548
  164DOPC  H16Y19925   1.098   2.684  15.940 -0.8595 -0.8809  0.1150
  164DOPC  C31719926   1.093   2.835  16.092  0.2458 -0.0355 -0.1775
  164DOPC  H17X19927   0.987   2.857  16.067 -0.2363 -2.5667 -0.6930
  164DOPC  H17Y19928   1.110   2.831  16.202  2.2779 -0.0801 -0.4540
  164DOPC  C31819929   1.190   2.934  16.027  0.4827 -0.0219 -0.0912
  164DOPC  H18X19930   1.170   2.927  15.918  0.2714  0.7830 -0.1092
  164DOPC  H18Y19931   1.169   3.037  16.063  0.0015 -0.1320 -0.0483
  164DOPC  H18Z19932   1.295   2.899  16.040  0.3668 -0.1875  0.4366
  165DOPC     N19933   4.752   0.028  17.508  0.2480 -1.1780  0.4068
  165DOPC   C1219934   4.824   0.008  17.370  0.4408 -0.0543  0.0724
  165DOPC  H12A19935   4.882   0.097  17.354  0.4508  0.0405  0.6332
  165DOPC  H12B19936   4.745  -0.019  17.300 -0.5205 -2.3678  1.8950
  165DOPC   C1319937   4.855   0.030  17.617  0.7064  0.0668  0.1709
  165DOPC  H13A19938   4.920   0.115  17.606  1.5811 -0.7090 -0.8348
  165DOPC  H13B19939   4.811   0.024  17.716 -0.2090  0.5767 -0.1873
  165DOPC  H13C19940   4.911  -0.062  17.619 -0.5689 -0.8137  3.7894
  165DOPC   C1419941   4.652  -0.085  17.522  0.1445 -0.3759 -0.3856
  165DOPC  H14A19942   4.627  -0.096  17.627 -1.0519  1.1817 -0.4679
  165DOPC  H14B19943   4.562  -0.073  17.463  0.6424  0.7294 -0.9536
  165DOPC  H14C19944   4.687  -0.183  17.496  3.2704  1.2254 -2.9641
  165DOPC   C1519945   4.682   0.160  17.499  0.1215 -0.4770 -0.7417
  165DOPC  H15A19946   4.637   0.188  17.593 -0.1551  0.4347 -1.1355
  165DOPC  H15B19947   4.606   0.162  17.422 -1.0690  1.1633  0.4090
  165DOPC  H15C19948   4.743   0.247  17.480 -1.7632  0.7754 -1.3531
  165DOPC   C1119949   4.937  -0.105  17.355 -0.1559  0.8219  0.3667
  165DOPC  H11A19950   4.909  -0.206  17.390  3.5681 -0.4384  0.1662
  165DOPC  H11B19951   4.950  -0.117  17.245  1.7721 -0.1320  0.6588
  165DOPC     P19952   5.169   0.031  17.373 -0.1196  0.1330  0.0242
  165DOPC   O1319953   5.298  -0.015  17.437 -0.6460 -0.4837 -0.1403
  165DOPC   O1419954   5.130   0.171  17.380  0.1465 -0.4145  0.7331
  165DOPC   O1219955   5.053  -0.066  17.424 -0.8658  0.2188 -0.4140
  165DOPC   O1119956   5.172  -0.014  17.226 -0.9319  0.8020  0.2566
  165DOPC    C119957   5.286   0.021  17.145  0.3238  0.1294 -0.0975
  165DOPC    HA19958   5.355  -0.065  17.135 -1.0534 -0.9560 -0.5335
  165DOPC    HB19959   5.354   0.097  17.189  0.5680  0.3374 -0.8191
  165DOPC    C219960   5.249   0.058  17.000  0.5764  0.4594 -0.4471
  165DOPC    HS19961   5.325   0.007  16.938 -0.8194 -2.7438  0.2573
  165DOPC   O2119962   5.248   0.198  16.991 -0.1825  0.0018  0.0613
  165DOPC   C2119963   5.364   0.244  16.952  0.1042 -0.0707  0.8504
  165DOPC   O2219964   5.454   0.178  16.898 -0.5411 -0.0092 -0.8722
  165DOPC   C2219965   5.370   0.397  16.963 -0.0540 -0.3964 -0.1273
  165DOPC   H2R19966   5.422   0.422  17.058 -1.8085 -0.0764  0.7892
  165DOPC   H2S19967   5.268   0.440  16.975 -0.3876 -0.8620 -1.1800
  165DOPC    C319968   5.111   0.005  16.964  0.0647 -0.2252  0.1185
  165DOPC    HX19969   5.039   0.073  17.013  0.8817 -0.6698  2.0483
  165DOPC    HY19970   5.098  -0.096  17.010 -1.7038  0.3289  0.9014
  165DOPC   O3119971   5.091   0.003  16.818 -0.1959  0.5201 -0.1873
  165DOPC   C3119972   5.060   0.106  16.749  0.4198 -0.3964  0.1054
  165DOPC   O3219973   5.030   0.216  16.799  0.0114 -0.3724  0.6031
  165DOPC   C3219974   5.079   0.077  16.598 -0.3696  0.7122  0.6087
  165DOPC   H2X19975   5.021  -0.007  16.555  0.5477  0.3446  0.0714
  165DOPC   H2Y19976   5.026   0.156  16.540  0.9051  0.0954 -1.4945
  165DOPC   C2319977   5.440   0.473  16.849  0.7923 -0.5884 -0.0451
  165DOPC   H3R19978   5.518   0.418  16.792 -0.2430  0.7249 -2.9014
  165DOPC   H3S19979   5.490   0.559  16.898  1.1109  1.1370 -3.1352
  165DOPC   C2419980   5.344   0.547  16.748 -0.5631 -0.1320 -0.0350
  165DOPC   H4R19981   5.393   0.643  16.723 -0.2757  0.3582  2.2115
  165DOPC   H4S19982   5.251   0.569  16.806 -0.4699 -2.0801  0.9389
  165DOPC   C2519983   5.328   0.475  16.622  0.5780  0.0259  0.5723
  165DOPC   H5R19984   5.298   0.370  16.646 -2.2994  0.3761 -1.0403
  165DOPC   H5S19985   5.425   0.489  16.569 -0.6646  0.6677 -1.6854
  165DOPC   C2619986   5.218   0.534  16.531 -0.0237  0.2685  0.0084
  165DOPC   H6R19987   5.234   0.644  16.520 -0.1182  0.3204  0.3968
  165DOPC   H6S19988   5.121   0.537  16.585 -0.9776  1.2825 -1.6470
  165DOPC   C2719989   5.211   0.467  16.391  0.0252 -0.0309  0.9246
  165DOPC   H7R19990   5.153   0.546  16.338  1.1039 -0.8182 -1.5748
  165DOPC   H7S19991   5.145   0.378  16.398 -0.1759 -0.2194 -2.0938
  165DOPC   C2819992   5.340   0.444  16.309  0.4654  0.4378 -0.0816
  165DOPC   H8R19993   5.318   0.359  16.240  1.7205  0.2968 -0.3305
  165DOPC   H8S19994   5.418   0.397  16.372  0.3570  0.9842  0.4695
  165DOPC   C2919995   5.389   0.560  16.233 -0.2585 -0.5072 -0.2134
  165DOPC   H9R19996   5.410   0.646  16.299 -0.5059  0.4566 -1.3612
  165DOPC  C21019997   5.391   0.581  16.097 -0.3356 -0.0832 -0.5218
  165DOPC  H10R19998   5.433   0.673  16.054  1.6571  0.6379  2.6806
  165DOPC  C21119999   5.345   0.488  15.993 -0.0516 -0.0437  0.3751
  165DOPC  H11R20000   5.254   0.533  15.948  0.2899  1.6438  1.3021
  165DOPC  H11S20001   5.311   0.393  16.039 -0.4738  0.2099  0.5875
  165DOPC  C21220002   5.450   0.466  15.884 -0.4319 -0.7160 -0.2177
  165DOPC  H12R20003   5.411   0.391  15.812 -2.5043 -0.4651  0.5789
  165DOPC  H12S20004   5.536   0.411  15.928 -1.0601 -1.7798 -0.2900
  165DOPC  C21320005   5.495   0.585  15.795 -0.3714 -0.1632 -0.3232
  165DOPC  H13R20006   5.565   0.656  15.845 -1.9171  2.0369 -1.1264
  165DOPC  H13S20007   5.406   0.650  15.781 -0.9587 -0.1377  2.8258
  165DOPC  C21420008   5.554   0.564  15.651 -0.0897 -0.2061  0.7866
  165DOPC  H14R20009   5.474   0.531  15.582  0.9517  0.2727 -0.6942
  165DOPC  H14S20010   5.634   0.486  15.656  1.7047  1.4940 -0.1489
  165DOPC  C21520011   5.620   0.689  15.589 -0.0969  0.4237 -0.2980
  165DOPC  H15R20012   5.673   0.643  15.504 -1.0215  0.6128 -0.9835
  165DOPC  H15S20013   5.689   0.724  15.670 -0.5689 -1.0360  0.7790
  165DOPC  C21620014   5.518   0.800  15.555 -0.1387  0.3862 -0.4161
  165DOPC  H16R20015   5.443   0.810  15.637  1.1022  1.3933  0.6422
  165DOPC  H16S20016   5.455   0.768  15.469 -1.2572  1.0814  0.1072
  165DOPC  C21720017   5.577   0.936  15.524  0.2547 -0.4290  1.0065
  165DOPC  H17R20018   5.640   0.947  15.614  0.4667 -0.7104  0.8940
  165DOPC  H17S20019   5.498   1.014  15.524  1.7994  1.2116  0.3640
  165DOPC  C21820020   5.666   0.952  15.400 -0.0298  0.1046  0.1014
  165DOPC  H18R20021   5.726   1.045  15.402  0.0431  0.0403  1.0962
  165DOPC  H18S20022   5.590   0.967  15.320 -1.3720 -1.0182  1.1241
  165DOPC  H18T20023   5.744   0.875  15.380  0.3898  0.2513  1.1306
  165DOPC   C3320024   5.223   0.058  16.554 -0.5859  0.2692 -0.2464
  165DOPC   H3X20025   5.271  -0.030  16.603  0.9485  2.3951  2.3478
  165DOPC   H3Y20026   5.283   0.139  16.600 -1.7238  0.5081  0.8753
  165DOPC   C3420027   5.250   0.058  16.407  0.5977 -0.3122  0.0207
  165DOPC   H4X20028   5.358   0.044  16.385  0.7138  0.8008 -0.2009
  165DOPC   H4Y20029   5.228   0.159  16.366  2.3387  0.1296  0.0742
  165DOPC   C3520030   5.164  -0.045  16.329  0.1686 -0.7315  0.2747
  165DOPC   H5X20031   5.056  -0.025  16.343  0.0329 -0.2057 -1.3768
  165DOPC   H5Y20032   5.183  -0.144  16.376  0.9516 -1.3270 -1.2455
  165DOPC   C3620033   5.207  -0.076  16.187  0.4637  0.3702  0.4139
  165DOPC   H6X20034   5.309  -0.040  16.163  0.8022 -0.0799  1.1685
  165DOPC   H6Y20035   5.197  -0.181  16.154  1.2728  0.5136 -0.3060
  165DOPC   C3720036   5.113  -0.009  16.084 -0.6952 -0.9081 -0.2042
  165DOPC   H7X20037   5.013  -0.055  16.093 -2.0122  2.0577  2.1857
  165DOPC   H7Y20038   5.161  -0.029  15.986  3.8939  1.2836  1.2874
  165DOPC   C3820039   5.105   0.144  16.098  0.6138 -0.2898 -0.0965
  165DOPC   H8X20040   5.208   0.183  16.087  0.7605 -1.0059 -1.4545
  165DOPC   H8Y20041   5.079   0.172  16.202 -1.4196 -0.9259 -0.3737
  165DOPC   C3920042   5.005   0.209  16.010  0.2415 -0.3698 -0.2131
  165DOPC   H9X20043   5.036   0.235  15.908 -1.5335 -0.1103 -0.7295
  165DOPC  C31020044   4.880   0.245  16.039 -0.1405  0.0891  0.2180
  165DOPC  H10X20045   4.825   0.284  15.952  1.9318 -0.7658 -1.5756
  165DOPC  C31120046   4.814   0.217  16.164 -0.3662  0.9469 -0.7288
  165DOPC  H11X20047   4.876   0.158  16.235 -0.9803  0.9134 -0.2118
  165DOPC  H11Y20048   4.715   0.171  16.150  0.5141 -1.6678  0.8486
  165DOPC  C31220049   4.791   0.339  16.256 -0.7465 -0.9161 -0.0938
  165DOPC  H12X20050   4.738   0.417  16.197  1.0081  1.0283  0.7695
  165DOPC  H12Y20051   4.890   0.386  16.276 -0.8958 -0.8139  0.4194
  165DOPC  C31320052   4.723   0.296  16.383 -0.4324  0.2125 -0.0894
  165DOPC  H13X20053   4.624   0.253  16.358 -0.2473  0.4138 -1.2135
  165DOPC  H13Y20054   4.779   0.211  16.428 -2.1292 -0.2852  1.2152
  165DOPC  C31420055   4.703   0.404  16.495 -0.5433 -0.3852  0.0202
  165DOPC  H14X20056   4.799   0.437  16.540 -0.7509 -0.4818  0.5447
  165DOPC  H14Y20057   4.642   0.485  16.449  0.4385 -0.7121 -1.9405
  165DOPC  C31520058   4.623   0.342  16.605  0.6550  0.2277 -0.1469
  165DOPC  H15X20059   4.675   0.250  16.639  1.6736  0.6995 -0.3823
  165DOPC  H15Y20060   4.520   0.314  16.573  0.5497  1.6792 -1.1473
  165DOPC  C31620061   4.618   0.435  16.724  0.4546  0.2368  0.9126
  165DOPC  H16X20062   4.719   0.467  16.757  0.8068 -0.8018  0.8752
  165DOPC  H16Y20063   4.569   0.531  16.696 -0.3673 -0.5899 -0.6189
  165DOPC  C31720064   4.530   0.377  16.839 -0.6678 -0.0413 -0.4354
  165DOPC  H17X20065   4.431   0.332  16.813 -0.9500 -0.0060  0.5329
  165DOPC  H17Y20066   4.595   0.293  16.872 -3.0993 -2.8573 -2.2388
  165DOPC  C31820067   4.503   0.481  16.944  0.5101  0.0091  0.0009
  165DOPC  H18X20068   4.466   0.426  17.034  1.7948 -0.9206 -0.0078
  165DOPC  H18Y20069   4.589   0.546  16.971  2.1657 -1.4370 -1.5730
  165DOPC  H18Z20070   4.419   0.549  16.915 -0.0692  0.1014  1.7710
  166DOPC     N20071   0.045   3.331  17.443 -0.8262  0.0482 -0.1025
  166DOPC   C1220072   0.030   3.269  17.310 -0.1763 -0.0353 -0.1299
  166DOPC  H12A20073  -0.035   3.183  17.316 -0.2724  0.1402  1.5912
  166DOPC  H12B20074   0.125   3.243  17.265  0.8441  1.5833  1.0013
  166DOPC   C1320075   0.112   3.236  17.533  0.2165 -0.1197 -0.1897
  166DOPC  H13A20076   0.131   3.275  17.632  0.9821 -2.4483  0.6366
  166DOPC  H13B20077   0.063   3.139  17.533  1.8957 -0.9969 -0.7769
  166DOPC  H13C20078   0.211   3.211  17.501  0.5009 -0.6093  0.9969
  166DOPC   C1420079  -0.076   3.372  17.507 -0.6838  0.5068 -0.2665
  166DOPC  H14A20080  -0.145   3.419  17.438  0.2879  1.6867 -0.4642
  166DOPC  H14B20081  -0.131   3.284  17.537 -0.7777  0.1735 -1.3888
  166DOPC  H14C20082  -0.061   3.440  17.590  0.3778  0.8219 -0.6913
  166DOPC   C1520083   0.139   3.451  17.430  0.4398  0.2604  0.3162
  166DOPC  H15A20084   0.102   3.513  17.351 -0.6099  2.1744  2.2088
  166DOPC  H15B20085   0.241   3.423  17.405  0.2532  0.9348 -1.3223
  166DOPC  H15C20086   0.125   3.508  17.521 -1.4705  0.2710  0.0557
  166DOPC   C1120087  -0.050   3.351  17.198 -0.0769  0.0241  0.1404
  166DOPC  H11A20088  -0.004   3.450  17.177 -2.0600  1.0613  0.3800
  166DOPC  H11B20089  -0.049   3.304  17.098  0.8507  1.7441 -0.7102
  166DOPC     P20090  -0.289   3.260  17.220 -0.1495  0.3314  0.3901
  166DOPC   O1320091  -0.418   3.301  17.278 -0.0406 -0.1668  0.5241
  166DOPC   O1420092  -0.222   3.134  17.267  0.5484 -0.0967  0.4515
  166DOPC   O1220093  -0.185   3.376  17.241 -0.3770 -0.1077 -0.2621
  166DOPC   O1120094  -0.292   3.247  17.064 -0.4392  0.6361  0.0381
  166DOPC    C120095  -0.293   3.354  16.971 -0.0137 -0.0437  0.4771
  166DOPC    HA20096  -0.229   3.327  16.884  0.4484  0.1777  0.7448
  166DOPC    HB20097  -0.250   3.447  17.014  1.6091 -0.8346  0.6264
  166DOPC    C220098  -0.438   3.363  16.912 -0.3606 -0.2414  0.0129
  166DOPC    HS20099  -0.509   3.358  16.998 -0.1019 -2.7617  0.1378
  166DOPC   O2120100  -0.450   3.245  16.820  0.2049 -0.2728 -0.0803
  166DOPC   C2120101  -0.568   3.223  16.776 -0.4405  0.0907 -0.2489
  166DOPC   O2220102  -0.666   3.281  16.809 -0.3570  0.4185 -0.5933
  166DOPC   C2220103  -0.572   3.122  16.672 -1.0578  0.1613 -0.0145
  166DOPC   H2R20104  -0.677   3.109  16.637 -2.0573  0.4299  2.6531
  166DOPC   H2S20105  -0.536   3.027  16.716  0.8385  0.5365 -0.6610
  166DOPC    C320106  -0.466   3.495  16.827  0.0489  0.1536  0.5643
  166DOPC    HX20107  -0.429   3.577  16.892  0.2323  0.9021 -0.4623
  166DOPC    HY20108  -0.576   3.503  16.811  0.3168  3.1431 -0.3805
  166DOPC   O3120109  -0.401   3.493  16.693  0.3727 -0.3254 -0.1842
  166DOPC   C3120110  -0.304   3.575  16.666 -0.3475  0.4035  0.4243
  166DOPC   O3220111  -0.251   3.657  16.735  0.2713 -0.7948  0.6613
  166DOPC   C3220112  -0.270   3.556  16.521 -0.5971 -0.8471 -0.2182
  166DOPC   H2X20113  -0.285   3.447  16.502 -0.2567 -0.9455  0.0694
  166DOPC   H2Y20114  -0.350   3.609  16.465  0.8340 -0.6921 -2.1957
  166DOPC   C2320115  -0.489   3.178  16.544  0.0014  1.4259 -0.2835
  166DOPC   H3R20116  -0.385   3.183  16.583  0.6132 -2.2505 -1.0071
  166DOPC   H3S20117  -0.530   3.273  16.505  0.8853  1.2746 -1.6375
  166DOPC   C2420118  -0.506   3.077  16.423  0.1652 -0.5026  0.2361
  166DOPC   H4R20119  -0.615   3.064  16.404  0.1726 -1.0914  0.5938
  166DOPC   H4S20120  -0.454   2.987  16.461  2.5784  1.3505  1.6047
  166DOPC   C2520121  -0.439   3.120  16.297  0.2837 -0.2283 -0.0329
  166DOPC   H5R20122  -0.491   3.209  16.257  1.7290  1.6741  2.0658
  166DOPC   H5S20123  -0.454   3.036  16.226 -1.7387 -0.5671  0.7142
  166DOPC   C2620124  -0.288   3.161  16.327  0.2221 -0.3326  0.1043
  166DOPC   H6R20125  -0.245   3.068  16.369 -0.0277 -1.4118 -1.8942
  166DOPC   H6S20126  -0.294   3.246  16.398  0.8841  0.6089 -0.9276
  166DOPC   C2720127  -0.207   3.191  16.203  0.8147 -0.5226  0.6084
  166DOPC   H7R20128  -0.202   3.102  16.137 -2.0759  0.9362 -1.9095
  166DOPC   H7S20129  -0.102   3.223  16.217  0.9748 -0.5728 -0.3639
  166DOPC   C2820130  -0.272   3.309  16.128 -0.1164 -0.5333 -0.1249
  166DOPC   H8R20131  -0.287   3.400  16.191 -0.1561 -0.0298 -0.8513
  166DOPC   H8S20132  -0.372   3.281  16.089 -0.2309 -0.6024  0.2160
  166DOPC   C2920133  -0.190   3.369  16.015 -0.0815  0.0023 -0.7670
  166DOPC   H9R20134  -0.102   3.426  16.050 -0.7112  1.3052 -1.2185
  166DOPC  C21020135  -0.224   3.368  15.876 -0.6590 -0.6653  0.2473
  166DOPC  H10R20136  -0.159   3.425  15.808 -1.5361 -1.5181 -1.3803
  166DOPC  C21120137  -0.340   3.302  15.818 -0.2760 -0.8156 -0.1335
  166DOPC  H11R20138  -0.410   3.255  15.890 -0.4027  1.0524  1.0256
  166DOPC  H11S20139  -0.305   3.216  15.758 -0.3582 -0.9740  0.0429
  166DOPC  C21220140  -0.428   3.395  15.730  0.9004 -0.2727  0.4907
  166DOPC  H12R20141  -0.458   3.481  15.793  0.3263 -0.3499  0.3318
  166DOPC  H12S20142  -0.524   3.351  15.693  0.0165  2.0523 -0.1379
  166DOPC  C21320143  -0.361   3.431  15.598 -0.4070 -0.6074 -0.1222
  166DOPC  H13R20144  -0.301   3.345  15.563  1.8721 -0.0513  2.1987
  166DOPC  H13S20145  -0.301   3.522  15.619  0.7173 -1.9335  2.9003
  166DOPC  C21420146  -0.464   3.462  15.485  0.4719  0.1323 -0.7832
  166DOPC  H14R20147  -0.499   3.566  15.499 -0.0131 -0.1022 -0.1979
  166DOPC  H14S20148  -0.551   3.394  15.502  0.9085 -1.1397 -3.1953
  166DOPC  C21520149  -0.405   3.449  15.345  0.6228  0.0825 -0.6030
  166DOPC  H15R20150  -0.487   3.427  15.273 -0.5188  0.1995  0.6141
  166DOPC  H15S20151  -0.340   3.359  15.338 -1.6547 -1.5583 -1.8932
  166DOPC  C21620152  -0.316   3.565  15.300 -0.8766  0.3092  0.1233
  166DOPC  H16R20153  -0.236   3.584  15.375 -0.1781 -2.6964  0.2735
  166DOPC  H16S20154  -0.387   3.649  15.285 -0.0923  0.9445 -0.0749
  166DOPC  C21720155  -0.235   3.530  15.172 -0.4538 -0.2483  0.2133
  166DOPC  H17R20156  -0.161   3.450  15.193 -1.0406 -0.8945 -0.1185
  166DOPC  H17S20157  -0.174   3.621  15.152  2.4178 -1.7758  1.3727
  166DOPC  C21820158  -0.311   3.495  15.045  0.0855  0.3872 -0.2057
  166DOPC  H18R20159  -0.364   3.399  15.060  0.5118 -0.2871 -2.5962
  166DOPC  H18S20160  -0.242   3.479  14.960  1.8885 -1.8782  1.5668
  166DOPC  H18T20161  -0.386   3.573  15.020 -1.6445 -1.1028  0.1252
  166DOPC   C3320162  -0.139   3.616  16.482  0.2859  0.0709  0.8298
  166DOPC   H3X20163  -0.055   3.555  16.522  0.6626  0.8252  1.2091
  166DOPC   H3Y20164  -0.127   3.724  16.502 -0.3500  1.1340 -3.5542
  166DOPC   C3420165  -0.108   3.595  16.324  0.1111 -0.3644 -0.4887
  166DOPC   H4X20166  -0.205   3.621  16.276  0.7379  4.2095  0.2768
  166DOPC   H4Y20167  -0.073   3.491  16.306 -1.6146 -1.6388  2.7091
  166DOPC   C3520168  -0.005   3.685  16.252 -0.0949 -0.4648  0.2881
  166DOPC   H5X20169  -0.029   3.792  16.272  0.3186 -0.2733 -0.2394
  166DOPC   H5Y20170  -0.004   3.669  16.143 -1.4544 -3.1871  0.5989
  166DOPC   C3620171   0.136   3.673  16.306 -0.2694  0.1574  0.1914
  166DOPC   H6X20172   0.188   3.765  16.272  0.3180  0.3626  1.5787
  166DOPC   H6Y20173   0.126   3.679  16.416  0.2178 -1.0649  0.3099
  166DOPC   C3720174   0.200   3.538  16.263  0.5725  0.2573 -0.1783
  166DOPC   H7X20175   0.301   3.529  16.309  0.3924  1.7854  0.5950
  166DOPC   H7Y20176   0.140   3.453  16.302  1.0352 -0.6456 -1.3780
  166DOPC   C3820177   0.210   3.518  16.112 -0.3139  0.1710  0.1120
  166DOPC   H8X20178   0.107   3.504  16.071  0.0799  2.3560 -1.8205
  166DOPC   H8Y20179   0.264   3.421  16.102  1.6764  1.2419  0.1147
  166DOPC   C3920180   0.286   3.627  16.045  0.1025  0.2278  0.6187
  166DOPC   H9X20181   0.235   3.724  16.050  0.9290  0.6561  0.7407
  166DOPC  C31020182   0.414   3.625  15.991  0.3455  0.5844  0.1522
  166DOPC  H10X20183   0.453   3.716  15.942  1.4208  0.3508  0.5576
  166DOPC  C31120184   0.498   3.501  15.979  0.1102 -0.5922  0.5590
  166DOPC  H11X20185   0.447   3.407  16.007 -0.2418 -0.8472 -0.8800
  166DOPC  H11Y20186   0.595   3.507  16.034  0.9087  1.3109 -0.9142
  166DOPC  C31220187   0.550   3.474  15.837 -0.3493 -0.3489  0.8492
  166DOPC  H12X20188   0.603   3.566  15.805 -0.1627 -0.9199 -0.5403
  166DOPC  H12Y20189   0.476   3.472  15.755 -0.7529  2.1777  1.0738
  166DOPC  C31320190   0.644   3.350  15.820  0.3616 -0.2131  0.3668
  166DOPC  H13X20191   0.675   3.336  15.715 -1.3218  0.2088 -0.2160
  166DOPC  H13Y20192   0.741   3.375  15.869  0.4016 -0.5702  0.4735
  166DOPC  C31420193   0.583   3.225  15.886 -0.3590 -0.5375  0.1925
  166DOPC  H14X20194   0.590   3.247  15.994  0.6002  0.9247 -0.1347
  166DOPC  H14Y20195   0.479   3.203  15.855  0.1942 -1.5021 -1.1384
  166DOPC  C31520196   0.674   3.106  15.868 -0.3904  0.3669  0.3563
  166DOPC  H15X20197   0.655   3.037  15.954  0.9774  0.0486  0.4193
  166DOPC  H15Y20198   0.780   3.136  15.882  0.0165  1.0238 -3.3263
  166DOPC  C31620199   0.666   3.021  15.744  0.1525 -0.3550 -0.1228
  166DOPC  H16X20200   0.566   2.972  15.734  0.2457 -0.6896  0.5257
  166DOPC  H16Y20201   0.671   3.096  15.662  1.5277  0.1474  0.3994
  166DOPC  C31720202   0.778   2.922  15.720 -0.9035  0.0033 -0.1427
  166DOPC  H17X20203   0.777   2.888  15.615  0.4766  0.8062 -0.4432
  166DOPC  H17Y20204   0.884   2.954  15.728 -0.9130  0.1460 -0.5496
  166DOPC  C31820205   0.765   2.796  15.803  0.2146 -0.2317 -0.2935
  166DOPC  H18X20206   0.659   2.761  15.799  0.3285 -0.5219 -1.0076
  166DOPC  H18Y20207   0.832   2.718  15.759 -2.3021 -1.4036 -2.3268
  166DOPC  H18Z20208   0.793   2.823  15.907  0.4751  2.2182 -0.9324
  167DOPC     N20209   7.145   2.805  17.460  0.0868 -0.1692 -0.9192
  167DOPC   C1220210   7.168   2.675  17.384 -0.8356  0.6382  0.0203
  167DOPC  H12A20211   7.190   2.593  17.451 -0.3236 -0.7789 -1.7816
  167DOPC  H12B20212   7.254   2.686  17.320 -1.3029 -0.5218 -0.8416
  167DOPC   C1320213   7.265   2.826  17.551 -0.2723  0.1758  0.5379
  167DOPC  H13A20214   7.306   2.735  17.592 -1.0469 -0.2361  0.4207
  167DOPC  H13B20215   7.348   2.872  17.499 -1.0189  0.4188 -0.4829
  167DOPC  H13C20216   7.240   2.893  17.632  2.4415  0.2869  1.3737
  167DOPC   C1420217   7.016   2.802  17.536  0.3475  0.0108  0.3754
  167DOPC  H14A20218   7.000   2.892  17.594 -3.3118  1.0330 -1.8359
  167DOPC  H14B20219   6.929   2.798  17.472 -0.5058  3.2178  1.1475
  167DOPC  H14C20220   7.025   2.719  17.603  1.7076 -0.3766 -0.2607
  167DOPC   C1520221   7.132   2.919  17.361 -0.4341 -0.1705  0.3604
  167DOPC  H15A20222   7.227   2.949  17.318  0.1794 -0.4557  1.4720
  167DOPC  H15B20223   7.090   3.008  17.404 -0.1624  0.1664 -0.0632
  167DOPC  H15C20224   7.062   2.886  17.286 -0.4170 -1.3916  0.8565
  167DOPC   C1120225   7.067   2.631  17.282  0.3712 -0.1083  0.4299
  167DOPC  H11A20226   7.097   2.535  17.235 -2.0832 -1.4583  1.4430
  167DOPC  H11B20227   6.973   2.604  17.334 -0.6405 -0.4719 -1.4949
  167DOPC     P20228   6.923   2.735  17.097 -0.1775 -0.4438 -0.1173
  167DOPC   O1320229   6.891   2.882  17.100  0.1940  0.4705 -0.6147
  167DOPC   O1420230   6.829   2.633  17.144  0.5100 -0.0479  0.1552
  167DOPC   O1220231   7.057   2.722  17.168 -0.0053 -0.1990 -0.1986
  167DOPC   O1120232   6.965   2.697  16.944  0.5194 -0.6972  0.4370
  167DOPC    C120233   7.078   2.754  16.885 -0.9693  0.2896  0.4029
  167DOPC    HA20234   7.163   2.764  16.955 -0.1850  1.3215 -0.6641
  167DOPC    HB20235   7.050   2.852  16.841  2.7047  0.6602 -1.4827
  167DOPC    C220236   7.112   2.676  16.763  0.7329  0.0781  0.4956
  167DOPC    HS20237   7.131   2.569  16.784  1.2189 -0.2446 -1.3963
  167DOPC   O2120238   7.217   2.738  16.685  0.1223 -0.1221 -0.1506
  167DOPC   C2120239   7.335   2.706  16.743  0.2983 -0.3295  0.2891
  167DOPC   O2220240   7.352   2.633  16.838 -0.2030 -0.2958 -0.2119
  167DOPC   C2220241   7.448   2.767  16.662  0.2441 -0.0905 -0.7654
  167DOPC   H2R20242   7.484   2.853  16.722 -2.9947  0.1382  1.0697
  167DOPC   H2S20243   7.407   2.805  16.566 -1.7049 -1.7194 -0.6449
  167DOPC    C320244   6.992   2.671  16.669  0.4399 -0.9145  0.2877
  167DOPC    HX20245   6.925   2.760  16.676  1.6392  0.0421 -0.1890
  167DOPC    HY20246   6.923   2.587  16.692 -0.2544 -1.2055 -2.4734
  167DOPC   O3120247   7.022   2.663  16.528 -0.2094 -0.2660 -0.9710
  167DOPC   C3120248   7.053   2.545  16.477 -0.3381 -1.1638 -0.2762
  167DOPC   O3220249   7.053   2.442  16.542  0.0840 -0.1453 -0.4383
  167DOPC   C3220250   7.106   2.551  16.335  0.2110 -0.1609 -0.4582
  167DOPC   H2X20251   7.176   2.465  16.329  0.0347 -0.3384 -0.0322
  167DOPC   H2Y20252   7.029   2.535  16.257  0.0272 -3.3963  0.2434
  167DOPC   C2320253   7.567   2.665  16.635  0.6224 -0.5642  0.7430
  167DOPC   H3R20254   7.516   2.569  16.613  0.7603 -0.1683 -1.5703
  167DOPC   H3S20255   7.630   2.651  16.726  2.6553 -0.2437 -0.5319
  167DOPC   C2420256   7.669   2.701  16.520  1.0826  0.1900 -0.4135
  167DOPC   H4R20257   7.742   2.620  16.503 -0.9191 -1.5271 -1.3218
  167DOPC   H4S20258   7.723   2.791  16.558  0.6323  0.8891 -1.3819
  167DOPC   C2520259   7.599   2.721  16.380  0.3014  0.1549  0.1324
  167DOPC   H5R20260   7.534   2.811  16.379 -0.5912 -0.4852 -0.2028
  167DOPC   H5S20261   7.532   2.635  16.360  1.4493 -0.4519 -1.2623
  167DOPC   C2620262   7.701   2.723  16.258 -0.0295  0.6979  0.0216
  167DOPC   H6R20263   7.643   2.721  16.163 -0.6668  2.9237  0.3221
  167DOPC   H6S20264   7.761   2.630  16.253 -1.0729  0.0597 -1.3279
  167DOPC   C2720265   7.786   2.850  16.244  0.2942 -0.5890  0.0392
  167DOPC   H7R20266   7.860   2.865  16.326  0.7513 -0.8522 -0.3230
  167DOPC   H7S20267   7.712   2.932  16.233 -0.7897 -1.5875 -0.3190
  167DOPC   C2820268   7.873   2.837  16.114  0.4150 -0.3984 -0.7754
  167DOPC   H8R20269   7.808   2.785  16.040 -0.6639 -0.3809  0.1290
  167DOPC   H8S20270   7.953   2.762  16.123 -0.8315 -1.5571  1.5120
  167DOPC   C2920271   7.924   2.965  16.074 -0.3772  0.7092 -0.3366
  167DOPC   H9R20272   8.028   2.985  16.106  0.1563  0.1607 -1.6515
  167DOPC  C21020273   7.873   3.064  16.005  0.3473  0.2148  0.3284
  167DOPC  H10R20274   7.944   3.142  15.974 -0.1913  0.1624 -1.0918
  167DOPC  C21120275   7.725   3.072  15.961  0.6725 -0.9003  0.7433
  167DOPC  H11R20276   7.711   3.178  15.990  1.4185 -1.0204  1.5834
  167DOPC  H11S20277   7.667   2.995  16.015  2.0223 -2.0198  0.6706
  167DOPC  C21220278   7.675   3.056  15.815 -0.4583 -0.5177 -0.0411
  167DOPC  H12R20279   7.694   2.953  15.777  0.2589 -0.2164 -0.5163
  167DOPC  H12S20280   7.566   3.076  15.803 -0.2619 -0.4897 -2.0951
  167DOPC  C21320281   7.752   3.161  15.728  0.6391  0.6335  0.2155
  167DOPC  H13R20282   7.861   3.152  15.747  1.4831  4.1302 -2.0148
  167DOPC  H13S20283   7.719   3.262  15.760  0.7307  0.4604  0.8607
  167DOPC  C21420284   7.734   3.134  15.579  0.2639 -0.0911 -0.3126
  167DOPC  H14R20285   7.633   3.160  15.540 -1.3250 -1.3345  2.6273
  167DOPC  H14S20286   7.759   3.028  15.554  0.2679 -0.1828  0.0788
  167DOPC  C21520287   7.845   3.202  15.501 -0.6615  0.2892 -0.0258
  167DOPC  H15R20288   7.942   3.169  15.543 -0.0882  0.4274 -1.2003
  167DOPC  H15S20289   7.836   3.313  15.505  1.4787  0.4794  0.4948
  167DOPC  C21620290   7.840   3.166  15.352 -0.1456  0.8298  0.2147
  167DOPC  H16R20291   7.875   3.063  15.327  1.6073  1.2393  0.8523
  167DOPC  H16S20292   7.927   3.227  15.322  0.0300  1.1213  1.2680
  167DOPC  C21720293   7.706   3.195  15.276 -0.2102  0.2452  0.5099
  167DOPC  H17R20294   7.664   3.287  15.321 -2.7524 -1.2929  1.4841
  167DOPC  H17S20295   7.631   3.116  15.300 -0.2604  0.1732  0.1174
  167DOPC  C21820296   7.714   3.201  15.121  0.0997 -0.3567  0.4011
  167DOPC  H18R20297   7.766   3.114  15.075 -0.3393  0.1366 -1.1018
  167DOPC  H18S20298   7.771   3.288  15.081 -0.3042  0.3020  1.2196
  167DOPC  H18T20299   7.609   3.218  15.091  0.4798  3.1795  0.6591
  167DOPC   C3320300   7.186   2.685  16.299  0.2330  0.6303 -0.2270
  167DOPC   H3X20301   7.271   2.680  16.370  1.5298 -1.2641 -1.8396
  167DOPC   H3Y20302   7.120   2.774  16.314  1.3660  1.3591  0.5834
  167DOPC   C3420303   7.244   2.677  16.159  0.0962 -0.2400  0.8299
  167DOPC   H4X20304   7.163   2.672  16.083 -0.8832  0.4708  1.7957
  167DOPC   H4Y20305   7.295   2.578  16.153 -3.2211 -2.1055  0.9164
  167DOPC   C3520306   7.342   2.782  16.118  0.2364 -0.6159  0.1933
  167DOPC   H5X20307   7.405   2.802  16.208  1.0126  0.9428 -0.6560
  167DOPC   H5Y20308   7.290   2.880  16.107 -0.5298 -0.8308  1.5704
  167DOPC   C3620309   7.417   2.765  15.984  0.5232 -0.8074 -0.1954
  167DOPC   H6X20310   7.476   2.858  15.968 -1.1977  0.6248  1.2266
  167DOPC   H6Y20311   7.485   2.678  15.985 -0.1076 -1.3379 -1.4701
  167DOPC   C3720312   7.340   2.748  15.855  0.4853  0.2884 -0.5757
  167DOPC   H7X20313   7.286   2.652  15.868 -0.9857  1.2147  0.4426
  167DOPC   H7Y20314   7.260   2.825  15.859 -0.2552 -0.5146  0.8214
  167DOPC   C3820315   7.415   2.756  15.716  0.0198 -0.1277 -0.6064
  167DOPC   H8X20316   7.491   2.835  15.702 -0.2312  0.4986  1.2270
  167DOPC   H8Y20317   7.339   2.780  15.639 -1.6588  0.5267  1.1590
  167DOPC   C3920318   7.465   2.620  15.685 -0.0788 -0.2626 -0.6959
  167DOPC   H9X20319   7.534   2.597  15.767  0.5893  3.9274  0.1278
  167DOPC  C31020320   7.427   2.527  15.602  0.2449  0.5873  1.1089
  167DOPC  H10X20321   7.474   2.428  15.613  1.5998  0.9356 -0.9325
  167DOPC  C31120322   7.312   2.534  15.499 -0.3831 -0.3588 -0.6752
  167DOPC  H11X20323   7.357   2.519  15.399 -2.7062 -1.0301 -1.6768
  167DOPC  H11Y20324   7.268   2.635  15.506 -1.3754 -0.8811  1.4724
  167DOPC  C31220325   7.197   2.435  15.527  0.4375 -0.1607  0.0268
  167DOPC  H12X20326   7.118   2.462  15.454  1.3151  0.8466 -0.5624
  167DOPC  H12Y20327   7.162   2.463  15.629  1.3958  0.4260  0.2080
  167DOPC  C31320328   7.221   2.286  15.512  0.8615 -0.4953 -0.1920
  167DOPC  H13X20329   7.303   2.266  15.584 -1.7231 -1.5289  2.6772
  167DOPC  H13Y20330   7.141   2.222  15.555  0.0215  0.4780 -0.2555
  167DOPC  C31420331   7.249   2.250  15.367  0.0131 -0.3329 -0.3781
  167DOPC  H14X20332   7.172   2.290  15.297  0.5687 -0.9215 -1.3505
  167DOPC  H14Y20333   7.342   2.302  15.336 -0.7131  0.9504 -0.4380
  167DOPC  C31520334   7.261   2.101  15.337 -0.2904 -0.1985  0.8577
  167DOPC  H15X20335   7.166   2.053  15.366 -0.8259 -0.1772 -0.7473
  167DOPC  H15Y20336   7.345   2.049  15.387  0.6402 -1.0865 -1.4504
  167DOPC  C31620337   7.276   2.082  15.180  0.0263  0.2956 -0.0810
  167DOPC  H16X20338   7.210   2.150  15.124 -0.4897  1.0947  1.4428
  167DOPC  H16Y20339   7.376   2.119  15.149  0.2497  0.2690  0.5808
  167DOPC  C31720340   7.276   1.934  15.127 -0.0358 -0.3903  0.6559
  167DOPC  H17X20341   7.174   1.891  15.131 -0.5515  0.7943  0.9408
  167DOPC  H17Y20342   7.303   1.923  15.020 -2.8822 -1.0000 -0.0674
  167DOPC  C31820343   7.373   1.850  15.208 -0.3706  0.4919 -0.5315
  167DOPC  H18X20344   7.331   1.817  15.305  2.1482 -1.0129  0.1250
  167DOPC  H18Y20345   7.408   1.755  15.163  2.2659  0.3900  1.5057
  167DOPC  H18Z20346   7.470   1.899  15.232  0.2677  0.1239 -2.2395
  168DOPC     N20347   2.282   1.048  17.473  0.3326 -0.2800  0.4706
  168DOPC   C1220348   2.299   0.903  17.437 -0.0097  0.7372 -0.6273
  168DOPC  H12A20349   2.297   0.850  17.530 -0.5384  1.4478 -0.2225
  168DOPC  H12B20350   2.393   0.890  17.386 -0.5782 -0.4121 -1.4300
  168DOPC   C1320351   2.256   1.116  17.336 -0.4509  0.1677 -0.0742
  168DOPC  H13A20352   2.340   1.085  17.275 -0.4993 -1.4379  0.6370
  168DOPC  H13B20353   2.156   1.098  17.299  0.1819  1.6848 -2.8442
  168DOPC  H13C20354   2.258   1.224  17.348 -1.2235  0.3719 -1.5109
  168DOPC   C1420355   2.413   1.098  17.527 -0.2939 -0.2693  0.0879
  168DOPC  H14A20356   2.411   1.195  17.573  1.4265 -0.2471  0.1771
  168DOPC  H14B20357   2.445   1.031  17.606 -3.6938 -1.4709  0.6348
  168DOPC  H14C20358   2.489   1.101  17.450  0.4214  0.5390  0.8052
  168DOPC   C1520359   2.182   1.067  17.576 -0.0248 -0.0288 -0.5888
  168DOPC  H15A20360   2.081   1.056  17.540 -0.2715 -0.0466  0.0936
  168DOPC  H15B20361   2.192   1.166  17.619  3.2218 -1.1397  1.6170
  168DOPC  H15C20362   2.202   0.999  17.657 -0.6915  0.6427  0.1616
  168DOPC   C1120363   2.196   0.829  17.342  0.5638 -1.1369  0.2411
  168DOPC  H11A20364   2.195   0.890  17.249  1.8377 -0.3063  0.7353
  168DOPC  H11B20365   2.233   0.732  17.303  0.0587  0.0044 -3.4612
  168DOPC     P20366   1.940   0.865  17.305 -0.1587 -0.2683 -0.0968
  168DOPC   O1320367   1.818   0.866  17.392 -0.4057 -0.5068  0.4314
  168DOPC   O1420368   1.944   0.801  17.172  0.3771  0.0125  0.3160
  168DOPC   O1220369   2.067   0.825  17.396  0.7586  0.5989 -0.2983
  168DOPC   O1120370   1.975   1.011  17.268 -0.2703 -0.1800  0.6255
  168DOPC    C120371   1.886   1.114  17.222  0.0118  0.7299 -0.4581
  168DOPC    HA20372   1.901   1.211  17.274 -1.1981  0.9713 -0.5174
  168DOPC    HB20373   1.781   1.090  17.248  0.6069 -0.6272  0.7843
  168DOPC    C220374   1.889   1.143  17.066 -0.3263 -0.2245 -0.1445
  168DOPC    HS20375   1.820   1.229  17.048 -1.1045 -0.9391 -0.6528
  168DOPC   O2120376   1.843   1.025  16.994  0.5151  0.9062 -0.4438
  168DOPC   C2120377   1.719   0.996  17.008  0.4689 -0.9653  0.9993
  168DOPC   O2220378   1.632   1.054  17.070  0.3089  0.0324  0.2347
  168DOPC   C2220379   1.688   0.870  16.934 -0.4718 -0.3764  0.6779
  168DOPC   H2R20380   1.719   0.785  16.999  2.5255  0.1520  0.1103
  168DOPC   H2S20381   1.740   0.869  16.835 -1.2526 -0.6920  0.2618
  168DOPC    C320382   2.028   1.193  17.011 -0.1668 -0.7511 -0.8180
  168DOPC    HX20383   2.098   1.111  17.038  1.5024  1.1675  1.1130
  168DOPC    HY20384   2.071   1.279  17.067  2.8718 -2.6354  0.0006
  168DOPC   O3120385   2.024   1.215  16.871  0.4773 -0.0246 -0.2945
  168DOPC   C3120386   1.959   1.315  16.828  0.4990  0.7080 -0.1684
  168DOPC   O3220387   1.906   1.397  16.899 -0.1689 -0.2720 -0.1994
  168DOPC   C3220388   1.953   1.315  16.677  0.0311  0.0854 -0.0030
  168DOPC   H2X20389   2.038   1.263  16.628 -0.8804 -0.1179 -1.4050
  168DOPC   H2Y20390   1.864   1.258  16.645  0.9684 -1.3216 -0.1980
  168DOPC   C2320391   1.540   0.858  16.903  0.1249 -0.1226 -0.4623
  168DOPC   H3R20392   1.505   0.952  16.855 -1.3629 -1.2830 -1.7783
  168DOPC   H3S20393   1.480   0.832  16.993 -1.0482 -0.3684 -1.2885
  168DOPC   C2420394   1.506   0.749  16.805  0.2217 -0.0447 -0.4220
  168DOPC   H4R20395   1.529   0.650  16.850  3.0936  0.3710 -0.7911
  168DOPC   H4S20396   1.585   0.752  16.726  1.6463 -1.9895  0.8331
  168DOPC   C2520397   1.367   0.748  16.755 -0.3227 -0.1847  0.4111
  168DOPC   H5R20398   1.346   0.835  16.689  0.5457 -0.6937 -0.5713
  168DOPC   H5S20399   1.293   0.763  16.837 -1.6942  0.6767 -0.9333
  168DOPC   C2620400   1.332   0.627  16.669  0.0520  0.1269 -0.6148
  168DOPC   H6R20401   1.223   0.637  16.645 -0.5886 -0.8065  1.6432
  168DOPC   H6S20402   1.341   0.539  16.737 -1.1478  0.7983  0.4704
  168DOPC   C2720403   1.412   0.607  16.546 -0.0977 -0.8504 -0.1686
  168DOPC   H7R20404   1.519   0.595  16.571 -0.3392 -0.4736  1.1523
  168DOPC   H7S20405   1.393   0.695  16.480 -0.6288 -1.0361 -0.2674
  168DOPC   C2820406   1.372   0.474  16.473 -0.2286  0.3181  0.4821
  168DOPC   H8R20407   1.269   0.495  16.437 -0.4405  0.9656  1.4379
  168DOPC   H8S20408   1.379   0.390  16.545  2.3187  0.5110  0.5470
  168DOPC   C2920409   1.471   0.435  16.366 -0.2084  0.2561 -0.0173
  168DOPC   H9R20410   1.571   0.454  16.409 -0.0609 -0.1904 -0.1569
  168DOPC  C21020411   1.455   0.435  16.237 -0.0117 -0.6390  0.2758
  168DOPC  H10R20412   1.539   0.402  16.174 -0.6913  0.2378 -1.1649
  168DOPC  C21120413   1.319   0.435  16.171 -0.1953  0.3318  0.5269
  168DOPC  H11R20414   1.241   0.484  16.233 -1.0492  0.8579 -0.9017
  168DOPC  H11S20415   1.287   0.329  16.158  2.9540 -0.8744  1.7375
  168DOPC  C21220416   1.311   0.504  16.033  0.5538  0.6075 -0.1003
  168DOPC  H12R20417   1.413   0.515  15.991 -0.5610  3.4327 -2.3961
  168DOPC  H12S20418   1.289   0.609  16.062  1.1994  0.9941 -0.9708
  168DOPC  C21320419   1.207   0.441  15.931  0.1412  0.7965 -0.7858
  168DOPC  H13R20420   1.108   0.470  15.972 -0.2087 -0.9062 -0.3451
  168DOPC  H13S20421   1.214   0.332  15.949 -0.5966  1.1755  2.2974
  168DOPC  C21420422   1.244   0.484  15.788  0.2715  0.1597 -0.7385
  168DOPC  H14R20423   1.343   0.451  15.749 -0.4177 -0.4303 -2.0604
  168DOPC  H14S20424   1.256   0.593  15.802 -0.1992  0.2476 -1.0062
  168DOPC  C21520425   1.139   0.456  15.689 -0.0337 -0.1139 -0.1507
  168DOPC  H15R20426   1.059   0.403  15.744 -4.0059  0.5736 -4.5979
  168DOPC  H15S20427   1.188   0.412  15.599 -1.1951 -1.6173 -0.0853
  168DOPC  C21620428   1.076   0.596  15.644 -0.6467  0.0711  0.1616
  168DOPC  H16R20429   1.159   0.642  15.586  0.5067  0.0490  1.7066
  168DOPC  H16S20430   1.045   0.652  15.735  0.4549 -0.2234  0.7412
  168DOPC  C21720431   0.964   0.584  15.544  0.4286 -0.5377  0.4328
  168DOPC  H17R20432   0.880   0.524  15.586 -1.5129  1.4707 -0.4156
  168DOPC  H17S20433   0.999   0.524  15.457 -0.7551 -2.1940  1.0271
  168DOPC  C21820434   0.889   0.708  15.513  0.3004  0.2180  0.3848
  168DOPC  H18R20435   0.956   0.787  15.473 -0.0003  1.1054  1.5675
  168DOPC  H18S20436   0.844   0.745  15.607 -0.0586 -4.5842  2.4121
  168DOPC  H18T20437   0.802   0.688  15.447  1.3310 -2.3994 -0.3371
  168DOPC   C3320438   1.927   1.461  16.618  0.0863 -1.0269 -0.1037
  168DOPC   H3X20439   2.028   1.505  16.604  0.5727 -1.9720  0.3313
  168DOPC   H3Y20440   1.866   1.518  16.691  0.3095  0.0891 -0.7682
  168DOPC   C3420441   1.861   1.460  16.474 -0.6076  0.3523  0.4270
  168DOPC   H4X20442   1.838   1.565  16.447  0.9219  0.3154 -1.2530
  168DOPC   H4Y20443   1.768   1.402  16.457 -0.1410  0.0844 -1.3568
  168DOPC   C3520444   1.962   1.418  16.369 -1.0201  0.1063 -0.0090
  168DOPC   H5X20445   2.011   1.327  16.408 -0.2911  0.8160  0.7743
  168DOPC   H5Y20446   2.045   1.490  16.352 -1.6357  0.9087  0.2980
  168DOPC   C3620447   1.902   1.388  16.235 -0.1980 -0.3138 -0.1134
  168DOPC   H6X20448   1.818   1.316  16.241 -0.4802 -0.2806 -2.4311
  168DOPC   H6Y20449   1.877   1.486  16.190  1.4461  1.8782  3.3487
  168DOPC   C3720450   2.004   1.324  16.142  0.1911  0.6553  0.2120
  168DOPC   H7X20451   2.093   1.391  16.144 -0.1518  1.1028  1.2572
  168DOPC   H7Y20452   2.033   1.226  16.187 -0.3088  2.1643  4.2283
  168DOPC   C3820453   1.955   1.315  16.006 -0.1652  0.1122 -0.4972
  168DOPC   H8X20454   1.944   1.420  15.970  0.6060  0.1330 -0.6961
  168DOPC   H8Y20455   1.860   1.261  16.023  0.9463 -2.3408 -1.6073
  168DOPC   C3920456   2.042   1.228  15.915  0.2354 -1.0630 -0.2029
  168DOPC   H9X20457   2.066   1.130  15.957 -0.6242 -0.5737  1.5218
  168DOPC  C31020458   2.098   1.258  15.795  0.6898  0.3513  0.1860
  168DOPC  H10X20459   2.166   1.182  15.753  1.2517  0.1879  1.3393
  168DOPC  C31120460   2.087   1.398  15.733 -0.7972  0.0723 -0.3092
  168DOPC  H11X20461   2.181   1.456  15.740 -0.8726  0.5347 -2.4734
  168DOPC  H11Y20462   2.022   1.469  15.787 -0.4594  0.6424 -0.6456
  168DOPC  C31220463   2.054   1.372  15.578  0.0696 -1.3711 -0.0158
  168DOPC  H12X20464   1.951   1.333  15.569  0.8571 -3.3322 -1.0294
  168DOPC  H12Y20465   2.122   1.294  15.538  0.9993  0.4578 -2.2327
  168DOPC  C31320466   2.065   1.495  15.493 -0.4900 -0.5090 -0.3985
  168DOPC  H13X20467   2.033   1.465  15.391  1.3431 -0.3232 -1.0592
  168DOPC  H13Y20468   2.006   1.584  15.524 -0.6738 -0.5634 -0.5858
  168DOPC  C31420469   2.215   1.547  15.474  0.1179 -0.1401 -0.3133
  168DOPC  H14X20470   2.297   1.472  15.478  0.5036  0.3216  0.8018
  168DOPC  H14Y20471   2.212   1.588  15.370  0.3700  0.0603 -0.2424
  168DOPC  C31520472   2.251   1.665  15.571 -0.0270 -0.1029  0.0828
  168DOPC  H15X20473   2.309   1.639  15.662  0.1032  0.5358  0.1863
  168DOPC  H15Y20474   2.161   1.723  15.600  0.2078  0.4672 -0.2932
  168DOPC  C31620475   2.346   1.763  15.497  0.1049  0.1070 -0.1432
  168DOPC  H16X20476   2.440   1.709  15.471  0.4224  0.5749  0.0166
  168DOPC  H16Y20477   2.306   1.799  15.401 -2.0938  1.2216  1.1197
  168DOPC  C31720478   2.399   1.877  15.589 -0.3433  0.4398  0.2624
  168DOPC  H17X20479   2.320   1.950  15.618  1.1385  1.3086  2.3469
  168DOPC  H17Y20480   2.439   1.834  15.683 -1.8109 -0.4949  0.4892
  168DOPC  C31820481   2.513   1.953  15.519 -0.1689 -0.4161  0.3467
  168DOPC  H18X20482   2.474   2.015  15.436 -1.9900  1.8805  2.7910
  168DOPC  H18Y20483   2.537   2.042  15.580  0.0405  0.1948 -0.6054
  168DOPC  H18Z20484   2.603   1.896  15.488  0.3238  0.3260  0.3905
  169DOPC     N20485   0.309   0.865  17.344  0.6690 -0.0694  0.2695
  169DOPC   C1220486   0.356   0.922  17.474  0.1808  0.1208 -0.0908
  169DOPC  H12A20487   0.464   0.928  17.466  0.6471 -3.6329  1.2565
  169DOPC  H12B20488   0.346   0.849  17.554  2.1247  1.7196  1.7119
  169DOPC   C1320489   0.342   0.959  17.237  0.1341  0.2059 -0.2468
  169DOPC  H13A20490   0.317   0.919  17.139 -0.9144  0.4954 -0.1090
  169DOPC  H13B20491   0.284   1.049  17.255 -1.9427 -0.3827 -3.1801
  169DOPC  H13C20492   0.447   0.984  17.234 -0.0826  1.2465  0.1647
  169DOPC   C1420493   0.163   0.832  17.347 -0.4377  0.0318  0.7827
  169DOPC  H14A20494   0.140   0.766  17.429 -0.0072 -1.6139 -0.3725
  169DOPC  H14B20495   0.114   0.921  17.384  2.1231  0.6935  2.9285
  169DOPC  H14C20496   0.138   0.797  17.248 -1.1490 -0.0885  0.9975
  169DOPC   C1520497   0.390   0.743  17.309 -0.0696 -0.6330 -0.3856
  169DOPC  H15A20498   0.495   0.765  17.296 -0.0636 -1.5663 -2.3864
  169DOPC  H15B20499   0.344   0.692  17.225 -2.1440  0.1934  0.1983
  169DOPC  H15C20500   0.389   0.680  17.396  0.3638 -1.4780 -0.9747
  169DOPC   C1120501   0.301   1.056  17.526  0.2015  0.3160  0.1098
  169DOPC  H11A20502   0.193   1.071  17.507  0.5197  1.5155 -0.8338
  169DOPC  H11B20503   0.328   1.050  17.634  2.7842 -2.3377 -0.5550
  169DOPC     P20504   0.506   1.214  17.490 -0.0891 -0.0164  0.4098
  169DOPC   O1320505   0.582   1.088  17.486 -0.2475  0.8906 -0.0363
  169DOPC   O1420506   0.517   1.295  17.618  0.3012  0.2449 -0.5845
  169DOPC   O1220507   0.365   1.168  17.463 -0.3345  0.2585 -0.2572
  169DOPC   O1120508   0.551   1.296  17.361  0.5454  0.7916  0.1308
  169DOPC    C120509   0.455   1.352  17.273  0.1070  0.2902 -0.3990
  169DOPC    HA20510   0.383   1.418  17.327 -1.2606 -2.4095  1.2502
  169DOPC    HB20511   0.400   1.276  17.214  1.9217  0.5592 -2.5538
  169DOPC    C220512   0.519   1.442  17.163 -0.3034 -0.0662 -0.2187
  169DOPC    HS20513   0.616   1.394  17.140 -0.6774 -0.6019 -0.7230
  169DOPC   O2120514   0.543   1.582  17.203 -0.4100 -0.4382  0.3771
  169DOPC   C2120515   0.649   1.641  17.147 -0.0545 -0.3791  0.2338
  169DOPC   O2220516   0.744   1.581  17.094  0.1358  0.2456  0.2476
  169DOPC   C2220517   0.633   1.790  17.146  0.2657 -0.1204  0.9520
  169DOPC   H2R20518   0.692   1.836  17.228  0.2041  2.0453 -0.1463
  169DOPC   H2S20519   0.525   1.808  17.164  0.0366  0.5044 -0.8137
  169DOPC    C320520   0.441   1.441  17.032 -0.4423  0.0137 -0.5554
  169DOPC    HX20521   0.347   1.493  17.061 -0.0976  0.9061 -1.0070
  169DOPC    HY20522   0.414   1.338  17.002 -0.6464  0.3796 -1.6778
  169DOPC   O3120523   0.505   1.505  16.920 -0.5947  0.0378  0.0893
  169DOPC   C3120524   0.606   1.442  16.871  1.2320  0.3252  0.2037
  169DOPC   O3220525   0.642   1.328  16.901  0.3518  0.5019 -0.0056
  169DOPC   C3220526   0.657   1.525  16.759  0.3752 -1.1207  0.4316
  169DOPC   H2X20527   0.569   1.574  16.712  0.4608 -0.9082  0.4885
  169DOPC   H2Y20528   0.713   1.607  16.810 -0.1766 -0.9873  0.8341
  169DOPC   C2320529   0.703   1.857  17.025  0.4744  0.8828  0.1363
  169DOPC   H3R20530   0.667   1.797  16.939  0.5063  1.6996 -0.4571
  169DOPC   H3S20531   0.813   1.844  17.035  0.7301  1.8075 -1.2303
  169DOPC   C2420532   0.670   2.005  17.019  0.5374  0.6677 -0.0493
  169DOPC   H4R20533   0.696   2.053  17.116 -3.2214 -0.3242  1.6214
  169DOPC   H4S20534   0.560   2.014  17.024  0.4805  0.3197 -0.5663
  169DOPC   C2520535   0.730   2.077  16.894  0.3107  0.7895 -0.0725
  169DOPC   H5R20536   0.841   2.080  16.904  0.1986  0.0895  1.5612
  169DOPC   H5S20537   0.695   2.183  16.897 -0.1113  0.6254  1.1319
  169DOPC   C2620538   0.692   2.010  16.758 -0.2099  0.1557  0.8199
  169DOPC   H6R20539   0.581   2.008  16.761 -0.2082 -0.4634  3.6970
  169DOPC   H6S20540   0.740   1.909  16.761  0.3635  0.3604 -0.6533
  169DOPC   C2720541   0.742   2.084  16.634 -0.7994  0.4165  0.2663
  169DOPC   H7R20542   0.848   2.060  16.611 -1.2583 -0.6042 -0.8970
  169DOPC   H7S20543   0.731   2.191  16.662  2.9834  0.8367  0.6835
  169DOPC   C2820544   0.664   2.041  16.513  0.2585 -0.1206  0.4064
  169DOPC   H8R20545   0.560   2.060  16.548  0.4908  0.6417  0.7013
  169DOPC   H8S20546   0.673   1.931  16.496  0.1767 -0.0954  0.1977
  169DOPC   C2920547   0.665   2.130  16.388 -0.3118 -0.4924 -0.4363
  169DOPC   H9R20548   0.610   2.225  16.395 -1.5333 -1.2903  2.2737
  169DOPC  C21020549   0.738   2.110  16.279  0.4077 -0.5204  0.0992
  169DOPC  H10R20550   0.725   2.177  16.193  1.0224  0.1313  0.5060
  169DOPC  C21120551   0.824   1.998  16.239 -0.4028  0.2973  0.7822
  169DOPC  H11R20552   0.756   1.910  16.243 -0.2760  0.2128  1.0516
  169DOPC  H11S20553   0.904   1.975  16.312 -1.1816  1.4636  2.0416
  169DOPC  C21220554   0.891   2.016  16.100  0.8369  0.0352  0.3435
  169DOPC  H12R20555   0.825   2.029  16.012  1.5186  0.2543 -0.1379
  169DOPC  H12S20556   0.940   1.919  16.077  1.0919 -0.4344  2.5989
  169DOPC  C21320557   0.994   2.128  16.102 -0.0991 -0.9817  0.0734
  169DOPC  H13R20558   1.054   2.125  16.196 -0.7217  0.9859  0.5933
  169DOPC  H13S20559   0.940   2.225  16.105 -1.6837 -1.7738 -1.1067
  169DOPC  C21420560   1.095   2.126  15.981 -0.4649 -0.5055 -0.5817
  169DOPC  H14R20561   1.169   2.208  15.991 -0.1924 -0.7566 -0.5264
  169DOPC  H14S20562   1.039   2.157  15.890  0.7117  2.7452 -0.3368
  169DOPC  C21520563   1.165   1.993  15.965 -0.0995 -0.6397 -0.1047
  169DOPC  H15R20564   1.100   1.906  15.941  0.8504 -1.5909  0.6682
  169DOPC  H15S20565   1.203   1.971  16.067  2.2271  2.5819 -0.1085
  169DOPC  C21620566   1.280   1.996  15.856 -0.2764 -0.5793  0.1475
  169DOPC  H16R20567   1.356   2.074  15.882 -0.7914 -0.0291  0.0311
  169DOPC  H16S20568   1.230   2.033  15.764 -1.6533 -2.7315 -0.0302
  169DOPC  C21720569   1.347   1.860  15.841  0.1995 -0.0319 -0.1074
  169DOPC  H17R20570   1.270   1.784  15.816  0.0548  0.3724 -0.9139
  169DOPC  H17S20571   1.380   1.823  15.940  1.6873  2.7465  0.5502
  169DOPC  C21820572   1.458   1.851  15.743 -0.4656 -0.5512 -0.2584
  169DOPC  H18R20573   1.523   1.938  15.764 -0.1626 -1.1750  1.5403
  169DOPC  H18S20574   1.416   1.862  15.640  1.5851  0.4528 -1.0416
  169DOPC  H18T20575   1.527   1.764  15.753  0.4929  0.0246 -1.5645
  169DOPC   C3320576   0.738   1.445  16.664  0.2495 -0.2872 -0.3029
  169DOPC   H3X20577   0.674   1.368  16.616 -0.4378  1.1000 -1.7282
  169DOPC   H3Y20578   0.824   1.394  16.713 -0.1936 -0.0738  0.6975
  169DOPC   C3420579   0.789   1.552  16.560  0.0269 -0.2842  0.2094
  169DOPC   H4X20580   0.885   1.597  16.592 -0.8671  1.4112  0.6066
  169DOPC   H4Y20581   0.726   1.643  16.561  2.3521  1.4642  2.8719
  169DOPC   C3520582   0.796   1.491  16.422 -0.1143 -0.2919  0.5202
  169DOPC   H5X20583   0.695   1.456  16.390 -0.0689  1.7874 -2.2784
  169DOPC   H5Y20584   0.865   1.406  16.408  0.1221  0.0032 -0.1555
  169DOPC   C3620585   0.830   1.599  16.312 -0.3236  0.0824 -0.3397
  169DOPC   H6X20586   0.755   1.680  16.300 -1.6306 -1.0250  0.1719
  169DOPC   H6Y20587   0.929   1.643  16.337 -0.7054  0.9085 -0.2556
  169DOPC   C3720588   0.853   1.531  16.177  1.2774  0.5360 -0.7022
  169DOPC   H7X20589   0.935   1.462  16.207 -0.2546 -1.0230  0.0145
  169DOPC   H7Y20590   0.768   1.466  16.148  1.5962 -0.4813  0.5260
  169DOPC   C3820591   0.907   1.613  16.067  0.1646 -0.4664 -0.2931
  169DOPC   H8X20592   0.957   1.532  16.010  1.9917 -0.3830  1.0938
  169DOPC   H8Y20593   0.984   1.679  16.114  0.2310 -1.1457  0.5692
  169DOPC   C3920594   0.799   1.682  15.982 -0.4212  0.5256  0.1846
  169DOPC   H9X20595   0.758   1.775  16.024 -1.8375 -1.0617  2.5514
  169DOPC  C31020596   0.736   1.615  15.881  0.1622 -0.1710 -0.0951
  169DOPC  H10X20597   0.662   1.669  15.821 -1.0529 -1.6073  0.0325
  169DOPC  C31120598   0.784   1.489  15.814  0.3277 -0.0337  0.1738
  169DOPC  H11X20599   0.698   1.450  15.754 -0.6717  1.9311  0.2589
  169DOPC  H11Y20600   0.807   1.407  15.885  0.5825  0.7874  1.0465
  169DOPC  C31220601   0.899   1.512  15.715  0.0227 -0.3545 -0.1611
  169DOPC  H12X20602   0.946   1.412  15.703  0.3910 -0.3997  1.4063
  169DOPC  H12Y20603   0.969   1.583  15.764 -0.7672 -0.9262  1.8845
  169DOPC  C31320604   0.871   1.563  15.572 -1.3543 -0.2811  0.0964
  169DOPC  H13X20605   0.795   1.490  15.537 -1.9745  0.1479  0.5327
  169DOPC  H13Y20606   0.820   1.662  15.566 -1.9646 -0.6659 -1.6526
  169DOPC  C31420607   0.993   1.561  15.479  0.5553 -0.6508 -0.4330
  169DOPC  H14X20608   0.978   1.601  15.377  0.6100 -0.2971 -0.3045
  169DOPC  H14Y20609   1.056   1.639  15.529 -0.3638 -0.0059 -0.2521
  169DOPC  C31520610   1.073   1.429  15.474  0.1033 -0.6293  0.0170
  169DOPC  H15X20611   0.995   1.352  15.454 -1.3577  1.0819 -1.1828
  169DOPC  H15Y20612   1.118   1.414  15.574 -0.9428 -0.9874  0.4411
  169DOPC  C31620613   1.192   1.424  15.372 -0.2993  0.5446 -0.5676
  169DOPC  H16X20614   1.256   1.515  15.377  0.8130 -0.2925  2.3773
  169DOPC  H16Y20615   1.262   1.342  15.399 -0.4377 -0.2045 -2.3024
  169DOPC  C31720616   1.147   1.396  15.226 -0.3036 -0.0659  0.0551
  169DOPC  H17X20617   1.090   1.301  15.218  2.0358 -1.5298 -0.2228
  169DOPC  H17Y20618   1.082   1.480  15.195  1.5649  0.5229 -2.6573
  169DOPC  C31820619   1.257   1.392  15.118  0.7881 -0.2600 -0.0278
  169DOPC  H18X20620   1.293   1.496  15.101 -1.2649  0.4731 -0.1519
  169DOPC  H18Y20621   1.344   1.336  15.158  1.6177  1.3946  0.6315
  169DOPC  H18Z20622   1.215   1.343  15.028 -0.1582 -2.6020  1.5835
  170DOPC     N20623   6.872   1.284  17.859 -0.2153 -0.2954 -0.2229
  170DOPC   C1220624   6.918   1.139  17.877 -0.6517  0.3905 -0.6671
  170DOPC  H12A20625   6.846   1.078  17.929  0.0041 -0.9937 -1.3537
  170DOPC  H12B20626   6.994   1.118  17.951 -2.3711 -0.0937  1.0667
  170DOPC   C1320627   6.974   1.363  17.788  0.3840  0.0798  0.2174
  170DOPC  H13A20628   6.992   1.315  17.693  0.6975 -1.1061  0.8555
  170DOPC  H13B20629   6.935   1.460  17.760 -1.5130 -0.3928  1.0720
  170DOPC  H13C20630   7.068   1.372  17.840  0.3823  1.1846  0.0416
  170DOPC   C1420631   6.859   1.357  17.994  0.0018  0.4951  0.0035
  170DOPC  H14A20632   6.951   1.354  18.050  1.3434 -0.1886 -2.1030
  170DOPC  H14B20633   6.833   1.461  17.981  0.4620  0.5872 -0.2296
  170DOPC  H14C20634   6.781   1.306  18.047 -0.2161 -0.5265 -1.2359
  170DOPC   C1520635   6.740   1.281  17.787  0.6140 -0.0378 -0.4162
  170DOPC  H15A20636   6.706   1.383  17.786 -0.3463 -0.0995  4.0200
  170DOPC  H15B20637   6.662   1.229  17.842  0.7760  0.3664  0.2061
  170DOPC  H15C20638   6.746   1.230  17.692  2.7802 -2.2463  0.7957
  170DOPC   C1120639   6.949   1.059  17.739  0.3480 -0.1300 -0.8619
  170DOPC  H11A20640   7.029   1.111  17.683  0.4101 -0.0303 -0.6838
  170DOPC  H11B20641   6.986   0.958  17.765  0.3579  0.2821  0.8805
  170DOPC     P20642   6.746   0.928  17.631  0.0411  0.4393  0.0291
  170DOPC   O1320643   6.603   0.952  17.624  0.3082 -0.4824 -0.0453
  170DOPC   O1420644   6.789   0.816  17.716 -0.4045  0.0093  0.1352
  170DOPC   O1220645   6.833   1.050  17.655  0.2907 -0.4014  0.0372
  170DOPC   O1120646   6.795   0.887  17.487  0.6919 -0.2085  0.0274
  170DOPC    C120647   6.737   0.793  17.397  0.2360  0.1103 -0.0445
  170DOPC    HA20648   6.636   0.824  17.362  0.4711  0.6769 -0.2280
  170DOPC    HB20649   6.741   0.685  17.421  0.9305 -0.3120 -1.8597
  170DOPC    C220650   6.814   0.798  17.263 -0.5078  0.0961  0.1406
  170DOPC    HS20651   6.913   0.754  17.289 -0.6621 -0.0902  0.4100
  170DOPC   O2120652   6.828   0.934  17.221 -0.1625 -0.4796  0.5579
  170DOPC   C2120653   6.942   0.963  17.156 -0.1328 -0.6564  0.9492
  170DOPC   O2220654   7.040   0.891  17.159  0.1055 -0.3319  0.3771
  170DOPC   C2220655   6.915   1.082  17.075 -0.4139  0.3376  1.3581
  170DOPC   H2R20656   7.007   1.129  17.034 -1.5659  1.8243  0.3943
  170DOPC   H2S20657   6.854   1.148  17.140 -1.7214  0.1615  0.3356
  170DOPC    C320658   6.762   0.713  17.148  0.0240 -0.5391 -0.7291
  170DOPC    HX20659   6.668   0.766  17.123  1.2345  1.5503 -1.0854
  170DOPC    HY20660   6.736   0.608  17.172 -3.3528 -0.0990 -1.9245
  170DOPC   O3120661   6.846   0.721  17.031  0.1523 -0.3370  0.2996
  170DOPC   C3120662   6.946   0.628  17.029  0.8487 -0.2941  0.3270
  170DOPC   O3220663   6.981   0.561  17.119 -0.0291  0.3854  0.5494
  170DOPC   C3220664   7.006   0.621  16.885  0.6420  0.0582  0.4490
  170DOPC   H2X20665   7.052   0.520  16.884  0.1415 -0.2834 -3.3587
  170DOPC   H2Y20666   6.925   0.614  16.809 -0.7483  1.3432  1.7569
  170DOPC   C2320667   6.823   1.052  16.950  0.4213 -0.0049 -0.4153
  170DOPC   H3R20668   6.740   0.989  16.987  0.9280  0.3680  1.4508
  170DOPC   H3S20669   6.873   1.001  16.865 -0.3221 -0.1522 -0.7729
  170DOPC   C2420670   6.749   1.176  16.895  0.1865 -0.3032 -0.4362
  170DOPC   H4R20671   6.831   1.245  16.867  0.5423 -0.6463 -0.2677
  170DOPC   H4S20672   6.691   1.222  16.978 -0.5392 -0.6069 -0.7650
  170DOPC   C2520673   6.652   1.143  16.778  0.2574 -0.2991  0.7379
  170DOPC   H5R20674   6.630   1.246  16.742  0.1799 -0.7486 -0.5535
  170DOPC   H5S20675   6.564   1.094  16.825 -1.0837 -0.4925 -1.8149
  170DOPC   C2620676   6.714   1.065  16.672  0.7126 -0.1466  0.1336
  170DOPC   H6R20677   6.727   0.959  16.702 -1.9496 -0.5144  0.2282
  170DOPC   H6S20678   6.809   1.111  16.637 -0.2372 -0.2312 -2.7561
  170DOPC   C2720679   6.622   1.061  16.546 -0.8863 -0.1186  0.6160
  170DOPC   H7R20680   6.590   1.166  16.529 -0.5712 -0.1360 -0.1498
  170DOPC   H7S20681   6.533   1.013  16.592 -1.1841  0.6381  0.8424
  170DOPC   C2820682   6.673   0.986  16.423 -0.1236 -0.3590  0.3892
  170DOPC   H8R20683   6.742   1.051  16.366  0.3843 -0.0192  1.3691
  170DOPC   H8S20684   6.582   0.979  16.360  0.3013 -0.5916 -0.2020
  170DOPC   C2920685   6.729   0.848  16.437 -0.4811  0.5225  0.0951
  170DOPC   H9R20686   6.653   0.771  16.420 -0.8326  1.0209 -0.6901
  170DOPC  C21020687   6.856   0.818  16.466  0.0366  0.3199  0.6696
  170DOPC  H10R20688   6.876   0.710  16.475  1.9468  0.3604 -2.0165
  170DOPC  C21120689   6.960   0.916  16.492 -0.0437  0.3723  0.0490
  170DOPC  H11R20690   7.006   0.890  16.590 -0.8515  0.5333  0.4776
  170DOPC  H11S20691   6.926   1.020  16.508 -0.2994  0.2897  0.0510
  170DOPC  C21220692   7.074   0.921  16.391  0.3003 -0.0651 -0.5450
  170DOPC  H12R20693   7.123   0.822  16.381 -0.8166 -1.1213  3.0176
  170DOPC  H12S20694   7.156   0.986  16.428  0.5070  0.2959 -1.6025
  170DOPC  C21320695   7.045   0.985  16.257 -0.6475 -0.7752 -0.0042
  170DOPC  H13R20696   7.004   1.083  16.286 -1.2827 -1.1089  0.2267
  170DOPC  H13S20697   6.973   0.923  16.198 -1.0812 -0.6927  0.4387
  170DOPC  C21420698   7.171   0.995  16.173 -0.2857 -0.3086 -0.4914
  170DOPC  H14R20699   7.238   0.907  16.188  0.7572  0.8863  2.4865
  170DOPC  H14S20700   7.228   1.084  16.207 -1.3724  0.0595  0.4171
  170DOPC  C21520701   7.144   1.030  16.022 -0.0957 -0.9595  0.4993
  170DOPC  H15R20702   7.057   1.100  16.015  1.3452  1.0646  1.5491
  170DOPC  H15S20703   7.109   0.939  15.970  1.0301 -0.8621 -0.4607
  170DOPC  C21620704   7.246   1.113  15.942 -0.4255 -0.0918 -0.1319
  170DOPC  H16R20705   7.332   1.069  15.997 -2.8423 -3.2938  1.4019
  170DOPC  H16S20706   7.247   1.224  15.949  0.5506 -0.0551 -0.7442
  170DOPC  C21720707   7.254   1.075  15.794 -0.1969  0.9216 -0.2090
  170DOPC  H17R20708   7.296   1.168  15.749 -2.2324  2.1163  0.2309
  170DOPC  H17S20709   7.149   1.067  15.758 -1.3230  2.0089  2.5462
  170DOPC  C21820710   7.338   0.950  15.771 -0.4394  0.3321  0.6241
  170DOPC  H18R20711   7.288   0.866  15.825 -1.7451  1.6763  1.5751
  170DOPC  H18S20712   7.440   0.962  15.813 -1.0206  2.7357  1.4745
  170DOPC  H18T20713   7.348   0.919  15.665 -0.7872  2.4614 -0.0734
  170DOPC   C3320714   7.103   0.741  16.854  0.4109 -0.1872 -0.1265
  170DOPC   H3X20715   7.159   0.734  16.950  1.3185 -1.6347 -0.7265
  170DOPC   H3Y20716   7.041   0.832  16.837 -2.2114 -2.1983 -2.2473
  170DOPC   C3420717   7.193   0.699  16.741 -0.2323 -0.0149  0.1438
  170DOPC   H4X20718   7.167   0.738  16.640  1.0628  1.4638  0.3495
  170DOPC   H4Y20719   7.183   0.590  16.723 -2.2417 -0.2121  2.1054
  170DOPC   C3520720   7.338   0.740  16.763 -0.3789  0.5348  0.5230
  170DOPC   H5X20721   7.384   0.714  16.861  0.1930 -0.9470 -0.1091
  170DOPC   H5Y20722   7.347   0.851  16.755  0.9031  0.4855  0.9321
  170DOPC   C3620723   7.427   0.685  16.646  0.3436  0.2282 -0.9204
  170DOPC   H6X20724   7.410   0.575  16.656  0.9105  0.3484  2.6832
  170DOPC   H6Y20725   7.372   0.721  16.556 -0.0307 -1.2124 -1.2937
  170DOPC   C3720726   7.573   0.722  16.653  0.4915  0.4946  0.7804
  170DOPC   H7X20727   7.582   0.832  16.642 -0.1966  0.6799  1.8518
  170DOPC   H7Y20728   7.600   0.695  16.758  0.0699 -0.7077  0.5870
  170DOPC   C3820729   7.654   0.638  16.550 -0.3863  0.2462 -0.8756
  170DOPC   H8X20730   7.756   0.680  16.556 -0.5373  0.4810  0.5739
  170DOPC   H8Y20731   7.608   0.669  16.454 -2.9048 -2.5490 -0.7493
  170DOPC   C3920732   7.639   0.486  16.576  0.0675 -1.0555 -0.3457
  170DOPC   H9X20733   7.554   0.453  16.516 -1.4506  2.3136 -0.2791
  170DOPC  C31020734   7.712   0.395  16.644  0.1346  0.2722 -0.0714
  170DOPC  H10X20735   7.687   0.289  16.628  0.8084  0.1759 -0.5264
  170DOPC  C31120736   7.828   0.429  16.728 -0.3726  0.0939 -0.4053
  170DOPC  H11X20737   7.830   0.362  16.817 -1.2951 -0.2448 -0.6243
  170DOPC  H11Y20738   7.798   0.527  16.770 -2.3329 -0.0202 -1.4401
  170DOPC  C31220739   7.964   0.418  16.660  0.3520  0.6944 -0.2929
  170DOPC  H12X20740   8.036   0.453  16.737 -0.9392 -1.2883  1.9441
  170DOPC  H12Y20741   7.975   0.490  16.576  0.5265  0.8034 -0.1781
  170DOPC  C31320742   7.996   0.276  16.624 -0.3923  0.3711 -0.3705
  170DOPC  H13X20743   8.033   0.224  16.715  1.0561 -1.5669 -1.9723
  170DOPC  H13Y20744   7.910   0.216  16.589  0.7481 -2.2980  1.1132
  170DOPC  C31420745   8.099   0.259  16.514 -0.3039  0.0691 -0.3042
  170DOPC  H14X20746   8.189   0.320  16.538 -1.6160  1.7669  0.5602
  170DOPC  H14Y20747   8.127   0.152  16.520  0.4811  0.2377 -0.8330
  170DOPC  C31520748   8.044   0.303  16.375  0.5536 -0.3334 -0.0209
  170DOPC  H15X20749   8.111   0.384  16.339 -0.4280 -0.0160 -1.1941
  170DOPC  H15Y20750   7.942   0.344  16.381  1.1112  1.3171 -1.1661
  170DOPC  C31620751   8.044   0.192  16.265  0.0742 -0.0514  0.1472
  170DOPC  H16X20752   7.987   0.103  16.298 -0.2750 -0.3692 -1.2616
  170DOPC  H16Y20753   7.987   0.244  16.185 -1.4027 -2.1745 -0.2465
  170DOPC  C31720754   8.184   0.151  16.231  0.0599 -0.3417 -0.1223
  170DOPC  H17X20755   8.232   0.237  16.179  0.7344 -0.6172  0.0295
  170DOPC  H17Y20756   8.242   0.136  16.325 -0.3288  0.8621  0.3402
  170DOPC  C31820757   8.196   0.033  16.133  0.0201  0.3022  0.2753
  170DOPC  H18X20758   8.132   0.051  16.044 -0.5294 -0.2716  0.5444
  170DOPC  H18Y20759   8.298   0.025  16.090 -0.3054 -2.2344 -0.2027
  170DOPC  H18Z20760   8.162  -0.060  16.183  0.4845 -0.5210 -0.8990
  171DOPC     N20761   4.316   4.391  13.486 -0.3995 -0.1215 -0.2770
  171DOPC   C1220762   4.270   4.369  13.633 -0.2476  0.1060 -0.0710
  171DOPC  H12A20763   4.298   4.270  13.664  2.0524  0.0181 -2.1483
  171DOPC  H12B20764   4.162   4.383  13.633 -0.5888 -2.1980  0.5109
  171DOPC   C1320765   4.465   4.383  13.473  0.2259  0.0124 -0.4611
  171DOPC  H13A20766   4.515   4.467  13.519  0.5001 -0.2289 -0.3165
  171DOPC  H13B20767   4.497   4.293  13.524 -1.4741  1.9813  4.6562
  171DOPC  H13C20768   4.487   4.381  13.367  1.2327  0.2618 -0.2682
  171DOPC   C1420769   4.268   4.525  13.444  0.2200 -0.3409 -0.0607
  171DOPC  H14A20770   4.161   4.533  13.452  0.1273  0.0231 -1.4521
  171DOPC  H14B20771   4.299   4.595  13.520  0.0154 -2.6521  2.2930
  171DOPC  H14C20772   4.304   4.548  13.345  1.7496 -1.1395  0.2780
  171DOPC   C1520773   4.244   4.296  13.394  0.1759  0.1399 -0.2938
  171DOPC  H15A20774   4.270   4.194  13.418 -0.9362  0.3489  2.0884
  171DOPC  H15B20775   4.271   4.303  13.290  1.1849 -1.1733 -0.1485
  171DOPC  H15C20776   4.136   4.298  13.399  0.1779 -0.1574 -0.0886
  171DOPC   C1120777   4.322   4.462  13.754  0.0908 -0.3513  0.3556
  171DOPC  H11A20778   4.284   4.422  13.850  1.6191 -0.5103  0.9305
  171DOPC  H11B20779   4.432   4.450  13.747 -0.0040 -1.2940  0.4126
  171DOPC     P20780   4.125   4.628  13.756  0.6208  0.1855  0.1780
  171DOPC   O1320781   4.039   4.558  13.665  0.1654  0.2640  0.1362
  171DOPC   O1420782   4.103   4.778  13.750 -0.0978 -0.3693  0.3206
  171DOPC   O1220783   4.273   4.590  13.719 -0.0521 -0.1882 -0.5907
  171DOPC   O1120784   4.102   4.578  13.897  0.1054 -0.6731  0.0653
  171DOPC    C120785   4.180   4.617  14.011 -0.3774 -0.0467 -0.0442
  171DOPC    HA20786   4.202   4.726  14.016 -0.0725 -0.0599 -0.8288
  171DOPC    HB20787   4.278   4.564  14.012  0.5162  1.2858 -3.3287
  171DOPC    C220788   4.109   4.588  14.145  0.1677 -0.6508 -0.3217
  171DOPC    HS20789   4.170   4.593  14.238 -1.5794 -1.2694  0.9346
  171DOPC   O2120790   4.033   4.467  14.134 -0.2412 -0.1321 -0.5549
  171DOPC   C2120791   4.107   4.353  14.132  0.0344 -0.1204 -0.2577
  171DOPC   O2220792   4.227   4.353  14.139 -0.2031  0.3002 -0.6618
  171DOPC   C2220793   4.021   4.225  14.132  0.6741 -0.1051  0.4133
  171DOPC   H2R20794   3.981   4.211  14.029  1.3822 -0.1251  0.1349
  171DOPC   H2S20795   3.940   4.251  14.204  0.5655  1.5599 -0.2508
  171DOPC    C320796   3.998   4.697  14.163 -1.1969  0.4252  0.4913
  171DOPC    HX20797   3.929   4.690  14.076 -0.2242 -0.1632 -0.2557
  171DOPC    HY20798   4.056   4.791  14.153 -0.5253  0.2412  2.3689
  171DOPC   O3120799   3.931   4.689  14.289  0.8500 -0.0469  0.0737
  171DOPC   C3120800   3.822   4.772  14.289  0.3987 -1.0419  0.0108
  171DOPC   O3220801   3.782   4.834  14.193  0.1450  0.0884  0.4688
  171DOPC   C3220802   3.736   4.764  14.419 -0.4502  0.9392  0.5580
  171DOPC   H2X20803   3.657   4.686  14.420  0.5023 -0.0565  0.8623
  171DOPC   H2Y20804   3.798   4.732  14.506  1.1449  1.7786 -0.2169
  171DOPC   C2320805   4.095   4.091  14.167  0.1115 -0.4001 -1.0618
  171DOPC   H3R20806   4.178   4.075  14.095  0.7840 -2.0683  0.0211
  171DOPC   H3S20807   4.020   4.009  14.166  1.3151 -1.5725  0.1324
  171DOPC   C2420808   4.135   4.103  14.314 -0.0368  0.3236  0.8523
  171DOPC   H4R20809   4.052   4.148  14.372 -0.3608  0.0485  0.6084
  171DOPC   H4S20810   4.227   4.165  14.320 -0.5405  1.1412  0.3277
  171DOPC   C2520811   4.165   3.961  14.378 -0.5536 -0.7106  0.4725
  171DOPC   H5R20812   4.221   3.903  14.302 -2.2483 -0.3842 -1.1194
  171DOPC   H5S20813   4.069   3.908  14.395 -0.0276 -1.7908  0.1564
  171DOPC   C2620814   4.245   3.979  14.506  0.4711 -0.0243  0.0045
  171DOPC   H6R20815   4.340   4.028  14.474 -0.1603 -0.4379 -2.7311
  171DOPC   H6S20816   4.264   3.882  14.556  1.1527  0.2284  0.2561
  171DOPC   C2720817   4.178   4.071  14.608  0.0475 -0.1625 -0.6959
  171DOPC   H7R20818   4.068   4.074  14.594  0.1161  1.1468 -1.1406
  171DOPC   H7S20819   4.216   4.175  14.596 -0.8411  0.2626  0.0566
  171DOPC   C2820820   4.208   4.023  14.753  0.1603 -0.0254 -0.5043
  171DOPC   H8R20821   4.318   4.022  14.768 -0.1618  2.9769  4.0687
  171DOPC   H8S20822   4.168   3.919  14.755 -3.1088  1.0984  1.3697
  171DOPC   C2920823   4.155   4.104  14.874 -0.6542  0.3264  0.5724
  171DOPC   H9R20824   4.078   4.181  14.859 -2.6049 -1.7796 -0.9215
  171DOPC  C21020825   4.215   4.083  14.994  0.3295  0.1533 -0.4085
  171DOPC  H10R20826   4.185   4.147  15.078  2.5367  0.7308  0.0246
  171DOPC  C21120827   4.338   3.993  15.023  0.6093 -0.3870 -0.4644
  171DOPC  H11R20828   4.434   4.049  15.021  1.4989 -1.8395 -0.1557
  171DOPC  H11S20829   4.333   3.904  14.956  2.1398 -0.9073  0.0779
  171DOPC  C21220830   4.333   3.942  15.169  0.4490  0.0527  0.5151
  171DOPC  H12R20831   4.414   3.866  15.175  0.6803 -0.2516 -3.6100
  171DOPC  H12S20832   4.238   3.893  15.201 -0.0114  0.8889  0.4475
  171DOPC  C21320833   4.366   4.049  15.272 -0.0810  0.2025  0.2580
  171DOPC  H13R20834   4.290   4.129  15.283 -1.9602 -1.6471  1.4632
  171DOPC  H13S20835   4.463   4.102  15.259  0.9185 -1.4232  0.7657
  171DOPC  C21420836   4.384   3.976  15.405 -0.4430  1.2396 -0.3173
  171DOPC  H14R20837   4.448   3.889  15.379 -1.8581 -0.6327  1.9932
  171DOPC  H14S20838   4.283   3.931  15.424 -0.0591  0.6056  0.2943
  171DOPC  C21520839   4.434   4.062  15.514  0.0722  0.8127 -0.2151
  171DOPC  H15R20840   4.433   3.993  15.601  1.7345  1.3708  0.2906
  171DOPC  H15S20841   4.361   4.145  15.530 -0.1000  0.7573 -0.6908
  171DOPC  C21620842   4.574   4.115  15.499 -0.6102  0.1140 -0.1390
  171DOPC  H16R20843   4.588   4.164  15.401  0.5409  0.5665  0.2352
  171DOPC  H16S20844   4.643   4.028  15.506 -1.2746 -0.3673  0.8040
  171DOPC  C21720845   4.627   4.211  15.606  0.1497  0.4804 -0.8943
  171DOPC  H17R20846   4.588   4.173  15.703 -1.0674 -0.7143 -1.8251
  171DOPC  H17S20847   4.592   4.316  15.594  2.7659  1.1620 -3.7982
  171DOPC  C21820848   4.775   4.221  15.607  0.1357 -0.0471 -0.2409
  171DOPC  H18R20849   4.813   4.119  15.626 -0.5319 -0.2158  0.2299
  171DOPC  H18S20850   4.796   4.281  15.698 -1.4441 -0.4977  0.4571
  171DOPC  H18T20851   4.810   4.280  15.519  0.5428  1.0890  0.6478
  171DOPC   C3320852   3.681   4.905  14.468 -0.0575  0.6641 -0.1410
  171DOPC   H3X20853   3.590   4.891  14.530  0.0075 -2.4136 -0.5908
  171DOPC   H3Y20854   3.643   4.974  14.390 -2.2637  3.8082  3.3807
  171DOPC   C3420855   3.781   4.971  14.556 -0.3120  0.0921  0.4104
  171DOPC   H4X20856   3.880   4.983  14.507  0.0709 -2.9936  0.2425
  171DOPC   H4Y20857   3.794   4.918  14.652  1.6188  0.1448  0.2103
  171DOPC   C3520858   3.734   5.117  14.585  0.2383  0.3963 -0.4620
  171DOPC   H5X20859   3.679   5.157  14.497 -0.4099  0.6577  0.0545
  171DOPC   H5Y20860   3.820   5.186  14.602 -0.1170  2.3723 -4.9508
  171DOPC   C3620861   3.642   5.113  14.707 -0.2181  0.0812 -0.4133
  171DOPC   H6X20862   3.676   5.033  14.777  0.2394 -0.1645 -0.9040
  171DOPC   H6Y20863   3.658   5.205  14.766  0.8406 -1.4833  1.8681
  171DOPC   C3720864   3.487   5.107  14.683 -0.1060  0.3783 -0.6977
  171DOPC   H7X20865   3.451   5.183  14.610 -1.2658  0.4932 -0.0439
  171DOPC   H7Y20866   3.459   5.012  14.632  2.7427 -0.9973  0.0969
  171DOPC   C3820867   3.409   5.137  14.816 -0.3930  0.5597 -0.4732
  171DOPC   H8X20868   3.448   5.231  14.862  1.9982 -1.6595  2.3772
  171DOPC   H8Y20869   3.424   5.054  14.887 -0.7211 -1.2879 -2.4747
  171DOPC   C3920870   3.265   5.142  14.779  0.0466  0.3716 -0.0514
  171DOPC   H9X20871   3.239   5.186  14.682  0.2221 -0.5267 -0.5236
  171DOPC  C31020872   3.165   5.079  14.857  0.2721  0.4167  0.3354
  171DOPC  H10X20873   3.058   5.091  14.833  0.2683 -1.9570 -1.1587
  171DOPC  C31120874   3.189   4.976  14.961  0.6091  0.0520  0.2674
  171DOPC  H11X20875   3.223   5.025  15.055 -0.3171  0.7345  0.2557
  171DOPC  H11Y20876   3.267   4.903  14.930 -1.6051 -1.8726 -1.1487
  171DOPC  C31220877   3.076   4.868  14.986 -0.5358 -0.7917  0.3433
  171DOPC  H12X20878   2.985   4.929  15.001  0.3875  0.5764  0.5697
  171DOPC  H12Y20879   3.104   4.822  15.083  2.1777  0.1881  0.1206
  171DOPC  C31320880   3.047   4.765  14.875  0.3745  0.0739 -0.1041
  171DOPC  H13X20881   3.016   4.802  14.774  0.5324 -1.1443 -0.6196
  171DOPC  H13Y20882   3.139   4.703  14.873  1.7999  1.9946  1.9030
  171DOPC  C31420883   2.927   4.671  14.911  0.1882  0.0925 -0.2486
  171DOPC  H14X20884   2.960   4.614  15.000  1.7971  1.0448 -0.1866
  171DOPC  H14Y20885   2.838   4.735  14.926 -0.2245  0.5843 -3.8432
  171DOPC  C31520886   2.885   4.557  14.818  0.0444  0.8136  0.4652
  171DOPC  H15X20887   2.950   4.467  14.817  0.4004  1.0668  0.7178
  171DOPC  H15Y20888   2.881   4.587  14.711  0.0155 -4.2707 -1.2674
  171DOPC  C31620889   2.744   4.492  14.845  0.2964 -0.7057  0.2012
  171DOPC  H16X20890   2.673   4.576  14.857  0.5011 -0.6203  0.8645
  171DOPC  H16Y20891   2.715   4.431  14.757 -0.6171 -0.0249  0.0143
  171DOPC  C31720892   2.740   4.399  14.968 -0.1219  0.3034 -0.8878
  171DOPC  H17X20893   2.831   4.336  14.980 -0.9895 -1.0710 -1.2384
  171DOPC  H17Y20894   2.733   4.460  15.060  0.3733 -1.9817  0.7620
  171DOPC  C31820895   2.622   4.300  14.972  0.8021  0.2177 -0.0850
  171DOPC  H18X20896   2.634   4.210  15.036 -0.3487 -0.3182 -0.6001
  171DOPC  H18Y20897   2.530   4.354  15.004 -0.4922 -0.5276 -2.3579
  171DOPC  H18Z20898   2.608   4.259  14.870 -0.8504 -2.1126  0.9701
  172DOPC     N20899   3.046   6.332  13.403 -0.2197  0.2244 -0.7375
  172DOPC   C1220900   3.144   6.269  13.492  0.6615 -0.1409 -0.0901
  172DOPC  H12A20901   3.163   6.352  13.558  0.6681  1.6260 -2.1693
  172DOPC  H12B20902   3.229   6.266  13.426 -0.2120 -0.4631 -1.2343
  172DOPC   C1320903   2.908   6.329  13.459 -0.2524 -0.3536  0.8059
  172DOPC  H13A20904   2.835   6.364  13.387  0.5708  1.6941  0.9093
  172DOPC  H13B20905   2.883   6.227  13.484  2.0124 -1.0222  0.5822
  172DOPC  H13C20906   2.897   6.393  13.545 -2.4063 -2.5093  2.2677
  172DOPC   C1420907   3.050   6.247  13.276  0.1939 -0.0899 -0.7002
  172DOPC  H14A20908   2.960   6.259  13.218  0.0848  0.5980 -0.4021
  172DOPC  H14B20909   3.133   6.263  13.208  1.1800 -3.2849 -0.3944
  172DOPC  H14C20910   3.049   6.146  13.314 -1.4004  0.6429  1.3954
  172DOPC   C1520911   3.085   6.475  13.375  0.5984  0.0583  0.6883
  172DOPC  H15A20912   3.174   6.478  13.314  1.5849 -3.1750  1.7700
  172DOPC  H15B20913   3.102   6.529  13.467 -1.7319  1.2646  0.4848
  172DOPC  H15C20914   3.006   6.528  13.325 -0.9509 -1.0775  1.8269
  172DOPC   C1120915   3.120   6.145  13.581 -0.0939 -0.4147  0.0573
  172DOPC  H11A20916   3.213   6.129  13.638  0.6162  0.1212 -0.9265
  172DOPC  H11B20917   3.036   6.166  13.651 -0.0827  4.3583 -1.0179
  172DOPC     P20918   2.965   5.951  13.502 -0.0719  0.1754 -0.0271
  172DOPC   O1320919   2.941   5.885  13.378  0.0849 -0.1710  0.2669
  172DOPC   O1420920   2.860   6.037  13.546  0.1182  0.1727 -0.4480
  172DOPC   O1220921   3.097   6.029  13.493 -0.1807 -0.1325  0.3574
  172DOPC   O1120922   2.978   5.842  13.612  0.3182  0.2733  0.1378
  172DOPC    C120923   3.084   5.838  13.709  0.1326  0.5236 -0.2227
  172DOPC    HA20924   3.165   5.908  13.679  0.8864 -1.7026 -4.1530
  172DOPC    HB20925   3.144   5.745  13.707  0.1944  0.5532  0.3405
  172DOPC    C220926   3.037   5.856  13.854 -0.5275 -0.5902  0.6391
  172DOPC    HS20927   3.122   5.859  13.925 -0.8384  5.6634  1.3676
  172DOPC   O2120928   2.943   5.753  13.892 -0.0780 -0.4683 -0.5973
  172DOPC   C2120929   2.999   5.632  13.902  0.4456  0.1539  0.2583
  172DOPC   O2220930   3.117   5.603  13.885  0.3241 -0.5259  0.7655
  172DOPC   C2220931   2.894   5.536  13.945 -0.0477  0.3878  0.0102
  172DOPC   H2R20932   2.831   5.525  13.854 -1.9503  2.2461  0.9955
  172DOPC   H2S20933   2.823   5.588  14.014 -0.1744  0.5787 -0.2604
  172DOPC    C320934   2.980   5.997  13.882  0.5170 -0.3696  0.6040
  172DOPC    HX20935   2.922   5.982  13.976  1.1541  1.0889  1.2736
  172DOPC    HY20936   2.910   6.020  13.800  1.1279  1.4618  0.5513
  172DOPC   O3120937   3.083   6.101  13.898 -0.7243  0.2547  0.2074
  172DOPC   C3120938   3.031   6.208  13.953  0.1601 -0.3751  0.2065
  172DOPC   O3220939   2.914   6.218  13.990  0.4437 -0.8375  0.5271
  172DOPC   C3220940   3.137   6.311  13.975 -0.0323 -0.1383 -0.5705
  172DOPC   H2X20941   3.221   6.266  14.032  0.2202  0.6023 -0.3433
  172DOPC   H2Y20942   3.176   6.357  13.881  1.3945  0.3835  0.2283
  172DOPC   C2320943   2.955   5.407  13.982 -0.9370  0.1457 -1.0766
  172DOPC   H3R20944   3.035   5.416  14.059  0.3785 -1.0186 -2.2306
  172DOPC   H3S20945   3.010   5.363  13.896  0.0400 -0.0155 -0.3909
  172DOPC   C2420946   2.843   5.304  14.022 -0.4877 -0.4937 -0.2406
  172DOPC   H4R20947   2.770   5.298  13.938  0.2722 -0.0164 -0.9482
  172DOPC   H4S20948   2.784   5.339  14.109 -0.4678 -0.9506 -0.0393
  172DOPC   C2520949   2.898   5.170  14.067  0.1536  0.4637  0.5116
  172DOPC   H5R20950   2.975   5.182  14.146 -1.3092  1.7621  1.8168
  172DOPC   H5S20951   2.942   5.115  13.981 -0.6254  0.7485 -0.0835
  172DOPC   C2620952   2.782   5.091  14.121 -0.1612  0.5959 -0.1657
  172DOPC   H6R20953   2.694   5.080  14.053  1.0162  0.2911 -1.7138
  172DOPC   H6S20954   2.759   5.130  14.222  0.9440 -0.8609  0.6887
  172DOPC   C2720955   2.828   4.942  14.150 -0.2652  0.0738  0.6078
  172DOPC   H7R20956   2.907   4.946  14.228  0.4431 -1.2486 -0.0191
  172DOPC   H7S20957   2.875   4.909  14.055  2.4777  0.0100  1.8690
  172DOPC   C2820958   2.714   4.850  14.192 -0.4089  0.1688  0.9464
  172DOPC   H8R20959   2.650   4.908  14.261  0.2608  0.2024  1.5600
  172DOPC   H8S20960   2.749   4.759  14.245 -0.4435  1.0849  2.6191
  172DOPC   C2920961   2.642   4.811  14.060  0.0903 -0.1300 -0.8710
  172DOPC   H9R20962   2.704   4.751  13.992 -0.5672 -1.1458 -0.5922
  172DOPC  C21020963   2.514   4.836  14.026 -0.6146 -0.0598  0.0629
  172DOPC  H10R20964   2.479   4.801  13.927 -1.8678  0.5314  0.2665
  172DOPC  C21120965   2.417   4.904  14.110  0.3057 -0.4512 -0.6165
  172DOPC  H11R20966   2.335   4.940  14.044  1.6296 -0.0589 -2.1040
  172DOPC  H11S20967   2.466   4.995  14.152 -0.2481 -1.2779  2.0038
  172DOPC  C21220968   2.366   4.816  14.232 -0.2755  0.5102 -0.1099
  172DOPC  H12R20969   2.452   4.772  14.286 -1.1206  1.1379  1.8225
  172DOPC  H12S20970   2.295   4.744  14.186 -0.3339  0.9088 -0.6685
  172DOPC  C21320971   2.274   4.897  14.324 -0.5114 -0.4922 -0.4385
  172DOPC  H13R20972   2.189   4.920  14.257  0.3129  0.3513 -1.2141
  172DOPC  H13S20973   2.331   4.990  14.347  1.2823 -0.9519 -2.6376
  172DOPC  C21420974   2.240   4.817  14.443  0.2121  0.5560 -0.6449
  172DOPC  H14R20975   2.336   4.801  14.496  0.0308 -0.7170 -0.6533
  172DOPC  H14S20976   2.204   4.719  14.406 -0.3330  1.1307 -1.6757
  172DOPC  C21520977   2.142   4.894  14.541  0.1015 -0.0270  0.3641
  172DOPC  H15R20978   2.114   4.822  14.621 -2.7102 -0.7896 -1.1677
  172DOPC  H15S20979   2.050   4.909  14.481  0.2473 -1.4405 -0.2435
  172DOPC  C21620980   2.179   5.030  14.614  0.2101 -0.3261  0.1923
  172DOPC  H16R20981   2.159   5.112  14.542  1.0624  1.1065  1.5264
  172DOPC  H16S20982   2.288   5.037  14.630  0.3271 -1.3072 -0.1247
  172DOPC  C21720983   2.106   5.053  14.748  0.4473 -0.0964  0.1424
  172DOPC  H17R20984   2.108   4.962  14.811 -0.1196 -1.0760 -1.2006
  172DOPC  H17S20985   1.998   5.074  14.730  0.5327 -0.6364 -1.1099
  172DOPC  C21820986   2.155   5.177  14.835  0.1703 -0.2869 -0.1160
  172DOPC  H18R20987   2.266   5.180  14.837  0.2203 -1.6788  0.1998
  172DOPC  H18S20988   2.124   5.177  14.942  1.2221 -1.9206  0.2317
  172DOPC  H18T20989   2.115   5.270  14.788 -2.2419 -1.5959 -0.8576
  172DOPC   C3320990   3.089   6.438  14.057  0.3153 -0.7644  0.9302
  172DOPC   H3X20991   2.992   6.471  14.014  1.3936 -0.6497 -1.5739
  172DOPC   H3Y20992   3.150   6.529  14.038 -1.3229  0.4078  1.0571
  172DOPC   C3420993   3.083   6.419  14.205  0.1056 -0.3083 -1.0256
  172DOPC   H4X20994   3.031   6.322  14.222  1.0043 -0.6982 -0.4932
  172DOPC   H4Y20995   3.021   6.499  14.252  0.1987  0.5134 -2.2498
  172DOPC   C3520996   3.227   6.420  14.267  0.5504  0.1740  0.8275
  172DOPC   H5X20997   3.277   6.517  14.247  0.5656  0.2716  1.3169
  172DOPC   H5Y20998   3.283   6.335  14.222 -1.2075 -1.1514  1.0122
  172DOPC   C3620999   3.224   6.387  14.416 -0.3557  0.0901 -0.4736
  172DOPC   H6X21000   3.143   6.448  14.461  0.8513  1.3959 -0.0054
  172DOPC   H6Y21001   3.187   6.282  14.419  0.0816 -0.1024 -1.3156
  172DOPC   C3721002   3.356   6.414  14.491  0.6043 -0.0012 -0.2755
  172DOPC   H7X21003   3.348   6.374  14.594  1.8569 -2.1399 -0.9421
  172DOPC   H7Y21004   3.435   6.371  14.425  0.1838 -0.9291 -0.1989
  172DOPC   C3821005   3.395   6.565  14.509  0.3274  0.0360 -0.1891
  172DOPC   H8X21006   3.337   6.589  14.601  2.7269 -1.5510  1.8939
  172DOPC   H8Y21007   3.345   6.615  14.423  1.8262  1.0990 -0.4804
  172DOPC   C3921008   3.543   6.586  14.527 -0.0517  0.6019  0.3754
  172DOPC   H9X21009   3.599   6.601  14.433 -0.5791  0.6018  0.0581
  172DOPC  C31021010   3.611   6.595  14.646 -0.3125 -0.0342  0.1481
  172DOPC  H10X21011   3.720   6.604  14.635 -0.2920 -1.5630 -1.3810
  172DOPC  C31121012   3.565   6.608  14.789  0.9580 -0.2133  0.2020
  172DOPC  H11X21013   3.472   6.670  14.791  0.7298 -0.5704  1.1634
  172DOPC  H11Y21014   3.654   6.649  14.841  1.3990 -0.8772 -0.0194
  172DOPC  C31221015   3.539   6.471  14.853 -0.1453  0.4871 -0.2942
  172DOPC  H12X21016   3.629   6.407  14.838  0.1160  0.7045  0.3224
  172DOPC  H12Y21017   3.468   6.412  14.791  0.4314 -0.4375 -0.0920
  172DOPC  C31321018   3.492   6.479  14.997 -0.6416  0.1366  1.0628
  172DOPC  H13X21019   3.474   6.375  15.031 -0.3152 -1.5655 -3.3434
  172DOPC  H13Y21020   3.572   6.521  15.063  0.7051  0.4809 -0.7282
  172DOPC  C31421021   3.363   6.544  15.018  0.5054 -0.0789 -0.2896
  172DOPC  H14X21022   3.348   6.649  14.982 -0.9690  0.1272  0.8192
  172DOPC  H14Y21023   3.288   6.484  14.962  0.6440 -0.3859 -0.1453
  172DOPC  C31521024   3.327   6.543  15.170 -0.1718  0.4974  0.4910
  172DOPC  H15X21025   3.404   6.603  15.221  0.6593 -1.1915  1.2952
  172DOPC  H15Y21026   3.342   6.436  15.197  2.6524  0.8582  0.6479
  172DOPC  C31621027   3.187   6.583  15.208  0.8006  0.5076 -0.5794
  172DOPC  H16X21028   3.178   6.693  15.197 -0.4044  0.5093  0.2761
  172DOPC  H16Y21029   3.112   6.534  15.142  1.5037 -0.4498 -0.6840
  172DOPC  C31721030   3.162   6.555  15.362  0.6942  1.2168  0.0592
  172DOPC  H17X21031   3.153   6.446  15.380 -1.8548  1.3967  0.2192
  172DOPC  H17Y21032   3.245   6.609  15.413 -0.5941  1.2915  2.1942
  172DOPC  C31821033   3.030   6.621  15.398  0.0090 -0.2586 -0.2255
  172DOPC  H18X21034   3.013   6.585  15.501  4.2454 -0.7590  0.4916
  172DOPC  H18Y21035   3.008   6.729  15.392 -1.4535 -0.3451  2.2557
  172DOPC  H18Z21036   2.957   6.577  15.326 -0.0699 -1.5028  0.5863
  173DOPC     N21037   1.746   3.855  13.226 -0.0962  0.0383  0.6005
  173DOPC   C1221038   1.759   3.978  13.304  0.2854 -0.3821 -0.9226
  173DOPC  H12A21039   1.663   4.016  13.337  1.4693  1.2806  0.8523
  173DOPC  H12B21040   1.797   4.052  13.235 -1.0061  0.7271 -0.5069
  173DOPC   C1321041   1.677   3.883  13.093  0.6889 -0.0348 -0.3849
  173DOPC  H13A21042   1.569   3.889  13.105  0.5120  1.6247 -2.2567
  173DOPC  H13B21043   1.722   3.970  13.048 -0.1685  2.0130  2.3770
  173DOPC  H13C21044   1.691   3.793  13.036  0.8311 -0.3438  0.1298
  173DOPC   C1421045   1.678   3.742  13.300 -0.0578 -0.5149 -0.0789
  173DOPC  H14A21046   1.727   3.700  13.387 -1.5409 -1.3393  0.4183
  173DOPC  H14B21047   1.572   3.756  13.315  0.0324  0.5507 -0.3813
  173DOPC  H14C21048   1.669   3.648  13.246 -2.1173 -0.8431  0.7159
  173DOPC   C1521049   1.888   3.815  13.190  0.1169  0.2066  0.3018
  173DOPC  H15A21050   1.888   3.725  13.130  2.4725 -2.1187  3.3679
  173DOPC  H15B21051   1.938   3.801  13.285  1.1800 -0.0695 -0.2804
  173DOPC  H15C21052   1.938   3.891  13.133  1.6257 -1.8152 -1.2458
  173DOPC   C1121053   1.842   3.978  13.433  0.3725  0.0022  0.0054
  173DOPC  H11A21054   1.823   4.058  13.508  2.7514 -1.0926  1.9030
  173DOPC  H11B21055   1.828   3.885  13.492  0.8446  0.3911  0.7424
  173DOPC     P21056   2.036   4.144  13.360 -0.4080 -0.4597  0.5940
  173DOPC   O1321057   1.949   4.213  13.264  1.1233 -0.0127  0.5391
  173DOPC   O1421058   2.179   4.129  13.312  0.1372 -0.8789 -0.8603
  173DOPC   O1221059   1.977   4.001  13.393  0.1047 -0.4081  0.1890
  173DOPC   O1121060   2.031   4.227  13.495 -0.0959 -0.1779  0.1311
  173DOPC    C121061   2.078   4.161  13.612  0.0137 -0.2215 -0.1944
  173DOPC    HA21062   2.188   4.150  13.626 -0.1770 -1.0770  0.8064
  173DOPC    HB21063   2.033   4.059  13.620 -0.3021 -0.0373  0.4360
  173DOPC    C221064   2.032   4.234  13.746  0.5466 -0.0796  0.5571
  173DOPC    HS21065   1.924   4.261  13.737 -0.1073 -2.3254  1.0703
  173DOPC   O2121066   2.106   4.358  13.745 -0.0230  0.5439 -0.5492
  173DOPC   C2121067   2.055   4.464  13.817  0.9005  1.2251  0.1614
  173DOPC   O2221068   1.946   4.462  13.872 -0.2528 -0.2498 -0.2858
  173DOPC   C2221069   2.154   4.580  13.823 -0.5327  0.4320 -0.0082
  173DOPC   H2R21070   2.087   4.668  13.824 -0.4166  0.5325 -0.5936
  173DOPC   H2S21071   2.215   4.574  13.731 -1.7148 -1.3817 -0.7501
  173DOPC    C321072   2.050   4.153  13.876  0.1896  0.4649  0.5654
  173DOPC    HX21073   2.156   4.154  13.911  0.9251 -0.4289 -1.5026
  173DOPC    HY21074   2.034   4.047  13.848  1.4685  0.2759  0.4794
  173DOPC   O3121075   1.961   4.189  13.983  0.0819 -0.1597 -0.4753
  173DOPC   C3121076   1.833   4.159  13.983  0.2875  0.1185  0.1613
  173DOPC   O3221077   1.773   4.113  13.886  0.0430 -0.5705 -0.0938
  173DOPC   C3221078   1.771   4.182  14.121 -0.6896 -0.6963 -0.1432
  173DOPC   H2X21079   1.848   4.202  14.199 -0.2457 -2.1345 -0.1819
  173DOPC   H2Y21080   1.716   4.278  14.118 -0.6084 -0.2391  4.7682
  173DOPC   C2321081   2.237   4.573  13.949 -0.5606  0.3412  0.5939
  173DOPC   H3R21082   2.171   4.590  14.036  0.6689  0.1920  1.5839
  173DOPC   H3S21083   2.295   4.668  13.945  0.5404 -0.3362 -0.2808
  173DOPC   C2421084   2.330   4.449  13.972  0.2015 -0.0683 -0.1369
  173DOPC   H4R21085   2.269   4.357  13.983 -2.1902  1.4158 -0.0792
  173DOPC   H4S21086   2.384   4.468  14.068 -1.4481  3.2139  0.2863
  173DOPC   C2521087   2.438   4.429  13.864  0.0307  0.4171  1.0639
  173DOPC   H5R21088   2.442   4.521  13.803 -0.2631  1.3821  2.4511
  173DOPC   H5S21089   2.403   4.353  13.791  1.7425  0.6567 -0.0709
  173DOPC   C2621090   2.575   4.402  13.933 -0.1726  0.1718  0.1723
  173DOPC   H6R21091   2.556   4.316  14.000  0.5859 -1.4126 -1.5825
  173DOPC   H6S21092   2.605   4.492  13.992  0.8457  1.1852 -1.7916
  173DOPC   C2721093   2.695   4.376  13.840  0.1384 -0.3986 -0.3023
  173DOPC   H7R21094   2.689   4.464  13.773 -1.5677 -0.7675 -0.6639
  173DOPC   H7S21095   2.671   4.284  13.784 -1.4279  0.7417 -1.5752
  173DOPC   C2821096   2.830   4.355  13.910 -0.6482  0.2687  0.4243
  173DOPC   H8R21097   2.878   4.449  13.947  0.1820 -0.5733  1.5457
  173DOPC   H8S21098   2.900   4.328  13.828  0.0201  1.5140  0.5520
  173DOPC   C2921099   2.829   4.244  14.012  0.4691  0.7033 -0.3273
  173DOPC   H9R21100   2.748   4.170  14.003 -0.8033  1.7586  1.6290
  173DOPC  C21021101   2.875   4.244  14.136 -0.3978 -1.6566  0.4272
  173DOPC  H10R21102   2.874   4.151  14.194 -1.2787 -0.6271  2.1220
  173DOPC  C21121103   2.946   4.353  14.212 -0.3037 -0.1049  1.1379
  173DOPC  H11R21104   2.953   4.446  14.152  0.5977  0.3962  1.9939
  173DOPC  H11S21105   3.050   4.321  14.230  0.3335  1.7646  1.0487
  173DOPC  C21221106   2.885   4.396  14.351 -0.0759 -0.2655 -0.0028
  173DOPC  H12R21107   2.955   4.470  14.396 -0.8405 -0.7424  2.0848
  173DOPC  H12S21108   2.896   4.308  14.417  2.9222 -1.2343 -1.5820
  173DOPC  C21321109   2.733   4.426  14.333  0.0115  0.0772  0.0298
  173DOPC  H13R21110   2.682   4.331  14.307 -2.9692  1.5475  0.0885
  173DOPC  H13S21111   2.729   4.508  14.258 -2.7011  0.5951  0.6012
  173DOPC  C21421112   2.662   4.465  14.461  0.4011 -0.2050  0.0806
  173DOPC  H14R21113   2.712   4.558  14.495 -0.4033  0.3023 -0.0858
  173DOPC  H14S21114   2.667   4.383  14.535 -1.4354  0.4246  0.9726
  173DOPC  C21521115   2.509   4.493  14.428 -0.1559  0.0503 -0.2751
  173DOPC  H15R21116   2.468   4.397  14.390  0.3786  0.1825 -1.1984
  173DOPC  H15S21117   2.494   4.563  14.344 -0.4660  0.2792 -0.0313
  173DOPC  C21621118   2.436   4.543  14.552  0.1715  0.0557  0.4729
  173DOPC  H16R21119   2.337   4.574  14.511  0.9385  1.3403 -0.4444
  173DOPC  H16S21120   2.486   4.629  14.600  1.0530 -0.0508 -0.2408
  173DOPC  C21721121   2.411   4.439  14.666 -0.3382  0.2633  0.0206
  173DOPC  H17R21122   2.515   4.401  14.683  0.6880 -0.0510 -5.2274
  173DOPC  H17S21123   2.361   4.350  14.621  2.5684 -1.0482 -0.8758
  173DOPC  C21821124   2.337   4.501  14.785  0.0010 -0.4268  0.1788
  173DOPC  H18R21125   2.360   4.445  14.877 -0.5728 -0.6132  0.2118
  173DOPC  H18S21126   2.228   4.493  14.764  0.2847 -0.9133 -1.2481
  173DOPC  H18T21127   2.362   4.608  14.796  0.8992 -0.8382  2.6259
  173DOPC   C3321128   1.687   4.070  14.170 -0.0507  0.0111 -0.2626
  173DOPC   H3X21129   1.738   3.971  14.173  0.8524  0.4555 -0.6537
  173DOPC   H3Y21130   1.608   4.067  14.092  0.4745  0.0544 -0.8065
  173DOPC   C3421131   1.633   4.097  14.313 -0.5789 -0.3568  0.7456
  173DOPC   H4X21132   1.592   4.200  14.316  0.1339 -0.0022 -1.0496
  173DOPC   H4Y21133   1.722   4.092  14.379  1.3753  4.1472 -1.1668
  173DOPC   C3521134   1.527   3.993  14.354  0.0852  0.3980  0.1773
  173DOPC   H5X21135   1.575   3.894  14.343  1.5575  0.9961  0.8137
  173DOPC   H5Y21136   1.440   3.999  14.285  0.7262  1.7429 -0.5702
  173DOPC   C3621137   1.485   4.014  14.499  0.2381 -0.2643 -0.0412
  173DOPC   H6X21138   1.433   3.921  14.531  2.8539 -1.3707  1.3346
  173DOPC   H6Y21139   1.575   4.025  14.564 -0.7082  0.5267  1.1880
  173DOPC   C3721140   1.408   4.140  14.507  0.5028  0.4769 -0.2628
  173DOPC   H7X21141   1.473   4.228  14.486  2.0191 -1.0250 -2.2829
  173DOPC   H7Y21142   1.327   4.148  14.431 -1.0006 -0.9668  1.0885
  173DOPC   C3821143   1.324   4.152  14.643  0.2544  0.2245 -0.1179
  173DOPC   H8X21144   1.264   4.059  14.638 -0.6963  0.8747 -2.7555
  173DOPC   H8Y21145   1.253   4.233  14.616  0.5955  0.1485 -1.3276
  173DOPC   C3921146   1.401   4.166  14.774  0.6017 -0.2367  0.3682
  173DOPC   H9X21147   1.459   4.259  14.779 -1.5391  1.6487 -4.2690
  173DOPC  C31021148   1.414   4.068  14.862 -0.0657  0.8607 -0.4802
  173DOPC  H10X21149   1.486   4.080  14.944 -1.0292  0.8690  0.3799
  173DOPC  C31121150   1.327   3.949  14.875  0.3404  0.3379 -0.0539
  173DOPC  H11X21151   1.370   3.853  14.838  0.6995 -0.4112  2.1406
  173DOPC  H11Y21152   1.229   3.954  14.822  0.8950 -0.9165 -1.2762
  173DOPC  C31221153   1.293   3.932  15.024 -0.1240  0.4801  0.2415
  173DOPC  H12X21154   1.252   4.030  15.058 -2.2183  0.2661 -1.4763
  173DOPC  H12Y21155   1.378   3.902  15.090  0.0308 -2.1556 -1.0453
  173DOPC  C31321156   1.174   3.827  15.036  0.4150 -0.5175  0.3476
  173DOPC  H13X21157   1.076   3.876  15.017  0.5380 -0.7177 -0.9036
  173DOPC  H13Y21158   1.177   3.741  14.966 -1.2981 -0.0883 -0.3068
  173DOPC  C31421159   1.154   3.766  15.179 -0.5331  0.1998  0.5761
  173DOPC  H14X21160   1.090   3.676  15.177 -0.5753  0.2440 -0.7003
  173DOPC  H14Y21161   1.255   3.727  15.204 -0.0473 -0.8553 -2.6739
  173DOPC  C31521162   1.097   3.877  15.284  0.0756  0.3138 -0.6172
  173DOPC  H15X21163   1.001   3.920  15.250 -0.9917 -1.3922  0.1344
  173DOPC  H15Y21164   1.175   3.957  15.284 -0.9446  1.3464  0.0871
  173DOPC  C31621165   1.071   3.823  15.423  0.0097 -0.4560  0.6436
  173DOPC  H16X21166   0.982   3.760  15.402 -0.6012  1.1967 -2.2691
  173DOPC  H16Y21167   1.153   3.754  15.451  1.9154  2.0356  1.6574
  173DOPC  C31721168   1.058   3.929  15.526 -0.5954 -0.0047  0.2047
  173DOPC  H17X21169   1.154   3.982  15.544  0.2912 -1.3000 -0.5649
  173DOPC  H17Y21170   0.981   3.996  15.483 -0.8823 -0.7609 -0.4817
  173DOPC  C31821171   1.002   3.858  15.656  0.4250  0.2683 -0.0886
  173DOPC  H18X21172   1.083   3.789  15.690 -0.8981 -0.8332  0.9774
  173DOPC  H18Y21173   0.973   3.919  15.744  0.4368  0.2374 -0.0628
  173DOPC  H18Z21174   0.919   3.796  15.615 -0.8680  2.1013 -0.3343
  174DOPC     N21175   4.672   3.749  13.110 -0.0172 -0.5232 -0.9540
  174DOPC   C1221176   4.715   3.888  13.132 -0.4558 -0.9561  0.2644
  174DOPC  H12A21177   4.627   3.951  13.132  0.0572 -0.2194 -0.4350
  174DOPC  H12B21178   4.773   3.921  13.047  0.1509  0.8120  1.3085
  174DOPC   C1321179   4.589   3.733  12.989  0.4634  0.1943 -0.0677
  174DOPC  H13A21180   4.510   3.804  12.973  1.2675  1.0329 -0.3955
  174DOPC  H13B21181   4.648   3.744  12.899 -2.2461  0.0521 -1.9854
  174DOPC  H13C21182   4.541   3.636  12.985 -1.8778  1.2122  1.4997
  174DOPC   C1421183   4.585   3.694  13.222  0.0728  0.2445  0.7087
  174DOPC  H14A21184   4.582   3.586  13.221  2.1126 -0.0077 -3.5089
  174DOPC  H14B21185   4.624   3.715  13.320  1.4527 -2.0748  0.7481
  174DOPC  H14C21186   4.487   3.737  13.228  0.3819  0.9308  0.9518
  174DOPC   C1521187   4.797   3.664  13.095 -0.2478  0.1241 -0.4192
  174DOPC  H15A21188   4.873   3.696  13.026  0.4531  1.0598  0.7421
  174DOPC  H15B21189   4.773   3.563  13.067  0.4112 -0.6540  1.6321
  174DOPC  H15C21190   4.858   3.661  13.184 -0.7721  1.7494  0.0323
  174DOPC   C1121191   4.804   3.912  13.256 -0.5375  0.1543  0.2210
  174DOPC  H11A21192   4.897   3.856  13.234 -0.1420  1.6452 -2.3889
  174DOPC  H11B21193   4.831   4.020  13.251  0.9723 -0.2277 -0.3963
  174DOPC     P21194   4.799   3.808  13.499  0.0894  0.3326 -0.0607
  174DOPC   O1321195   4.823   3.668  13.452 -0.5258  0.5882  0.0056
  174DOPC   O1421196   4.709   3.817  13.615 -0.1201 -0.8712 -0.0443
  174DOPC   O1221197   4.738   3.890  13.382  0.2298  0.0697 -0.3235
  174DOPC   O1121198   4.923   3.897  13.528 -0.0137 -0.2295 -0.0289
  174DOPC    C121199   5.053   3.843  13.503  0.3610 -0.3859  0.0807
  174DOPC    HA21200   5.123   3.929  13.496 -0.1195 -0.0054 -0.1506
  174DOPC    HB21201   5.060   3.777  13.414 -0.5462 -0.8174  0.3231
  174DOPC    C221202   5.096   3.742  13.619 -0.2332  0.1983 -0.4182
  174DOPC    HS21203   5.028   3.654  13.619 -0.6243  0.4842  0.5679
  174DOPC   O2121204   5.092   3.793  13.754  0.0637 -0.2666  0.3934
  174DOPC   C2121205   5.077   3.709  13.850  0.3978  0.6762 -0.3510
  174DOPC   O2221206   5.048   3.587  13.839  0.0720 -0.1190  0.5183
  174DOPC   C2221207   5.102   3.786  13.979 -0.3484 -0.0044  0.3825
  174DOPC   H2R21208   5.064   3.890  13.971 -0.5791 -0.0776  0.5012
  174DOPC   H2S21209   5.213   3.788  13.987 -0.0098 -3.1918 -1.7159
  174DOPC    C321210   5.240   3.682  13.581 -0.7920  0.1222 -0.3078
  174DOPC    HX21211   5.245   3.642  13.478  1.6561 -0.6299  0.0283
  174DOPC    HY21212   5.266   3.603  13.655  0.3907 -1.7290 -2.5520
  174DOPC   O3121213   5.334   3.793  13.586  0.1472 -0.4154  0.5537
  174DOPC   C3121214   5.408   3.806  13.692 -0.2756 -0.1869  0.6743
  174DOPC   O3221215   5.425   3.734  13.785  0.3348 -0.1461 -0.2675
  174DOPC   C3221216   5.471   3.944  13.678 -0.6326 -0.0902  0.4141
  174DOPC   H2X21217   5.535   3.928  13.588 -0.1368  0.8214  0.5914
  174DOPC   H2Y21218   5.395   4.022  13.657  0.3695  0.9098  0.4061
  174DOPC   C2321219   5.036   3.726  14.111  0.2680  0.9133  0.7311
  174DOPC   H3R21220   5.076   3.783  14.197  0.2624  0.9078  0.7370
  174DOPC   H3S21221   5.072   3.622  14.126 -0.4789  0.2194 -1.6740
  174DOPC   C2421222   4.884   3.745  14.131  0.2449  0.3495 -0.0005
  174DOPC   H4R21223   4.827   3.693  14.051 -0.9908 -1.2238  1.8336
  174DOPC   H4S21224   4.855   3.852  14.123 -1.2622 -0.1776 -2.8024
  174DOPC   C2521225   4.827   3.689  14.262 -0.5153 -0.5682  0.6550
  174DOPC   H5R21226   4.866   3.743  14.351  0.7533  1.3152 -0.9423
  174DOPC   H5S21227   4.870   3.588  14.278  0.4698 -0.4167 -0.8256
  174DOPC   C2621228   4.671   3.676  14.252 -0.6121  0.3822  0.0277
  174DOPC   H6R21229   4.657   3.594  14.178  1.5326  0.6054 -0.6796
  174DOPC   H6S21230   4.634   3.776  14.218  0.7706  1.1882  0.8176
  174DOPC   C2721231   4.609   3.647  14.388  0.0017 -0.6317  0.2937
  174DOPC   H7R21232   4.663   3.566  14.441  1.8473  0.2457 -0.1655
  174DOPC   H7S21233   4.508   3.612  14.357 -1.3938  3.6460 -0.7231
  174DOPC   C2821234   4.591   3.783  14.466 -0.3480  0.2942 -0.3082
  174DOPC   H8R21235   4.518   3.849  14.414  0.5022  1.0705 -0.5604
  174DOPC   H8S21236   4.696   3.820  14.472 -0.0444 -0.7479  1.7049
  174DOPC   C2921237   4.522   3.760  14.599  0.1333  0.5061 -0.0637
  174DOPC   H9R21238   4.423   3.713  14.592  1.0996 -1.4830 -1.3049
  174DOPC  C21021239   4.569   3.807  14.715 -0.3171  0.6769 -0.4537
  174DOPC  H10R21240   4.515   3.787  14.809  1.1699  1.6968  0.6668
  174DOPC  C21121241   4.696   3.886  14.734 -0.1089  0.1647  1.1367
  174DOPC  H11R21242   4.685   3.960  14.816  0.3238  0.4665  0.9283
  174DOPC  H11S21243   4.731   3.946  14.647 -1.5898  0.9224  1.0297
  174DOPC  C21221244   4.819   3.801  14.764  0.5480 -0.8469  0.3060
  174DOPC  H12R21245   4.832   3.728  14.682  0.6921  1.3199 -1.7047
  174DOPC  H12S21246   4.800   3.739  14.855  1.9298  0.5857  1.6440
  174DOPC  C21321247   4.944   3.883  14.771 -0.0518  0.6185  0.0317
  174DOPC  H13R21248   5.017   3.846  14.846  1.6988  1.0947 -1.3567
  174DOPC  H13S21249   4.913   3.985  14.802 -0.5926  0.2761  0.6234
  174DOPC  C21421250   5.013   3.902  14.632  0.0987 -0.0154  0.1427
  174DOPC  H14R21251   4.948   3.954  14.558 -0.5619  0.2314  0.8882
  174DOPC  H14S21252   5.037   3.801  14.593 -1.5274 -0.2095 -0.4203
  174DOPC  C21521253   5.140   3.980  14.663 -0.0163  0.5231  0.1599
  174DOPC  H15R21254   5.200   3.904  14.717  0.2770  0.6489  0.0149
  174DOPC  H15S21255   5.123   4.058  14.741  0.4471  1.9048 -1.0560
  174DOPC  C21621256   5.217   4.014  14.539  0.0608 -0.4173  0.1381
  174DOPC  H16R21257   5.290   4.094  14.561  0.9902 -0.3732 -2.6848
  174DOPC  H16S21258   5.154   4.062  14.461  2.5032 -1.1028 -2.4486
  174DOPC  C21721259   5.288   3.885  14.481  0.3691 -0.2162 -0.0031
  174DOPC  H17R21260   5.215   3.803  14.464  0.5828  0.0635 -2.5209
  174DOPC  H17S21261   5.360   3.844  14.555 -0.7094 -1.2041  0.5277
  174DOPC  C21821262   5.356   3.919  14.346 -0.0056 -0.2269  0.0222
  174DOPC  H18R21263   5.403   3.830  14.300 -0.9125 -0.3176 -0.7470
  174DOPC  H18S21264   5.438   3.994  14.349 -1.9516  2.0316 -0.4248
  174DOPC  H18T21265   5.269   3.949  14.284  0.5651 -1.4473 -1.4229
  174DOPC   C3321266   5.564   3.985  13.795  0.0040  0.3889 -0.0819
  174DOPC   H3X21267   5.620   4.072  13.755  0.6266 -1.0635 -2.5865
  174DOPC   H3Y21268   5.636   3.901  13.804 -1.3546 -0.9332 -1.1421
  174DOPC   C3421269   5.498   4.027  13.924 -0.6417 -0.3473  0.4789
  174DOPC   H4X21270   5.580   4.028  13.999  1.3707  0.6198 -1.5889
  174DOPC   H4Y21271   5.411   3.965  13.954 -2.7659  1.2056 -2.0113
  174DOPC   C3521272   5.446   4.173  13.920 -0.3040 -0.3298  0.6844
  174DOPC   H5X21273   5.353   4.164  13.860  0.7585 -1.4868 -0.9038
  174DOPC   H5Y21274   5.514   4.242  13.866 -0.5702 -0.1552  0.5732
  174DOPC   C3621275   5.420   4.238  14.064 -0.0002  0.8889  0.7095
  174DOPC   H6X21276   5.369   4.335  14.042 -0.5355  0.0793 -1.9894
  174DOPC   H6Y21277   5.346   4.182  14.125  0.0823  2.2791  2.1655
  174DOPC   C3721278   5.540   4.271  14.141 -0.7747 -0.5730 -0.0878
  174DOPC   H7X21279   5.594   4.180  14.176  1.0321 -0.2104 -1.7662
  174DOPC   H7Y21280   5.610   4.328  14.076 -1.2737  0.6224  0.3767
  174DOPC   C3821281   5.507   4.371  14.255 -0.8018 -0.0598  0.1306
  174DOPC   H8X21282   5.484   4.459  14.190 -1.0139 -0.0168  0.2624
  174DOPC   H8Y21283   5.596   4.396  14.317  1.3281 -1.3263 -2.2282
  174DOPC   C3921284   5.390   4.340  14.349 -0.5184  0.6656 -0.2594
  174DOPC   H9X21285   5.410   4.244  14.400  2.4966  1.1161 -0.4521
  174DOPC  C31021286   5.274   4.408  14.360 -0.7608 -0.6080  0.2937
  174DOPC  H10X21287   5.191   4.355  14.408 -0.6084 -0.3137  0.8935
  174DOPC  C31121288   5.236   4.531  14.288  0.9271  0.0416 -0.2677
  174DOPC  H11X21289   5.126   4.537  14.269  0.6897  0.8402  1.1700
  174DOPC  H11Y21290   5.291   4.537  14.192 -0.8047 -4.5336 -1.8207
  174DOPC  C31221291   5.263   4.653  14.381 -0.4639  0.2595  0.5111
  174DOPC  H12X21292   5.239   4.742  14.320  0.4980  0.8223  0.9185
  174DOPC  H12Y21293   5.374   4.661  14.387 -0.4939  0.8539  0.2584
  174DOPC  C31321294   5.187   4.646  14.513  0.2061 -0.0273 -0.1874
  174DOPC  H13X21295   5.082   4.629  14.483  0.8127 -2.1980 -1.3956
  174DOPC  H13Y21296   5.217   4.559  14.576 -0.9212  0.0604  0.4824
  174DOPC  C31421297   5.189   4.770  14.596 -0.3785  0.1469  0.0152
  174DOPC  H14X21298   5.173   4.862  14.536  1.4205  0.9440  0.6658
  174DOPC  H14Y21299   5.113   4.769  14.677  1.2417  0.2507  1.6217
  174DOPC  C31521300   5.329   4.784  14.661  0.0211 -0.0762  0.5406
  174DOPC  H15X21301   5.398   4.843  14.598  1.0508 -2.8751 -1.1196
  174DOPC  H15Y21302   5.368   4.681  14.676  0.7503 -0.2649 -2.0984
  174DOPC  C31621303   5.321   4.842  14.803  0.3131 -0.1992  0.1233
  174DOPC  H16X21304   5.260   4.935  14.807 -0.2836 -0.6137  1.6317
  174DOPC  H16Y21305   5.276   4.773  14.878 -0.9405 -1.4357 -1.6872
  174DOPC  C31721306   5.457   4.889  14.850  0.7117  0.3305  0.5714
  174DOPC  H17X21307   5.524   4.800  14.849  2.6878  1.7415  1.2444
  174DOPC  H17Y21308   5.504   4.956  14.775 -0.8364  0.0785 -0.6785
  174DOPC  C31821309   5.459   4.963  14.984  0.5536  0.2532  0.3843
  174DOPC  H18X21310   5.559   5.009  14.997  0.7123  0.6716 -1.8426
  174DOPC  H18Y21311   5.384   5.044  14.974 -0.6785 -0.8875  0.0765
  174DOPC  H18Z21312   5.435   4.893  15.067  1.1652  1.0642  1.2715
  175DOPC     N21313   2.233   0.308  13.284  0.4393 -0.9389  0.1073
  175DOPC   C1221314   2.318   0.350  13.403 -0.0493  0.4462 -0.0266
  175DOPC  H12A21315   2.321   0.264  13.469  1.0540 -0.6442 -1.4281
  175DOPC  H12B21316   2.273   0.434  13.453  0.2546  0.3794  0.3654
  175DOPC   C1321317   2.221   0.434  13.197  0.1726  0.5823  0.4200
  175DOPC  H13A21318   2.157   0.416  13.112 -1.2712  1.1250  1.3606
  175DOPC  H13B21319   2.183   0.515  13.257  1.0556  0.2835  1.4141
  175DOPC  H13C21320   2.317   0.448  13.151  0.9703 -0.9900  1.4874
  175DOPC   C1421321   2.092   0.277  13.327 -0.7901  0.2519  0.6503
  175DOPC  H14A21322   2.026   0.299  13.244  2.4855  1.9292 -1.7560
  175DOPC  H14B21323   2.088   0.172  13.352  0.9026 -0.2751 -1.0110
  175DOPC  H14C21324   2.074   0.331  13.419 -0.5154  0.1322  0.7764
  175DOPC   C1521325   2.282   0.193  13.213  0.1066  0.1912  0.1676
  175DOPC  H15A21326   2.387   0.191  13.188 -0.2689 -0.7599 -1.4482
  175DOPC  H15B21327   2.230   0.179  13.120 -0.6269 -1.0738  0.7361
  175DOPC  H15C21328   2.269   0.113  13.285  2.9573 -0.9984 -0.5167
  175DOPC   C1121329   2.464   0.394  13.363 -0.2224  0.5676  0.3466
  175DOPC  H11A21330   2.466   0.465  13.278 -1.9073  0.2795  0.0239
  175DOPC  H11B21331   2.519   0.434  13.451  0.6638 -1.4589  0.7759
  175DOPC     P21332   2.652   0.214  13.395  0.1680 -0.0157  0.3303
  175DOPC   O1321333   2.765   0.294  13.340 -0.3068 -0.0287 -0.2870
  175DOPC   O1421334   2.661   0.066  13.384 -0.5048 -0.5149  0.3320
  175DOPC   O1221335   2.524   0.271  13.321  0.2332 -0.2721 -0.0589
  175DOPC   O1121336   2.622   0.253  13.547  0.0016 -0.1407 -0.2554
  175DOPC    C121337   2.683   0.183  13.655  0.2018 -0.4711  0.0878
  175DOPC    HA21338   2.687   0.255  13.739 -0.6979  2.5744 -2.2931
  175DOPC    HB21339   2.786   0.150  13.631  1.2031  1.4983  1.3967
  175DOPC    C221340   2.589   0.068  13.704  0.5403 -0.4454 -0.0401
  175DOPC    HS21341   2.570   0.006  13.614 -0.7205  0.5369 -0.4706
  175DOPC   O2121342   2.466   0.133  13.739 -0.5745 -0.1065 -0.2315
  175DOPC   C2121343   2.369   0.046  13.764 -0.3517 -0.1140 -0.5063
  175DOPC   O2221344   2.357  -0.070  13.725 -0.6413  0.1070  0.1565
  175DOPC   C2221345   2.263   0.122  13.850 -0.0089  0.3114  0.0136
  175DOPC   H2R21346   2.238   0.211  13.789  1.5798  1.7452  1.3434
  175DOPC   H2S21347   2.320   0.159  13.938  2.3425  2.0642 -2.0992
  175DOPC    C321348   2.662  -0.013  13.820  0.0759 -0.6326 -0.0316
  175DOPC    HX21349   2.762  -0.035  13.777 -0.1816  0.8829 -1.5240
  175DOPC    HY21350   2.618  -0.113  13.839 -0.4950 -0.4464 -0.3540
  175DOPC   O3121351   2.684   0.074  13.938  0.0247  0.5841  0.4191
  175DOPC   C3121352   2.600   0.050  14.035 -0.0873  0.5377  0.5938
  175DOPC   O3221353   2.501  -0.022  14.031  0.4518  0.0223  0.0655
  175DOPC   C3221354   2.627   0.153  14.141 -0.2638  0.9238 -0.4702
  175DOPC   H2X21355   2.738   0.165  14.149 -0.1161 -1.1095  1.3154
  175DOPC   H2Y21356   2.585   0.249  14.103 -1.0608  2.1694  3.1829
  175DOPC   C2321357   2.150   0.032  13.900 -0.3627 -0.2470  0.4663
  175DOPC   H3R21358   2.189  -0.067  13.931  0.5806 -0.5468 -1.5207
  175DOPC   H3S21359   2.089   0.019  13.808  1.5172 -1.1812 -0.7119
  175DOPC   C2421360   2.065   0.095  14.007  0.5136  0.4949  0.0764
  175DOPC   H4R21361   1.967   0.045  14.023  1.1364 -0.3868  1.3345
  175DOPC   H4S21362   2.043   0.197  13.969 -2.4996  0.6297  1.8284
  175DOPC   C2521363   2.140   0.110  14.135  0.2442  0.6224 -0.2278
  175DOPC   H5R21364   2.250   0.106  14.117  0.2199 -1.8174 -0.0841
  175DOPC   H5S21365   2.109   0.023  14.196 -1.4200  1.2382 -0.1388
  175DOPC   C2621366   2.107   0.235  14.207  0.3298  0.3527 -0.2712
  175DOPC   H6R21367   1.999   0.235  14.232  0.7931  0.0035  1.9219
  175DOPC   H6S21368   2.128   0.318  14.136  0.9665 -0.5025 -1.1201
  175DOPC   C2721369   2.183   0.251  14.333 -0.3558 -0.1188  0.5694
  175DOPC   H7R21370   2.289   0.252  14.298  0.1402 -0.1469  1.9719
  175DOPC   H7S21371   2.163   0.171  14.408 -0.4231 -0.0409  0.6347
  175DOPC   C2821372   2.147   0.385  14.409 -0.0553 -1.0767 -0.3651
  175DOPC   H8R21373   2.206   0.381  14.503  0.9744 -1.5193 -1.0129
  175DOPC   H8S21374   2.038   0.384  14.431 -0.5982 -2.5604 -2.8051
  175DOPC   C2921375   2.180   0.507  14.325 -0.7268  0.8968  0.2405
  175DOPC   H9R21376   2.116   0.547  14.245 -0.6821  0.6151  0.0621
  175DOPC  C21021377   2.290   0.577  14.334 -0.8181 -0.9482 -0.1142
  175DOPC  H10R21378   2.297   0.671  14.276  2.5262  0.5411  2.3619
  175DOPC  C21121379   2.406   0.555  14.423 -0.7649 -0.0344 -0.3312
  175DOPC  H11R21380   2.492   0.536  14.355 -0.0670 -1.4923  0.9163
  175DOPC  H11S21381   2.401   0.461  14.481 -1.2714 -0.3168 -0.8308
  175DOPC  C21221382   2.455   0.671  14.519 -0.3022  0.3782  0.3257
  175DOPC  H12R21383   2.458   0.768  14.464  0.4576  1.0452  1.4919
  175DOPC  H12S21384   2.558   0.648  14.552 -0.5736 -1.3572  0.0193
  175DOPC  C21321385   2.373   0.697  14.644  0.0586  0.3597 -0.9549
  175DOPC  H13R21386   2.266   0.690  14.613 -0.3576 -2.8389  0.7740
  175DOPC  H13S21387   2.398   0.793  14.695  2.4291 -1.1379  0.9156
  175DOPC  C21421388   2.386   0.578  14.741 -0.2076 -0.1326  0.3737
  175DOPC  H14R21389   2.491   0.562  14.773 -0.3271  1.7205  1.8561
  175DOPC  H14S21390   2.377   0.480  14.689  0.0486  1.0196 -1.9881
  175DOPC  C21521391   2.296   0.571  14.869  0.0458  0.4907  0.2391
  175DOPC  H15R21392   2.328   0.475  14.914 -1.1807 -0.9648 -1.8146
  175DOPC  H15S21393   2.189   0.554  14.844 -0.3832  3.0951  0.0025
  175DOPC  C21621394   2.312   0.702  14.950 -0.5651  0.7775 -0.0237
  175DOPC  H16R21395   2.280   0.771  14.869 -1.8353  0.0278 -0.1866
  175DOPC  H16S21396   2.417   0.730  14.973  0.6848 -2.6275 -0.9777
  175DOPC  C21721397   2.232   0.715  15.080 -0.4111 -0.1164 -0.1989
  175DOPC  H17R21398   2.293   0.666  15.158 -0.9153  1.4274  1.2107
  175DOPC  H17S21399   2.128   0.676  15.073 -0.4215 -0.2014  0.3898
  175DOPC  C21821400   2.216   0.860  15.120  0.3108 -0.3628  0.3305
  175DOPC  H18R21401   2.150   0.874  15.209 -0.2985  0.1817 -0.1945
  175DOPC  H18S21402   2.172   0.914  15.033  1.4671 -1.0305 -0.7028
  175DOPC  H18T21403   2.319   0.895  15.144  0.0898  0.7044 -0.2184
  175DOPC   C3321404   2.578   0.114  14.279 -0.9818 -0.1477  0.0891
  175DOPC   H3X21405   2.614   0.015  14.314 -1.4060 -1.9341 -3.8810
  175DOPC   H3Y21406   2.468   0.104  14.275 -0.8727 -1.8172  0.5403
  175DOPC   C3421407   2.614   0.213  14.390  0.0836  0.5542 -0.7011
  175DOPC   H4X21408   2.586   0.317  14.361  2.0741  1.0939 -0.8741
  175DOPC   H4Y21409   2.720   0.212  14.424 -0.0939  0.6095 -0.1233
  175DOPC   C3521410   2.539   0.175  14.517  0.0567  0.2362 -0.0746
  175DOPC   H5X21411   2.544   0.065  14.526  2.3545  0.3901  1.5146
  175DOPC   H5Y21412   2.430   0.195  14.512 -0.1855 -1.1459 -0.9717
  175DOPC   C3621413   2.597   0.236  14.648 -0.4249 -0.1699  0.6095
  175DOPC   H6X21414   2.700   0.196  14.656 -0.3021 -0.8433 -2.9128
  175DOPC   H6Y21415   2.600   0.345  14.628  2.0704 -0.6230 -2.1802
  175DOPC   C3721416   2.513   0.195  14.765 -0.5188  0.3378  0.6238
  175DOPC   H7X21417   2.410   0.231  14.749  0.1464  1.5078 -1.3652
  175DOPC   H7Y21418   2.511   0.084  14.775  0.3773  0.0660 -1.6159
  175DOPC   C3821419   2.566   0.260  14.896 -0.1092 -0.4184 -0.6113
  175DOPC   H8X21420   2.575   0.369  14.880 -1.5515 -0.2959 -0.6931
  175DOPC   H8Y21421   2.666   0.218  14.921 -0.3381  0.0203  1.1565
  175DOPC   C3921422   2.471   0.248  15.013  0.2426 -0.7669  0.5410
  175DOPC   H9X21423   2.386   0.184  14.985  1.8533 -1.7160 -2.7648
  175DOPC  C31021424   2.494   0.295  15.137  0.5970 -0.2118 -0.0835
  175DOPC  H10X21425   2.417   0.283  15.215  0.4270 -1.9422 -0.4751
  175DOPC  C31121426   2.604   0.388  15.183  0.1546  0.1808 -0.8529
  175DOPC  H11X21427   2.559   0.489  15.172 -0.7245 -0.2380 -1.2098
  175DOPC  H11Y21428   2.695   0.389  15.119  1.1526  1.2805  0.5136
  175DOPC  C31221429   2.661   0.384  15.329  0.0656  0.5041 -0.5061
  175DOPC  H12X21430   2.709   0.286  15.349 -0.3676  0.2004 -0.9313
  175DOPC  H12Y21431   2.577   0.392  15.401  0.1450  0.9645 -0.4627
  175DOPC  C31321432   2.776   0.476  15.365  0.1232  0.5251 -0.5304
  175DOPC  H13X21433   2.871   0.435  15.324  0.6176 -0.5965  1.6163
  175DOPC  H13Y21434   2.761   0.580  15.328  1.7002  1.2090  0.6194
  175DOPC  C31421435   2.798   0.464  15.520 -0.1482  0.1863 -0.0690
  175DOPC  H14X21436   2.699   0.489  15.562 -0.0264  0.7981 -0.1309
  175DOPC  H14Y21437   2.818   0.359  15.550 -1.4780 -0.5513 -1.6517
  175DOPC  C31521438   2.888   0.578  15.570 -0.5791  0.7167 -0.6686
  175DOPC  H15X21439   2.852   0.678  15.535 -1.1493  0.4531 -0.8449
  175DOPC  H15Y21440   2.986   0.565  15.519 -1.5756  0.1601 -2.5387
  175DOPC  C31621441   2.904   0.583  15.723  0.3345 -0.5105 -0.1765
  175DOPC  H16X21442   2.912   0.479  15.762 -0.8927 -0.5219  0.0891
  175DOPC  H16Y21443   2.996   0.643  15.738  0.4271 -0.5146 -0.7043
  175DOPC  C31721444   2.786   0.650  15.794  0.2828  0.5863  0.0318
  175DOPC  H17X21445   2.786   0.757  15.765 -1.1801  0.6341  0.1574
  175DOPC  H17Y21446   2.691   0.610  15.754  1.0570 -1.2609 -0.1078
  175DOPC  C31821447   2.790   0.625  15.943  0.5858 -0.8170  0.1348
  175DOPC  H18X21448   2.776   0.517  15.960 -3.8602 -0.4033  0.3075
  175DOPC  H18Y21449   2.886   0.655  15.990 -0.5895  1.7606  1.1099
  175DOPC  H18Z21450   2.700   0.674  15.986  0.2300 -0.7654 -0.6450
  176DOPC     N21451   3.165   2.213  12.893 -0.3360 -0.6525  0.2721
  176DOPC   C1221452   3.155   2.173  13.041  0.0371  0.4204  0.6157
  176DOPC  H12A21453   3.227   2.095  13.058 -0.9875 -0.6287  0.2973
  176DOPC  H12B21454   3.057   2.134  13.064 -0.4668  1.6179  0.6186
  176DOPC   C1321455   3.108   2.098  12.807 -0.5037  0.2906 -0.3724
  176DOPC  H13A21456   3.012   2.060  12.838 -0.4307  1.5908  1.7168
  176DOPC  H13B21457   3.100   2.117  12.701  0.0046 -0.7837 -0.6104
  176DOPC  H13C21458   3.178   2.016  12.809  0.1081  0.7834 -1.2315
  176DOPC   C1421459   3.314   2.234  12.849  0.1303 -0.1221  0.0807
  176DOPC  H14A21460   3.364   2.316  12.899 -1.6476  1.5816 -0.7741
  176DOPC  H14B21461   3.366   2.145  12.880 -1.6367 -1.5402 -0.8612
  176DOPC  H14C21462   3.322   2.256  12.744 -0.1402  0.2732  0.1370
  176DOPC   C1521463   3.087   2.332  12.859  0.5843  0.3652  0.3540
  176DOPC  H15A21464   3.114   2.362  12.759  0.8102  0.8093  0.5421
  176DOPC  H15B21465   3.115   2.420  12.916  2.4301  0.3632 -0.4707
  176DOPC  H15C21466   2.985   2.307  12.883  0.3504  0.5647 -0.4259
  176DOPC   C1121467   3.189   2.284  13.147  0.4622 -0.1587  0.4415
  176DOPC  H11A21468   3.110   2.363  13.144  1.4330  0.8301  0.2353
  176DOPC  H11B21469   3.179   2.238  13.248  0.0824 -0.9332  0.0570
  176DOPC     P21470   3.349   2.491  13.099 -0.0099  0.1621  0.5440
  176DOPC   O1321471   3.252   2.585  13.160  0.5981  0.0119  0.2795
  176DOPC   O1421472   3.368   2.508  12.955 -0.0352 -0.2862  0.3117
  176DOPC   O1221473   3.324   2.334  13.130  0.2457  0.2346  0.3184
  176DOPC   O1121474   3.483   2.522  13.160 -0.2344 -0.1548  0.2001
  176DOPC    C121475   3.581   2.427  13.202  0.1639  1.1658 -0.0155
  176DOPC    HA21476   3.683   2.470  13.191 -0.3766  2.6850  0.7198
  176DOPC    HB21477   3.578   2.339  13.134 -0.0336  1.3137 -0.1990
  176DOPC    C221478   3.565   2.375  13.352 -0.5146 -0.1089  0.4587
  176DOPC    HS21479   3.464   2.329  13.343 -0.8054  0.6061 -0.0091
  176DOPC   O2121480   3.572   2.491  13.435 -0.0969  0.6871 -0.8404
  176DOPC   C2121481   3.494   2.491  13.543 -0.6358  0.1357 -0.5263
  176DOPC   O2221482   3.421   2.398  13.575 -0.1198 -0.7713  0.3484
  176DOPC   C2221483   3.517   2.616  13.631 -0.0194 -0.5461  0.4848
  176DOPC   H2R21484   3.459   2.703  13.592 -1.0264 -0.5758  1.8064
  176DOPC   H2S21485   3.619   2.660  13.625 -0.2199 -0.1606 -0.2271
  176DOPC    C321486   3.682   2.277  13.393 -0.0913 -0.3663 -0.5288
  176DOPC    HX21487   3.773   2.339  13.411 -0.0177 -0.9182  1.1271
  176DOPC    HY21488   3.708   2.214  13.305  2.0801  0.1259 -0.3164
  176DOPC   O3121489   3.655   2.195  13.512 -0.8603  0.4864  0.7873
  176DOPC   C3121490   3.568   2.099  13.494  0.2907  0.6393  0.4252
  176DOPC   O3221491   3.522   2.059  13.390  0.2079  0.1785 -0.0618
  176DOPC   C3221492   3.529   2.037  13.629 -0.2778 -0.0615 -0.0553
  176DOPC   H2X21493   3.422   2.006  13.621 -0.2537 -0.2981  0.4644
  176DOPC   H2Y21494   3.590   1.944  13.635 -0.9680 -0.4219  2.3303
  176DOPC   C2321495   3.473   2.603  13.782  0.6101  0.3281 -0.1437
  176DOPC   H3R21496   3.396   2.526  13.805  0.5357  0.4142 -0.1023
  176DOPC   H3S21497   3.422   2.697  13.813 -0.5342  0.4756 -2.2241
  176DOPC   C2421498   3.586   2.592  13.883  0.5517  0.1915  0.1846
  176DOPC   H4R21499   3.672   2.649  13.842 -0.3345  2.3717  1.2046
  176DOPC   H4S21500   3.612   2.485  13.869 -0.2813  0.1174 -1.0167
  176DOPC   C2521501   3.560   2.635  14.034 -0.2597  0.5435 -0.3241
  176DOPC   H5R21502   3.505   2.732  14.037  1.4053  1.5083  1.3489
  176DOPC   H5S21503   3.656   2.657  14.086 -1.0286  3.2316  0.1221
  176DOPC   C2621504   3.474   2.536  14.113 -0.0751 -0.2165 -0.0802
  176DOPC   H6R21505   3.509   2.431  14.105 -0.3638 -0.2397 -1.2099
  176DOPC   H6S21506   3.372   2.535  14.068 -0.5501 -0.9785  0.9921
  176DOPC   C2721507   3.456   2.587  14.260  0.2097  0.6376  0.2068
  176DOPC   H7R21508   3.407   2.687  14.257  0.1458  0.7111  2.3945
  176DOPC   H7S21509   3.549   2.590  14.321  0.2873  2.0155  0.0660
  176DOPC   C2821510   3.356   2.492  14.336  0.6223 -0.4330 -0.1421
  176DOPC   H8R21511   3.410   2.394  14.344  1.2839  0.0272  1.5509
  176DOPC   H8S21512   3.273   2.473  14.265 -1.0316 -0.2250  1.6638
  176DOPC   C2921513   3.304   2.549  14.466  0.7590  0.1149  0.2267
  176DOPC   H9R21514   3.255   2.644  14.439  1.9089  0.2366 -1.6130
  176DOPC  C21021515   3.314   2.508  14.591 -0.1294 -0.1373 -0.3766
  176DOPC  H10R21516   3.264   2.563  14.673  0.3084 -1.9635  1.1893
  176DOPC  C21121517   3.370   2.373  14.619 -0.0216  0.2674 -1.0250
  176DOPC  H11R21518   3.480   2.387  14.613 -0.3331  3.2903 -0.8872
  176DOPC  H11S21519   3.346   2.291  14.547  1.8243 -1.5097  0.2585
  176DOPC  C21221520   3.318   2.327  14.758  0.0015 -0.2493 -0.4005
  176DOPC  H12R21521   3.207   2.334  14.767  0.1775  1.8267  0.6365
  176DOPC  H12S21522   3.358   2.395  14.835 -1.7429  1.0389 -0.5691
  176DOPC  C21321523   3.365   2.185  14.791  0.7412  0.2785 -0.1269
  176DOPC  H13R21524   3.460   2.168  14.736  0.2075  0.0699 -0.9996
  176DOPC  H13S21525   3.281   2.124  14.750  0.4711 -0.4219  1.4170
  176DOPC  C21421526   3.370   2.152  14.941  0.2723 -0.0826  0.3322
  176DOPC  H14R21527   3.269   2.139  14.985  0.0403 -2.4625 -0.7258
  176DOPC  H14S21528   3.424   2.238  14.985 -0.0155 -0.0231  0.5719
  176DOPC  C21521529   3.444   2.024  14.985  0.0228 -0.0240 -0.3965
  176DOPC  H15R21530   3.555   2.029  14.981 -0.0633  3.0815 -1.0655
  176DOPC  H15S21531   3.414   1.946  14.912 -2.4563 -0.1831  0.6801
  176DOPC  C21621532   3.389   1.974  15.121 -0.4464 -0.2656 -0.1930
  176DOPC  H16R21533   3.278   1.979  15.122 -0.4711 -0.2598 -1.3768
  176DOPC  H16S21534   3.413   2.044  15.204 -0.8956 -1.3872  0.9149
  176DOPC  C21721535   3.428   1.827  15.146  0.3050  0.0550 -0.4397
  176DOPC  H17R21536   3.538   1.814  15.137  0.1508 -0.8830 -1.1237
  176DOPC  H17S21537   3.378   1.778  15.059 -0.4992  1.6683 -0.9288
  176DOPC  C21821538   3.377   1.763  15.280  0.0103 -0.2480  0.0863
  176DOPC  H18R21539   3.398   1.654  15.269  1.0392 -0.0294 -0.2176
  176DOPC  H18S21540   3.272   1.792  15.300  0.2096  0.3757  0.2493
  176DOPC  H18T21541   3.437   1.803  15.364  2.4191  0.2706 -1.7624
  176DOPC   C3321542   3.527   2.137  13.742 -0.3799  0.4574 -0.5972
  176DOPC   H3X21543   3.456   2.217  13.709 -0.1048  0.5703 -0.9220
  176DOPC   H3Y21544   3.629   2.174  13.763  0.0998 -1.4751  0.6519
  176DOPC   C3421545   3.480   2.084  13.877 -0.1094 -0.1512 -0.0636
  176DOPC   H4X21546   3.531   1.992  13.911  0.2686  0.2044  0.3450
  176DOPC   H4Y21547   3.370   2.068  13.874 -0.3781  0.6362  2.6762
  176DOPC   C3521548   3.488   2.195  13.984 -0.2529  0.4829  0.0705
  176DOPC   H5X21549   3.436   2.284  13.943 -2.1914 -0.5286  0.2138
  176DOPC   H5Y21550   3.596   2.219  13.983  0.3149 -1.7427  1.3917
  176DOPC   C3621551   3.439   2.150  14.117  0.1080  0.2716 -0.8202
  176DOPC   H6X21552   3.441   2.239  14.183  0.8142 -0.4794  0.2206
  176DOPC   H6Y21553   3.335   2.113  14.110 -0.4249  1.1518  1.5749
  176DOPC   C3721554   3.525   2.033  14.175  0.1085  0.0880 -0.2194
  176DOPC   H7X21555   3.478   1.943  14.131  0.4130 -0.1538 -0.0580
  176DOPC   H7Y21556   3.625   2.047  14.130 -0.3094  0.1101 -1.1517
  176DOPC   C3821557   3.524   2.007  14.325  0.6625  0.0989 -0.0516
  176DOPC   H8X21558   3.597   1.923  14.333  0.8179  0.1910 -0.4635
  176DOPC   H8Y21559   3.427   1.960  14.354  1.9441 -2.9960 -0.3317
  176DOPC   C3921560   3.567   2.115  14.425 -0.5533  0.1059 -0.4142
  176DOPC   H9X21561   3.501   2.203  14.429  0.9752  1.2398  0.3620
  176DOPC  C31021562   3.651   2.101  14.529  0.1643  0.1821  0.1248
  176DOPC  H10X21563   3.649   2.186  14.599  1.7722 -0.3837  0.9148
  176DOPC  C31121564   3.743   1.981  14.557 -0.3673  0.0715  0.4666
  176DOPC  H11X21565   3.851   2.003  14.555  0.3291 -2.6466  1.9782
  176DOPC  H11Y21566   3.722   1.897  14.487 -2.0560  0.8344 -0.0027
  176DOPC  C31221567   3.715   1.931  14.698  0.1000  0.2621 -0.0309
  176DOPC  H12X21568   3.610   1.898  14.713  0.3599 -0.8565 -0.5623
  176DOPC  H12Y21569   3.731   2.020  14.763  2.9176  1.0560 -1.6619
  176DOPC  C31321570   3.810   1.827  14.751 -0.3795 -0.0428  0.2200
  176DOPC  H13X21571   3.767   1.746  14.689 -0.3360  1.3492 -1.7023
  176DOPC  H13Y21572   3.913   1.842  14.712 -0.1749 -0.3916  0.6120
  176DOPC  C31421573   3.794   1.811  14.901 -0.2180  0.0746 -0.2623
  176DOPC  H14X21574   3.784   1.902  14.964  0.0058 -0.0842  0.0069
  176DOPC  H14Y21575   3.703   1.752  14.926  0.1857 -0.2920  0.3838
  176DOPC  C31521576   3.906   1.726  14.947 -0.4796 -0.4879 -0.8130
  176DOPC  H15X21577   4.003   1.777  14.928 -1.6171  1.3530 -1.9702
  176DOPC  H15Y21578   3.909   1.638  14.880 -0.9293 -0.6546 -0.6155
  176DOPC  C31621579   3.897   1.679  15.097  0.0190 -0.1880 -0.2671
  176DOPC  H16X21580   3.790   1.659  15.123 -0.5091  1.9651 -0.6293
  176DOPC  H16Y21581   3.951   1.582  15.099  1.1185  0.3594 -1.8282
  176DOPC  C31721582   3.971   1.764  15.203  0.6045 -0.3812 -0.0686
  176DOPC  H17X21583   4.077   1.780  15.177  0.7405 -0.6864  0.2895
  176DOPC  H17Y21584   3.931   1.868  15.203  2.3937  0.3452 -1.4136
  176DOPC  C31821585   3.951   1.710  15.345 -0.2699  0.0889  0.4457
  176DOPC  H18X21586   3.843   1.693  15.364  0.1745 -1.6309  1.7113
  176DOPC  H18Y21587   4.005   1.615  15.366 -0.8838 -1.5880 -4.3360
  176DOPC  H18Z21588   3.988   1.784  15.419  1.0827 -1.5931  1.5416
  177DOPC     N21589   5.263   6.684  12.759  0.0507  0.2787  0.0293
  177DOPC   C1221590   5.162   6.643  12.863  0.0844  0.6901  0.7269
  177DOPC  H12A21591   5.217   6.602  12.947  0.8618  0.0861 -0.0555
  177DOPC  H12B21592   5.101   6.564  12.824  0.1888 -0.2758  2.4148
  177DOPC   C1321593   5.335   6.566  12.703  0.3221  1.0388  0.3327
  177DOPC  H13A21594   5.276   6.480  12.677  0.1874  2.0063 -3.1644
  177DOPC  H13B21595   5.374   6.588  12.604 -2.0827  1.8109 -0.5154
  177DOPC  H13C21596   5.421   6.535  12.760  0.3936 -0.3475 -0.4932
  177DOPC   C1421597   5.366   6.771  12.813 -0.4051 -0.4111  0.6758
  177DOPC  H14A21598   5.333   6.870  12.841  0.1421 -0.5126  1.7590
  177DOPC  H14B21599   5.414   6.726  12.899  1.2762 -1.5723 -0.7972
  177DOPC  H14C21600   5.436   6.791  12.734 -1.2612 -0.5975 -0.1504
  177DOPC   C1521601   5.191   6.759  12.648 -0.0282  0.8108  0.3673
  177DOPC  H15A21602   5.265   6.795  12.578 -1.5161  0.0088 -1.7091
  177DOPC  H15B21603   5.152   6.852  12.688 -0.0546 -0.6140  4.1230
  177DOPC  H15C21604   5.109   6.703  12.607 -0.4656  0.3794  1.7743
  177DOPC   C1121605   5.062   6.750  12.916  0.0354 -0.4778 -0.0492
  177DOPC  H11A21606   4.990   6.774  12.835 -0.6913 -1.2769  0.3499
  177DOPC  H11B21607   5.001   6.700  12.994 -0.8449  0.1543 -0.3064
  177DOPC     P21608   5.175   6.879  13.118 -0.3271 -0.3073 -0.4837
  177DOPC   O1321609   5.319   6.859  13.145  0.5706  0.5583  0.2268
  177DOPC   O1421610   5.088   6.806  13.208 -0.2490  0.2937 -0.2244
  177DOPC   O1221611   5.140   6.863  12.965  0.2172 -0.0310 -0.2173
  177DOPC   O1121612   5.147   7.033  13.133 -0.2669 -0.2431 -0.3295
  177DOPC    C121613   5.246   7.129  13.175  0.6906  0.5289  0.0280
  177DOPC    HA21614   5.195   7.228  13.176  2.4681  1.5326  2.2828
  177DOPC    HB21615   5.340   7.128  13.115  1.9146  1.5090  1.8176
  177DOPC    C221616   5.289   7.108  13.321 -0.2569  0.1421 -0.0856
  177DOPC    HS21617   5.317   7.002  13.339 -0.5365  0.3892  2.0955
  177DOPC   O2121618   5.186   7.151  13.409  0.1282 -0.3063 -0.1916
  177DOPC   C2121619   5.174   7.090  13.522  0.1212 -0.0292 -0.2576
  177DOPC   O2221620   5.205   6.979  13.557 -0.0419  0.2652  0.2793
  177DOPC   C2221621   5.091   7.182  13.615  0.0966  0.1520 -0.1056
  177DOPC   H2R21622   5.009   7.227  13.554  0.0022  1.7355  1.1038
  177DOPC   H2S21623   5.165   7.261  13.641  2.7482 -3.0362  3.0777
  177DOPC    C321624   5.417   7.190  13.345 -0.4715 -0.1756  0.2165
  177DOPC    HX21625   5.403   7.292  13.302 -1.3012  1.2574  3.5127
  177DOPC    HY21626   5.487   7.135  13.279  0.6781  0.0649  1.2002
  177DOPC   O3121627   5.453   7.194  13.482  0.1131  0.1088  0.0288
  177DOPC   C3121628   5.527   7.085  13.524 -0.3012 -0.0550 -0.6246
  177DOPC   O3221629   5.566   6.991  13.459  0.3097 -0.5654 -0.2351
  177DOPC   C3221630   5.544   7.110  13.676  0.2648 -0.0720  0.6817
  177DOPC   H2X21631   5.637   7.169  13.685 -1.8852  3.5721  0.9892
  177DOPC   H2Y21632   5.458   7.171  13.712  0.0680 -0.3097  0.6212
  177DOPC   C2321633   5.033   7.103  13.733 -0.5490 -0.4441  0.0928
  177DOPC   H3R21634   4.984   7.008  13.701 -0.7911  0.2521 -1.6799
  177DOPC   H3S21635   4.946   7.150  13.783 -0.8657 -0.5283 -0.3727
  177DOPC   C2421636   5.140   7.082  13.848 -0.3988  0.1528 -0.1270
  177DOPC   H4R21637   5.246   7.098  13.818 -0.3187 -1.5291 -0.8477
  177DOPC   H4S21638   5.127   6.976  13.876 -1.9247 -0.2915 -2.2254
  177DOPC   C2521639   5.118   7.171  13.968  0.1561 -0.2702 -0.1345
  177DOPC   H5R21640   5.055   7.252  13.926 -0.3465 -0.0007  1.1061
  177DOPC   H5S21641   5.216   7.217  13.993  1.2044 -2.2849 -0.3682
  177DOPC   C2621642   5.062   7.103  14.097 -0.1717  0.6200 -0.7946
  177DOPC   H6R21643   5.138   7.033  14.138 -0.4288  0.6270 -0.3051
  177DOPC   H6S21644   4.968   7.045  14.086  0.8866 -1.1461 -0.9188
  177DOPC   C2721645   5.048   7.206  14.212 -0.2634 -0.3483 -0.0758
  177DOPC   H7R21646   4.996   7.152  14.294  2.4937 -1.9802  0.7482
  177DOPC   H7S21647   5.001   7.301  14.181  0.8336  0.1456 -0.2824
  177DOPC   C2821648   5.179   7.243  14.276  0.4343 -0.4395  0.1343
  177DOPC   H8R21649   5.158   7.322  14.352 -0.5096 -2.1733  1.7721
  177DOPC   H8S21650   5.239   7.290  14.196  0.3397 -0.1500  0.2307
  177DOPC   C2921651   5.250   7.130  14.353 -0.2273 -0.1548  0.4623
  177DOPC   H9R21652   5.322   7.077  14.289 -0.1898  0.8769 -0.3892
  177DOPC  C21021653   5.240   7.095  14.486  0.0714 -0.1059 -0.7014
  177DOPC  H10R21654   5.297   7.013  14.532  1.4041  1.5400  0.7002
  177DOPC  C21121655   5.165   7.172  14.593  0.7026 -0.3811  0.2948
  177DOPC  H11R21656   5.133   7.111  14.680 -1.4242  0.9693  0.5237
  177DOPC  H11S21657   5.073   7.217  14.551 -0.3640 -1.6648  1.1914
  177DOPC  C21221658   5.251   7.286  14.643  0.3991  0.1610  0.1708
  177DOPC  H12R21659   5.182   7.361  14.687  1.2804  0.9671  0.2058
  177DOPC  H12S21660   5.296   7.321  14.548 -0.4407 -0.3709 -0.4451
  177DOPC  C21321661   5.358   7.254  14.744 -1.0007 -0.1410 -0.2606
  177DOPC  H13R21662   5.418   7.344  14.769 -0.9672 -0.8334  2.4814
  177DOPC  H13S21663   5.420   7.175  14.696 -2.9324 -1.1780 -1.1804
  177DOPC  C21421664   5.300   7.185  14.866 -0.1501 -0.2525 -0.2870
  177DOPC  H14R21665   5.235   7.098  14.841 -0.8361 -0.0869  0.8604
  177DOPC  H14S21666   5.236   7.254  14.924  0.6633 -0.3126  0.7089
  177DOPC  C21521667   5.398   7.104  14.949 -0.3849  0.0814  0.3097
  177DOPC  H15R21668   5.503   7.136  14.928 -0.1013 -0.8204  0.2930
  177DOPC  H15S21669   5.390   6.999  14.912  1.3449  0.2435 -0.6705
  177DOPC  C21621670   5.377   7.124  15.099  0.2126  0.2359  0.2002
  177DOPC  H16R21671   5.274   7.092  15.123 -0.3376  0.2786 -1.9218
  177DOPC  H16S21672   5.388   7.234  15.115  3.2243 -0.0690  0.8586
  177DOPC  C21721673   5.486   7.053  15.174 -0.1008  0.2753 -0.3787
  177DOPC  H17R21674   5.491   6.945  15.148  2.1588 -0.0378  1.0954
  177DOPC  H17S21675   5.455   7.066  15.280 -0.0152  1.3710 -0.4774
  177DOPC  C21821676   5.624   7.123  15.166  0.2743  1.0770 -0.1478
  177DOPC  H18R21677   5.697   7.049  15.206 -0.4454 -0.0886 -0.9076
  177DOPC  H18S21678   5.625   7.220  15.219 -0.2280  0.0430  1.8743
  177DOPC  H18T21679   5.649   7.143  15.060  2.8903  2.1004  0.5982
  177DOPC   C3321680   5.571   6.992  13.772  0.2894  0.7602 -0.9489
  177DOPC   H3X21681   5.669   6.952  13.738  0.2887 -0.4789  0.3968
  177DOPC   H3Y21682   5.499   6.908  13.768 -0.9306  1.5181  2.2845
  177DOPC   C3421683   5.578   7.032  13.922 -0.3779 -0.0939  0.0802
  177DOPC   H4X21684   5.482   7.006  13.971  0.9476 -2.9188  1.4214
  177DOPC   H4Y21685   5.590   7.136  13.957  0.3278 -0.6960  1.7596
  177DOPC   C3521686   5.685   6.951  13.996  0.4628  0.4566  0.0192
  177DOPC   H5X21687   5.783   6.996  13.967  0.9148  0.5158  1.5530
  177DOPC   H5Y21688   5.685   6.841  13.987 -1.5522  0.5316 -1.2883
  177DOPC   C3621689   5.670   6.986  14.148  0.1014 -0.4208 -0.2949
  177DOPC   H6X21690   5.695   7.094  14.156 -3.0411  0.4603 -0.9009
  177DOPC   H6Y21691   5.564   6.979  14.180  0.3433  0.3931  0.7422
  177DOPC   C3721692   5.760   6.917  14.248 -0.5513  0.1925  0.5407
  177DOPC   H7X21693   5.746   6.806  14.247 -1.0372  0.2584  0.0147
  177DOPC   H7Y21694   5.866   6.933  14.220 -0.5129 -1.2343 -0.2330
  177DOPC   C3821695   5.742   6.964  14.396 -0.3069  0.2245  0.8143
  177DOPC   H8X21696   5.734   7.074  14.408 -2.0220  0.1527  0.6227
  177DOPC   H8Y21697   5.835   6.936  14.449  0.5667  4.1392  1.6463
  177DOPC   C3921698   5.630   6.891  14.471 -0.3920  0.1417 -0.7234
  177DOPC   H9X21699   5.572   6.816  14.416 -1.0511 -1.4015  1.9402
  177DOPC  C31021700   5.628   6.891  14.606  0.1665  0.3566  0.5585
  177DOPC  H10X21701   5.560   6.818  14.650  2.1757 -2.1556 -0.2385
  177DOPC  C31121702   5.719   6.976  14.699  0.4612 -0.7662  0.1846
  177DOPC  H11X21703   5.665   7.032  14.779 -0.4927  1.1813 -1.7164
  177DOPC  H11Y21704   5.750   7.055  14.627  2.1948 -1.7679 -0.2409
  177DOPC  C31221705   5.845   6.908  14.747  0.3539  0.0794  0.2816
  177DOPC  H12X21706   5.907   6.873  14.661  1.4450  1.8210  0.3010
  177DOPC  H12Y21707   5.825   6.827  14.821 -4.2644 -1.7562 -2.5002
  177DOPC  C31321708   5.950   6.999  14.817  0.5222 -0.1622  0.2087
  177DOPC  H13X21709   5.995   7.067  14.742  0.4144 -0.3573 -0.0319
  177DOPC  H13Y21710   5.892   7.055  14.894  0.5410 -2.2258  1.8312
  177DOPC  C31421711   6.058   6.917  14.889  0.5931  0.3461 -0.3329
  177DOPC  H14X21712   6.019   6.854  14.972  3.0636 -0.8680 -0.0003
  177DOPC  H14Y21713   6.122   6.857  14.821 -0.4441  0.0043 -1.0449
  177DOPC  C31521714   6.161   7.020  14.948  0.1866  0.6664 -0.1352
  177DOPC  H15X21715   6.116   7.046  15.046 -0.7717 -2.2656  0.3014
  177DOPC  H15Y21716   6.165   7.110  14.882  1.2214  1.3853  0.8581
  177DOPC  C31621717   6.301   6.971  14.934 -0.6064  1.1978 -0.0124
  177DOPC  H16X21718   6.316   6.926  14.834 -0.2493 -0.0120  0.5642
  177DOPC  H16Y21719   6.373   7.055  14.949 -0.2200  0.7365  0.7600
  177DOPC  C31721720   6.345   6.854  15.019  0.1006 -0.2004  0.1598
  177DOPC  H17X21721   6.296   6.874  15.116 -0.6753  0.9898 -0.4642
  177DOPC  H17Y21722   6.305   6.763  14.969  0.7918 -0.5479  0.2329
  177DOPC  C31821723   6.495   6.825  15.030  0.5988 -0.5503  0.0682
  177DOPC  H18X21724   6.536   6.778  14.938  0.5999 -1.4310  0.5122
  177DOPC  H18Y21725   6.549   6.915  15.066 -0.4301  0.5669 -1.0462
  177DOPC  H18Z21726   6.532   6.760  15.112  1.1790 -0.5206 -0.1633
  178DOPC     N21727   3.041   7.178  13.345  0.5989  0.2711  0.6846
  178DOPC   C1221728   2.953   7.047  13.338 -0.3699 -0.1378 -0.5325
  178DOPC  H12A21729   3.011   6.978  13.279 -0.0440 -1.0182  0.7496
  178DOPC  H12B21730   2.864   7.070  13.281  0.1355  0.9250 -0.9043
  178DOPC   C1321731   3.061   7.227  13.204 -0.2175  0.4118 -0.2999
  178DOPC  H13A21732   2.969   7.232  13.148 -0.2488 -0.4487 -0.3241
  178DOPC  H13B21733   3.101   7.328  13.207 -2.9179  1.5483  1.6622
  178DOPC  H13C21734   3.137   7.173  13.148  1.9322  1.9136  0.9949
  178DOPC   C1421735   3.175   7.147  13.393  0.1928  0.1159 -0.5242
  178DOPC  H14A21736   3.207   7.072  13.322 -0.2646  0.4264 -1.0686
  178DOPC  H14B21737   3.244   7.230  13.394  2.3724 -1.5979  1.1644
  178DOPC  H14C21738   3.176   7.104  13.492 -0.4050  1.3594  0.0408
  178DOPC   C1521739   2.976   7.276  13.438  0.3209  0.0458 -0.0479
  178DOPC  H15A21740   2.941   7.219  13.523  4.9426 -1.2989  1.2578
  178DOPC  H15B21741   2.903   7.340  13.389 -1.2461 -1.2673  0.4665
  178DOPC  H15C21742   3.044   7.352  13.471 -2.4095  1.4533  2.8860
  178DOPC   C1121743   2.925   6.975  13.473 -0.3598 -0.4446 -0.0760
  178DOPC  H11A21744   2.872   6.879  13.458  2.3904 -1.7325 -2.3577
  178DOPC  H11B21745   3.022   6.952  13.522 -0.6187 -1.8364 -0.1891
  178DOPC     P21746   2.694   7.072  13.566  0.4033 -0.2841 -0.2860
  178DOPC   O1321747   2.622   6.943  13.543 -0.0618  0.0051 -0.8134
  178DOPC   O1421748   2.646   7.193  13.487  0.0673  0.5739 -0.4266
  178DOPC   O1221749   2.855   7.061  13.559 -0.1282  0.0161  0.6278
  178DOPC   O1121750   2.667   7.108  13.718  0.1857  0.2834  0.3415
  178DOPC    C121751   2.745   7.047  13.818  0.1426 -0.6534  0.2280
  178DOPC    HA21752   2.855   7.057  13.799 -0.3371  0.0073 -2.6648
  178DOPC    HB21753   2.726   6.940  13.837 -0.7767 -0.9583 -2.0772
  178DOPC    C221754   2.727   7.132  13.951 -0.3934  0.0463  0.4021
  178DOPC    HS21755   2.814   7.198  13.972 -0.1554 -0.2245  0.2705
  178DOPC   O2121756   2.712   7.041  14.062 -0.3243 -0.0138 -0.0025
  178DOPC   C2121757   2.827   7.012  14.123 -0.2420  0.7884  0.1896
  178DOPC   O2221758   2.942   7.044  14.088  0.6472 -0.0023  0.2065
  178DOPC   C2221759   2.799   6.927  14.248 -0.2452 -0.0244 -0.1893
  178DOPC   H2R21760   2.868   6.840  14.241 -1.3863 -1.1934  2.0342
  178DOPC   H2S21761   2.698   6.883  14.241 -0.0519 -0.1996 -3.0697
  178DOPC    C321762   2.609   7.236  13.954 -0.1999 -0.1755 -0.1089
  178DOPC    HX21763   2.517   7.179  13.928  0.4857 -0.2322 -2.7190
  178DOPC    HY21764   2.618   7.309  13.870 -2.3991  2.2823  1.6362
  178DOPC   O3121765   2.591   7.302  14.085  0.5018  0.0522 -0.1564
  178DOPC   C3121766   2.467   7.354  14.099  0.4426  0.5030 -0.4062
  178DOPC   O3221767   2.376   7.352  14.019  0.3682  0.0898  0.2866
  178DOPC   C3221768   2.457   7.424  14.234  0.0137 -0.8112 -0.1083
  178DOPC   H2X21769   2.526   7.374  14.306  0.7437 -0.8036 -0.7944
  178DOPC   H2Y21770   2.494   7.527  14.220 -0.8247 -0.7671 -2.2326
  178DOPC   C2321771   2.840   6.987  14.384  0.8800 -0.3299  0.1229
  178DOPC   H3R21772   2.950   7.004  14.379  0.5548  2.0221 -0.2458
  178DOPC   H3S21773   2.833   6.908  14.462 -1.5415 -1.6596 -1.3026
  178DOPC   C2421774   2.763   7.120  14.431 -0.2487 -0.0220  0.2220
  178DOPC   H4R21775   2.653   7.109  14.425 -0.3563  0.5747  0.9905
  178DOPC   H4S21776   2.785   7.206  14.364  0.3986 -0.6897 -0.4419
  178DOPC   C2521777   2.810   7.157  14.573 -0.4118 -0.3452 -0.5091
  178DOPC   H5R21778   2.775   7.258  14.604  0.1034 -1.0432  2.7690
  178DOPC   H5S21779   2.921   7.146  14.576  0.0598  3.3396  1.1281
  178DOPC   C2621780   2.743   7.062  14.677 -0.2749  0.2425  0.2645
  178DOPC   H6R21781   2.803   7.066  14.770  0.2288  0.7746 -0.0726
  178DOPC   H6S21782   2.750   6.959  14.634  1.1592  0.1326  0.7086
  178DOPC   C2721783   2.605   7.097  14.731 -0.7168 -0.1029  1.1894
  178DOPC   H7R21784   2.527   7.110  14.652 -0.7857  1.3083  1.4535
  178DOPC   H7S21785   2.604   7.200  14.774 -2.2231  0.5811 -0.3566
  178DOPC   C2821786   2.554   7.009  14.844 -0.2221 -0.3866 -0.0409
  178DOPC   H8R21787   2.628   7.007  14.927 -0.5928 -0.6451  0.2822
  178DOPC   H8S21788   2.541   6.904  14.811  2.1537 -1.6508  2.6573
  178DOPC   C2921789   2.414   7.047  14.888 -0.0940 -0.2745  0.0548
  178DOPC   H9R21790   2.349   7.073  14.803 -0.4174  1.6758  0.8423
  178DOPC  C21021791   2.375   7.085  15.009  0.5071 -0.1064 -0.3146
  178DOPC  H10R21792   2.268   7.100  15.029  0.6948  0.0675  0.6210
  178DOPC  C21121793   2.452   7.082  15.142  0.6166  0.2879  0.3507
  178DOPC  H11R21794   2.421   7.162  15.213 -2.4462 -0.6689  0.2536
  178DOPC  H11S21795   2.562   7.085  15.124  0.8193 -2.1880  0.8291
  178DOPC  C21221796   2.424   6.959  15.223 -0.4264  0.2627  0.8459
  178DOPC  H12R21797   2.500   6.955  15.304  0.0807 -0.0322  0.3681
  178DOPC  H12S21798   2.454   6.872  15.161  1.4890  1.7655 -0.4783
  178DOPC  C21321799   2.276   6.943  15.270  0.1240 -0.9052 -0.2869
  178DOPC  H13R21800   2.212   6.954  15.180 -0.1961  1.3835  0.1714
  178DOPC  H13S21801   2.252   7.030  15.335 -1.6464  0.3399 -2.4750
  178DOPC  C21421802   2.238   6.806  15.337  0.6026 -0.3598  0.2868
  178DOPC  H14R21803   2.243   6.727  15.259 -0.4446 -1.1381  0.9893
  178DOPC  H14S21804   2.141   6.829  15.386  1.5330  2.5426  0.9829
  178DOPC  C21521805   2.338   6.757  15.446 -0.9357  0.7044 -0.1112
  178DOPC  H15R21806   2.428   6.730  15.387 -2.1009  0.4802 -1.8458
  178DOPC  H15S21807   2.305   6.656  15.477 -0.4125  0.1362 -1.3599
  178DOPC  C21621808   2.366   6.856  15.556  0.0836 -0.1164  0.6579
  178DOPC  H16R21809   2.274   6.851  15.618  0.3780 -1.7083  1.0213
  178DOPC  H16S21810   2.385   6.962  15.529  1.0371 -0.4709 -0.1093
  178DOPC  C21721811   2.473   6.824  15.663 -0.1494  0.2612  0.1604
  178DOPC  H17R21812   2.477   6.720  15.702  1.9706  1.5490  3.8665
  178DOPC  H17S21813   2.459   6.889  15.752  1.0220  1.0341 -0.1900
  178DOPC  C21821814   2.613   6.858  15.616  0.0987 -0.6194  0.9629
  178DOPC  H18R21815   2.625   6.968  15.622  0.2823 -0.4491 -1.6627
  178DOPC  H18S21816   2.635   6.820  15.514 -0.4376  1.1796  0.1256
  178DOPC  H18T21817   2.684   6.813  15.688 -1.0431 -1.6212  1.4997
  178DOPC   C3321818   2.312   7.437  14.288  0.0645 -0.5124  0.6260
  178DOPC   H3X21819   2.259   7.340  14.282  0.6979 -0.7864 -1.3445
  178DOPC   H3Y21820   2.248   7.490  14.213  0.0957  0.4264  1.2467
  178DOPC   C3421821   2.293   7.499  14.431  0.9518  0.0525  1.3524
  178DOPC   H4X21822   2.187   7.486  14.462  0.9278  1.2764  1.8035
  178DOPC   H4Y21823   2.311   7.608  14.433  0.7082  0.1603 -0.4480
  178DOPC   C3521824   2.381   7.430  14.543  0.1584  1.2522 -0.3417
  178DOPC   H5X21825   2.489   7.457  14.545  1.2136 -2.5436  1.8134
  178DOPC   H5Y21826   2.370   7.320  14.534  1.4122  1.2364 -2.3965
  178DOPC   C3621827   2.317   7.466  14.684 -0.4340  0.2058  0.7589
  178DOPC   H6X21828   2.402   7.452  14.754 -1.3282  1.8718  2.2803
  178DOPC   H6Y21829   2.287   7.572  14.700 -1.4198  0.0858 -0.1786
  178DOPC   C3721830   2.199   7.372  14.719 -0.4044  0.1681  0.6350
  178DOPC   H7X21831   2.114   7.406  14.657  1.5230  2.0026 -1.1480
  178DOPC   H7Y21832   2.224   7.268  14.686  0.8686  0.6206  0.0939
  178DOPC   C3821833   2.170   7.373  14.870 -0.4350  0.2332  0.3382
  178DOPC   H8X21834   2.264   7.338  14.917 -2.3504 -3.4222  1.8188
  178DOPC   H8Y21835   2.104   7.284  14.879  1.1641 -1.1342 -0.8697
  178DOPC   C3921836   2.130   7.504  14.926  0.1472 -0.1728  0.2183
  178DOPC   H9X21837   2.180   7.589  14.878  0.5719 -1.2885 -1.4164
  178DOPC  C31021838   2.037   7.525  15.017  0.5813 -0.6993  0.5559
  178DOPC  H10X21839   2.003   7.629  15.003  1.8968 -0.4520 -1.0277
  178DOPC  C31121840   1.962   7.421  15.100  0.0876 -0.3729  0.3649
  178DOPC  H11X21841   1.972   7.325  15.046 -0.6231  0.3236 -1.0494
  178DOPC  H11Y21842   1.853   7.444  15.103  0.5517  2.0355  1.1996
  178DOPC  C31221843   2.018   7.393  15.246 -0.5672  0.1279  0.3563
  178DOPC  H12X21844   1.964   7.306  15.288  0.3334 -0.9892 -0.7259
  178DOPC  H12Y21845   2.016   7.489  15.303  2.0580  0.6002 -0.2261
  178DOPC  C31321846   2.168   7.349  15.244  0.1920  0.3115 -0.4092
  178DOPC  H13X21847   2.168   7.263  15.173 -1.7061 -0.4864  0.5056
  178DOPC  H13Y21848   2.229   7.426  15.194 -0.4613  0.0654 -1.6183
  178DOPC  C31421849   2.212   7.304  15.380  0.0652  0.2725 -0.3342
  178DOPC  H14X21850   2.150   7.218  15.414 -1.4592  1.0329 -1.0381
  178DOPC  H14Y21851   2.310   7.254  15.388  0.0150  0.4930  3.1094
  178DOPC  C31521852   2.195   7.413  15.490 -0.3149 -0.3798  0.6433
  178DOPC  H15X21853   2.228   7.369  15.586  2.2451  0.7192  0.3614
  178DOPC  H15Y21854   2.086   7.435  15.486 -0.0564  0.7989 -1.3526
  178DOPC  C31621855   2.262   7.544  15.458 -0.4559 -0.0123  0.4123
  178DOPC  H16X21856   2.225   7.580  15.359 -2.2586  0.4414  1.2114
  178DOPC  H16Y21857   2.222   7.615  15.534  0.5313  1.2014 -0.1617
  178DOPC  C31721858   2.417   7.545  15.462 -0.0262 -0.0362  0.0452
  178DOPC  H17X21859   2.443   7.491  15.555 -0.7739  0.2828  0.4495
  178DOPC  H17Y21860   2.448   7.477  15.380 -0.8027  0.7202 -0.8993
  178DOPC  C31821861   2.474   7.677  15.457  0.0635 -0.0184 -0.3302
  178DOPC  H18X21862   2.444   7.739  15.545  0.1840 -0.2923 -0.0961
  178DOPC  H18Y21863   2.585   7.677  15.447  0.0411  2.2476 -1.1996
  178DOPC  H18Z21864   2.440   7.728  15.364  2.0739  1.4422 -0.3463
  179DOPC     N21865   6.411   7.165  12.723 -0.1001  0.0320 -0.4157
  179DOPC   C1221866   6.349   7.119  12.851  0.5362  0.4065 -0.6970
  179DOPC  H12A21867   6.306   7.198  12.911 -0.7728  0.9128 -2.2373
  179DOPC  H12B21868   6.435   7.086  12.906 -0.2947 -1.5201 -0.4754
  179DOPC   C1321869   6.519   7.261  12.742  0.3266  0.1297  0.3194
  179DOPC  H13A21870   6.484   7.359  12.773 -0.2542 -0.0908  0.3752
  179DOPC  H13B21871   6.603   7.235  12.804  1.4198  3.3983  0.4326
  179DOPC  H13C21872   6.566   7.275  12.646 -1.2445 -0.0053 -0.5129
  179DOPC   C1421873   6.312   7.225  12.623  0.2406 -0.1298  0.5972
  179DOPC  H14A21874   6.266   7.316  12.661 -0.7419 -0.7830  1.0140
  179DOPC  H14B21875   6.358   7.248  12.529 -1.9335 -0.6924 -0.6814
  179DOPC  H14C21876   6.235   7.152  12.604  0.4556 -0.3890  0.7057
  179DOPC   C1521877   6.472   7.049  12.653  0.3624  0.4183 -0.3899
  179DOPC  H15A21878   6.392   6.979  12.632  0.6133  0.1387 -0.4268
  179DOPC  H15B21879   6.545   7.002  12.718 -0.3686 -0.9266 -0.4968
  179DOPC  H15C21880   6.516   7.077  12.559  0.1623 -0.7384 -0.8402
  179DOPC   C1121881   6.249   6.999  12.856  0.3305  0.4612 -0.6069
  179DOPC  H11A21882   6.292   6.909  12.808 -2.0405 -1.3828  0.4925
  179DOPC  H11B21883   6.242   6.959  12.960 -1.8878  1.1538 -0.4340
  179DOPC     P21884   5.994   7.076  12.881 -0.0004  0.0562  0.3625
  179DOPC   O1321885   5.859   7.036  12.831  1.2915  0.2141 -0.0549
  179DOPC   O1421886   6.016   7.228  12.900 -0.0396 -0.4947 -0.8357
  179DOPC   O1221887   6.115   7.023  12.792  0.2323  0.1715 -0.6213
  179DOPC   O1121888   6.005   7.013  13.022 -0.4927 -0.3689 -0.7155
  179DOPC    C121889   5.886   7.001  13.108 -0.2559 -0.0328  0.4084
  179DOPC    HA21890   5.812   6.929  13.066  0.2083 -1.3651  1.7516
  179DOPC    HB21891   5.840   7.102  13.116 -0.3170 -0.0456  0.2310
  179DOPC    C221892   5.915   6.956  13.255 -0.6010 -0.4604 -0.3060
  179DOPC    HS21893   5.818   6.915  13.292 -0.0874 -2.1039 -0.6954
  179DOPC   O2121894   5.979   7.066  13.325 -0.0991  0.3823 -0.5602
  179DOPC   C2121895   5.901   7.163  13.366  0.7590 -0.1214 -0.3763
  179DOPC   O2221896   5.782   7.173  13.350  0.6521  0.3982  0.2351
  179DOPC   C2221897   5.982   7.263  13.449  0.0414  0.6936  0.0960
  179DOPC   H2R21898   5.922   7.354  13.472  1.0092  1.2188  0.6313
  179DOPC   H2S21899   6.068   7.296  13.387  1.3150  1.8130  2.3231
  179DOPC    C321900   6.018   6.842  13.263 -0.2392  0.6883 -0.6402
  179DOPC    HX21901   6.109   6.892  13.225 -0.3612  0.2774 -1.5022
  179DOPC    HY21902   6.005   6.756  13.194 -0.5064  0.3260 -0.1478
  179DOPC   O3121903   6.050   6.803  13.395 -0.1471  0.7444 -0.2822
  179DOPC   C3121904   5.965   6.742  13.473  1.2633 -0.6475 -0.4648
  179DOPC   O3221905   5.843   6.721  13.444 -0.6615 -0.1683 -0.5584
  179DOPC   C3221906   6.034   6.696  13.611  0.2080  0.3567  0.6059
  179DOPC   H2X21907   6.086   6.602  13.584 -2.3110 -0.7598 -0.7449
  179DOPC   H2Y21908   6.089   6.786  13.648 -0.5609  1.9226 -1.7868
  179DOPC   C2321909   6.053   7.201  13.569  0.2574 -0.1815 -0.0917
  179DOPC   H3R21910   6.130   7.271  13.606  1.5489 -0.5551 -1.9206
  179DOPC   H3S21911   6.100   7.109  13.528 -0.2757 -0.8385  0.7338
  179DOPC   C2421912   5.954   7.164  13.676  0.2160 -0.4562  0.4919
  179DOPC   H4R21913   5.876   7.096  13.635 -0.3556  0.3051  0.3091
  179DOPC   H4S21914   5.903   7.256  13.710  1.1913  0.7054 -1.0802
  179DOPC   C2521915   6.008   7.089  13.799  0.0939  0.1620  0.3874
  179DOPC   H5R21916   6.101   7.047  13.755 -0.0954  1.1458 -1.0299
  179DOPC   H5S21917   5.947   7.011  13.848 -1.9873  1.6490  0.3185
  179DOPC   C2621918   6.054   7.190  13.904 -0.4201 -0.1787  0.1165
  179DOPC   H6R21919   5.962   7.249  13.925 -2.0521 -1.6120 -2.4698
  179DOPC   H6S21920   6.132   7.252  13.855  0.6133 -3.0465 -2.1427
  179DOPC   C2721921   6.101   7.117  14.027 -0.0710 -0.2453  0.9340
  179DOPC   H7R21922   6.167   7.035  13.990 -0.0086  0.3873 -0.4148
  179DOPC   H7S21923   6.009   7.088  14.081 -0.2709  0.7560  1.1499
  179DOPC   C2821924   6.187   7.204  14.121 -0.6171  0.4601 -0.5071
  179DOPC   H8R21925   6.285   7.230  14.075 -0.3950  0.4836 -0.0239
  179DOPC   H8S21926   6.205   7.145  14.214 -1.5222 -1.0137 -1.2359
  179DOPC   C2921927   6.134   7.330  14.177 -0.8992  0.4198 -0.0737
  179DOPC   H9R21928   6.049   7.366  14.118 -1.6540 -2.7854 -1.1415
  179DOPC  C21021929   6.177   7.397  14.279 -0.2852 -0.2812  0.2030
  179DOPC  H10R21930   6.124   7.491  14.300  2.7761  1.7118 -0.3174
  179DOPC  C21121931   6.290   7.353  14.366  0.0902 -0.0741 -0.5385
  179DOPC  H11R21932   6.325   7.249  14.347  2.1461  0.7856 -1.8455
  179DOPC  H11S21933   6.248   7.349  14.469 -2.1310  2.1013 -1.2610
  179DOPC  C21221934   6.411   7.444  14.366 -0.1079 -0.5694  0.8755
  179DOPC  H12R21935   6.381   7.547  14.396  0.4258 -0.0985 -0.1488
  179DOPC  H12S21936   6.459   7.453  14.267  0.7843 -0.4728  1.3089
  179DOPC  C21321937   6.522   7.411  14.472 -0.0146 -0.4208  0.0026
  179DOPC  H13R21938   6.599   7.491  14.465 -0.7051  0.2292 -0.1972
  179DOPC  H13S21939   6.569   7.319  14.428  0.2781  1.2830 -3.6741
  179DOPC  C21421940   6.475   7.374  14.613  0.4134  0.3998  0.2255
  179DOPC  H14R21941   6.563   7.360  14.679 -0.1745 -0.8158  0.7721
  179DOPC  H14S21942   6.412   7.283  14.608  2.2306 -0.9736  1.4648
  179DOPC  C21521943   6.389   7.481  14.681 -1.1159 -0.0601 -0.7318
  179DOPC  H15R21944   6.298   7.493  14.620 -1.2529 -0.4846 -0.6131
  179DOPC  H15S21945   6.456   7.569  14.668 -1.5835  0.5940  0.9429
  179DOPC  C21621946   6.362   7.457  14.828 -0.0611 -0.6227 -0.6013
  179DOPC  H16R21947   6.457   7.421  14.872 -0.4067 -1.5462 -0.5871
  179DOPC  H16S21948   6.287   7.375  14.826 -0.1140 -0.6003 -2.8460
  179DOPC  C21721949   6.305   7.590  14.891  0.3746  0.0055 -0.1359
  179DOPC  H17R21950   6.208   7.595  14.839  0.1486  0.8394  0.3437
  179DOPC  H17S21951   6.357   7.682  14.858 -1.5770  1.3859  0.4856
  179DOPC  C21821952   6.281   7.595  15.040 -0.1233  0.2960  0.3700
  179DOPC  H18R21953   6.247   7.697  15.066 -0.2817  0.0869  1.0025
  179DOPC  H18S21954   6.377   7.584  15.096  0.5387  0.2914 -0.7295
  179DOPC  H18T21955   6.215   7.522  15.090 -2.1990  1.8752  0.0484
  179DOPC   C3321956   5.930   6.649  13.725  0.0348  0.3958  0.1216
  179DOPC   H3X21957   5.879   6.560  13.683  2.3585 -0.4091 -1.1761
  179DOPC   H3Y21958   5.863   6.736  13.741 -0.8265 -0.5113  1.7259
  179DOPC   C3421959   5.995   6.609  13.852 -0.2865  0.4907  0.1819
  179DOPC   H4X21960   6.070   6.683  13.887  0.6816  0.0833 -0.9570
  179DOPC   H4Y21961   6.053   6.515  13.838  0.9243  1.4610 -1.6661
  179DOPC   C3521962   5.900   6.591  13.967  0.4339  0.1566 -0.2721
  179DOPC   H5X21963   5.826   6.521  13.921  0.6149  0.2395 -0.6904
  179DOPC   H5Y21964   5.840   6.679  14.001 -1.9022 -1.1957 -0.6332
  179DOPC   C3621965   5.972   6.530  14.092 -0.0168 -0.1989  0.4377
  179DOPC   H6X21966   6.009   6.429  14.066 -0.6093 -0.4302  0.4666
  179DOPC   H6Y21967   6.054   6.602  14.113 -0.6358  0.5901  0.2039
  179DOPC   C3721968   5.894   6.522  14.226  0.2486  0.1877 -0.0018
  179DOPC   H7X21969   5.892   6.626  14.264  0.0223  0.3703 -0.4937
  179DOPC   H7Y21970   5.789   6.486  14.215  0.1685 -1.0918  3.7768
  179DOPC   C3821971   5.964   6.435  14.329  0.0521  0.1446 -0.1326
  179DOPC   H8X21972   6.069   6.470  14.338  0.4564 -0.9600 -0.4047
  179DOPC   H8Y21973   5.970   6.334  14.283  1.7127  1.4848 -3.1523
  179DOPC   C3921974   5.883   6.424  14.456 -0.1813  0.1651 -0.3249
  179DOPC   H9X21975   5.786   6.374  14.446 -0.6928  1.4656 -2.5785
  179DOPC  C31021976   5.934   6.472  14.567  0.2759 -0.2734  0.2443
  179DOPC  H10X21977   5.868   6.476  14.655 -1.1535 -2.2237 -0.6565
  179DOPC  C31121978   6.066   6.539  14.580 -0.1526  0.3106 -0.4969
  179DOPC  H11X21979   6.078   6.614  14.499  0.2565  1.3626  0.4901
  179DOPC  H11Y21980   6.141   6.457  14.575 -1.3632 -0.8356 -0.2056
  179DOPC  C31221981   6.093   6.605  14.717  0.3055 -0.2587  0.2207
  179DOPC  H12X21982   6.012   6.672  14.754 -0.0106 -0.8490  0.6123
  179DOPC  H12Y21983   6.192   6.654  14.715  0.3998 -0.4391  0.5176
  179DOPC  C31321984   6.116   6.494  14.828  0.9700 -0.4829 -0.3441
  179DOPC  H13X21985   6.064   6.400  14.800  0.0209 -0.3505  0.8498
  179DOPC  H13Y21986   6.225   6.481  14.846  1.0672 -0.4036 -0.8702
  179DOPC  C31421987   6.049   6.539  14.966 -0.2095 -0.1024 -0.2529
  179DOPC  H14X21988   6.110   6.627  14.999  0.3493 -0.5194 -0.1571
  179DOPC  H14Y21989   5.949   6.584  14.951  0.5320  1.6129 -0.4013
  179DOPC  C31521990   6.065   6.430  15.073 -0.7199 -0.4940 -0.0627
  179DOPC  H15X21991   6.161   6.374  15.066 -0.6815 -0.5396  0.7497
  179DOPC  H15Y21992   5.978   6.363  15.061 -1.5061  0.5261 -0.1422
  179DOPC  C31621993   6.066   6.500  15.213  0.1173  0.1511 -0.0109
  179DOPC  H16X21994   6.165   6.551  15.217 -0.3414  2.0180 -4.7338
  179DOPC  H16Y21995   5.989   6.579  15.225 -0.6606 -0.4472 -0.8715
  179DOPC  C31721996   6.033   6.386  15.316 -0.4137 -0.0140  0.0349
  179DOPC  H17X21997   5.934   6.347  15.282  1.0249 -2.7103 -1.3381
  179DOPC  H17Y21998   6.116   6.312  15.314 -0.0054  0.3700  1.5298
  179DOPC  C31821999   6.024   6.434  15.455 -0.5275  0.6225  0.3704
  179DOPC  H18X22000   6.100   6.514  15.472  0.6453 -0.6284  1.2453
  179DOPC  H18Y22001   5.929   6.488  15.475 -0.5178  1.0777 -0.7224
  179DOPC  H18Z22002   6.047   6.344  15.516 -0.1414  0.4566 -0.0145
  180DOPC     N22003   6.826   3.137  13.385 -0.1062 -0.1730 -0.4017
  180DOPC   C1222004   6.747   3.264  13.360 -0.0184  0.8593 -0.5261
  180DOPC  H12A22005   6.791   3.333  13.431 -1.0561  1.4486 -0.4392
  180DOPC  H12B22006   6.646   3.255  13.397 -0.3069  1.7983 -1.0757
  180DOPC   C1322007   6.973   3.171  13.394  0.2226 -0.0101  0.4960
  180DOPC  H13A22008   7.012   3.192  13.296 -0.8404 -1.3892 -0.2668
  180DOPC  H13B22009   6.998   3.256  13.456  0.7539  0.1349  0.0919
  180DOPC  H13C22010   7.027   3.086  13.434 -0.1784  0.3428  1.8461
  180DOPC   C1422011   6.812   3.030  13.278 -0.1681  0.4992  0.8727
  180DOPC  H14A22012   6.845   3.073  13.185 -2.0454  0.5988  0.1984
  180DOPC  H14B22013   6.869   2.947  13.317  1.1173  0.8511 -0.2005
  180DOPC  H14C22014   6.709   2.999  13.265  0.7846 -2.1722 -1.3051
  180DOPC   C1522015   6.777   3.077  13.516 -0.2271  0.5659 -0.5431
  180DOPC  H15A22016   6.843   2.993  13.537 -0.5109 -0.0796 -2.0982
  180DOPC  H15B22017   6.683   3.024  13.508  0.7641 -1.1911 -1.2256
  180DOPC  H15C22018   6.781   3.139  13.604  2.5633  2.3435 -1.7957
  180DOPC   C1122019   6.740   3.334  13.217 -0.3450 -0.3525  0.0291
  180DOPC  H11A22020   6.685   3.260  13.154  0.7038  0.5164 -2.0100
  180DOPC  H11B22021   6.681   3.428  13.209  0.0455 -0.1607 -0.7065
  180DOPC     P22022   6.961   3.481  13.209 -0.0082  0.1094 -0.2416
  180DOPC   O1322023   6.931   3.578  13.099  0.0377 -0.2036  0.0240
  180DOPC   O1422024   7.098   3.432  13.223  0.0493 -0.3684  0.3110
  180DOPC   O1222025   6.871   3.359  13.165 -0.4526 -0.0179  0.1584
  180DOPC   O1122026   6.900   3.516  13.350  0.1048 -0.5601  0.2641
  180DOPC    C122027   6.858   3.637  13.409  0.2695 -0.4540 -0.9608
  180DOPC    HA22028   6.788   3.610  13.492  2.4669  0.2912  1.2547
  180DOPC    HB22029   6.805   3.701  13.335  0.2912  1.4751  0.6092
  180DOPC    C222030   6.969   3.731  13.467 -0.2433  0.6528  0.5843
  180DOPC    HS22031   7.018   3.777  13.378  0.4730 -1.3308 -0.0994
  180DOPC   O2122032   7.068   3.650  13.535  0.5812  0.2207 -0.3049
  180DOPC   C2122033   7.184   3.723  13.557 -0.2746 -0.0882 -0.3110
  180DOPC   O2222034   7.208   3.832  13.504  0.3221 -0.4743  0.2298
  180DOPC   C2222035   7.276   3.630  13.642 -0.1354  0.1919  0.6129
  180DOPC   H2R22036   7.284   3.540  13.578 -0.2342 -0.3755  1.3927
  180DOPC   H2S22037   7.233   3.599  13.740  0.3395  0.7398  1.0016
  180DOPC    C322038   6.908   3.832  13.563 -0.4333  0.2150 -0.0346
  180DOPC    HX22039   6.835   3.896  13.508 -2.1153 -1.3266  0.2940
  180DOPC    HY22040   6.985   3.901  13.603 -1.8135  0.8730  1.6653
  180DOPC   O3122041   6.834   3.766  13.668  0.2541  0.1727  0.3547
  180DOPC   C3122042   6.889   3.754  13.782 -0.5618 -0.3780 -0.2350
  180DOPC   O3222043   6.995   3.804  13.815 -0.0816 -0.0904  0.5496
  180DOPC   C3222044   6.800   3.676  13.877 -0.7182  0.9769 -0.2843
  180DOPC   H2X22045   6.693   3.689  13.850 -0.6754 -0.5959 -1.3805
  180DOPC   H2Y22046   6.822   3.569  13.852 -0.6655  0.7804  0.5946
  180DOPC   C2322047   7.425   3.674  13.655  0.3453  0.1532 -0.4519
  180DOPC   H3R22048   7.486   3.679  13.563  0.9316 -0.7110 -0.1181
  180DOPC   H3S22049   7.473   3.583  13.697  0.1403 -0.2855 -1.1498
  180DOPC   C2422050   7.451   3.791  13.744 -0.1132 -0.0073  0.1952
  180DOPC   H4R22051   7.393   3.876  13.702  2.0311  0.5271 -1.8849
  180DOPC   H4S22052   7.557   3.823  13.745  0.1706 -0.9217 -0.0528
  180DOPC   C2522053   7.387   3.773  13.885 -0.3035  0.7678  0.1037
  180DOPC   H5R22054   7.429   3.682  13.933 -1.5749 -0.1158 -0.3917
  180DOPC   H5S22055   7.282   3.743  13.866  0.1507 -1.4694  0.8050
  180DOPC   C2622056   7.392   3.903  13.972  0.6291  0.4659  0.6543
  180DOPC   H6R22057   7.497   3.937  13.985  1.0902 -0.6788  0.1056
  180DOPC   H6S22058   7.355   3.870  14.072 -1.6354 -1.7034 -0.7766
  180DOPC   C2722059   7.291   4.012  13.918 -0.2485 -0.0778  1.6585
  180DOPC   H7R22060   7.194   3.962  13.896 -0.0958  1.1905 -2.6151
  180DOPC   H7S22061   7.331   4.046  13.821 -2.6680 -0.0752  0.5768
  180DOPC   C2822062   7.272   4.131  14.014 -1.1833  0.0496 -0.4864
  180DOPC   H8R22063   7.209   4.212  13.970  0.3255 -0.2160 -3.4144
  180DOPC   H8S22064   7.371   4.179  14.029 -0.5521 -1.4558  0.4315
  180DOPC   C2922065   7.225   4.083  14.151  0.6513 -0.2137 -0.2575
  180DOPC   H9R22066   7.306   4.072  14.225 -0.6215 -4.0444  0.8042
  180DOPC  C21022067   7.099   4.082  14.194  0.4458 -0.0303 -0.0903
  180DOPC  H10R22068   7.068   4.039  14.290 -0.2721  3.5545  1.4573
  180DOPC  C21122069   6.976   4.097  14.107 -0.4216 -0.0598  0.4330
  180DOPC  H11R22070   6.895   4.027  14.136  0.1463 -1.1032 -0.4251
  180DOPC  H11S22071   7.004   4.072  14.002  0.1425 -0.2366  0.6258
  180DOPC  C21222072   6.924   4.242  14.116 -0.1993  0.5352 -0.4441
  180DOPC  H12R22073   6.837   4.265  14.051 -0.3708  0.1840 -0.3416
  180DOPC  H12S22074   7.004   4.306  14.073 -0.7991 -0.5080 -3.3372
  180DOPC  C21322075   6.881   4.289  14.255  0.7767 -0.2637 -0.9227
  180DOPC  H13R22076   6.967   4.300  14.324  1.0455 -1.8609 -0.9719
  180DOPC  H13S22077   6.825   4.199  14.291 -0.0932  0.1173 -1.2857
  180DOPC  C21422078   6.776   4.404  14.239  0.4962 -0.1532  0.5724
  180DOPC  H14R22079   6.686   4.367  14.185  1.4408 -1.1098 -0.3926
  180DOPC  H14S22080   6.828   4.486  14.184  1.5439 -1.0919  0.1266
  180DOPC  C21522081   6.737   4.448  14.377 -0.2825  0.2012  0.9926
  180DOPC  H15R22082   6.731   4.361  14.446  0.4179 -1.4010 -0.8822
  180DOPC  H15S22083   6.630   4.478  14.372 -1.0060 -1.3059  4.3397
  180DOPC  C21622084   6.819   4.567  14.415 -0.3317  0.7511 -0.1665
  180DOPC  H16R22085   6.779   4.643  14.344 -0.4794  0.4497 -0.4066
  180DOPC  H16S22086   6.929   4.561  14.402 -0.1036  0.0129  1.7968
  180DOPC  C21722087   6.784   4.618  14.554  0.0499 -0.7778 -0.4957
  180DOPC  H17R22088   6.674   4.606  14.544 -0.2557  1.1386  0.3026
  180DOPC  H17S22089   6.801   4.727  14.558  2.5859 -1.1418  0.1357
  180DOPC  C21822090   6.847   4.545  14.670 -0.0706  0.2842 -0.0907
  180DOPC  H18R22091   6.813   4.440  14.672 -1.0261  0.5807  0.3030
  180DOPC  H18S22092   6.820   4.594  14.767  1.1018 -1.1302  0.9850
  180DOPC  H18T22093   6.957   4.556  14.670  0.0761 -1.0318 -0.6673
  180DOPC   C3322094   6.837   3.714  14.025  0.5960  0.5737  0.0345
  180DOPC   H3X22095   6.809   3.820  14.043 -2.4479 -0.3108  1.3055
  180DOPC   H3Y22096   6.944   3.697  14.047  0.3306  0.6460  1.4879
  180DOPC   C3422097   6.754   3.621  14.119  0.3556 -0.3456 -0.3452
  180DOPC   H4X22098   6.800   3.520  14.117  2.2881  0.4856 -1.8559
  180DOPC   H4Y22099   6.651   3.613  14.080  0.5132  1.5248 -1.2768
  180DOPC   C3522100   6.747   3.677  14.264  0.4302 -0.3199 -0.2769
  180DOPC   H5X22101   6.700   3.778  14.261  0.6123 -0.2477 -1.8423
  180DOPC   H5Y22102   6.846   3.682  14.313  0.7000 -2.0816 -0.5833
  180DOPC   C3622103   6.672   3.570  14.346  0.0436 -0.3786 -0.4954
  180DOPC   H6X22104   6.570   3.568  14.301 -0.7104 -0.7172  1.1672
  180DOPC   H6Y22105   6.714   3.469  14.331  1.0523  0.4100 -3.9170
  180DOPC   C3722106   6.668   3.602  14.492  0.3223  0.4248 -0.1299
  180DOPC   H7X22107   6.771   3.617  14.532 -0.3133  2.5091  0.8516
  180DOPC   H7Y22108   6.625   3.702  14.514  1.5786  0.3180  3.5827
  180DOPC   C3822109   6.594   3.494  14.571  0.0313  0.4604 -0.2161
  180DOPC   H8X22110   6.594   3.404  14.505  1.4920 -0.3760  0.8601
  180DOPC   H8Y22111   6.492   3.536  14.586 -0.8763 -0.7374 -2.4984
  180DOPC   C3922112   6.647   3.457  14.705  0.0548 -0.5121 -0.6323
  180DOPC   H9X22113   6.756   3.458  14.717  0.0615 -0.2983 -0.6997
  180DOPC  C31022114   6.577   3.452  14.820  0.3781 -0.1272  0.4064
  180DOPC  H10X22115   6.634   3.428  14.912  1.4771  0.3267 -0.1322
  180DOPC  C31122116   6.432   3.460  14.842  0.8157 -0.4913 -0.1572
  180DOPC  H11X22117   6.370   3.498  14.758 -1.7121 -0.6710  1.5071
  180DOPC  H11Y22118   6.428   3.538  14.921 -0.9268  0.6603 -1.3073
  180DOPC  C31222119   6.365   3.334  14.900  0.7710  0.5395 -0.2518
  180DOPC  H12X22120   6.419   3.298  14.990  1.9156 -1.6369 -1.7408
  180DOPC  H12Y22121   6.355   3.266  14.813  1.1276  0.0401  0.0916
  180DOPC  C31322122   6.220   3.359  14.956  0.1038  0.1982 -0.0093
  180DOPC  H13X22123   6.230   3.403  15.058  0.6685 -0.0867  0.0570
  180DOPC  H13Y22124   6.151   3.409  14.884 -2.3267 -1.5962  0.9554
  180DOPC  C31422125   6.133   3.235  14.979 -0.1154  0.0477  0.6589
  180DOPC  H14X22126   6.024   3.249  14.994 -0.6759 -3.1126  0.3589
  180DOPC  H14Y22127   6.141   3.173  14.887 -1.3971  0.0131  0.5598
  180DOPC  C31522128   6.176   3.156  15.105  0.1329  0.1962  0.0872
  180DOPC  H15X22129   6.286   3.159  15.123  0.5812 -2.5503 -1.5914
  180DOPC  H15Y22130   6.140   3.052  15.092 -1.1048  0.8182 -1.9979
  180DOPC  C31622131   6.099   3.201  15.226  0.4781 -0.8394  0.3069
  180DOPC  H16X22132   6.094   3.311  15.213  4.4770 -0.3703  1.4104
  180DOPC  H16Y22133   5.994   3.164  15.220  0.3783 -0.3363 -1.6583
  180DOPC  C31722134   6.158   3.172  15.363 -0.5334 -0.1303 -1.0832
  180DOPC  H17X22135   6.260   3.212  15.384 -0.3268 -2.0692  2.3900
  180DOPC  H17Y22136   6.090   3.196  15.448 -1.6256 -1.9432 -1.4129
  180DOPC  C31822137   6.185   3.024  15.387 -0.0756 -0.5228  0.2662
  180DOPC  H18X22138   6.213   3.003  15.492 -1.6044  0.2944  0.8626
  180DOPC  H18Y22139   6.083   2.984  15.374 -0.8854  0.7898  2.0859
  180DOPC  H18Z22140   6.262   2.971  15.326  0.1023  0.1188 -0.0835
  181DOPC     N22141   0.898   3.997  13.290 -0.1912  0.5978  0.9255
  181DOPC   C1222142   1.009   4.061  13.375  0.3204 -0.6755 -0.2086
  181DOPC  H12A22143   0.997   4.169  13.380  0.2027 -0.6143 -1.5501
  181DOPC  H12B22144   1.103   4.049  13.323 -0.0302  2.1349 -1.6722
  181DOPC   C1322145   0.930   3.856  13.273 -0.1365  0.1238 -0.4123
  181DOPC  H13A22146   0.840   3.809  13.237 -1.0464  1.7534 -0.3516
  181DOPC  H13B22147   1.007   3.839  13.199 -0.6469  1.2932 -1.2490
  181DOPC  H13C22148   0.957   3.817  13.370  0.2796 -0.2479 -0.6745
  181DOPC   C1422149   0.894   4.075  13.164  0.1279 -0.2374  0.0767
  181DOPC  H14A22150   0.988   4.059  13.113 -1.2363  1.6231 -3.3602
  181DOPC  H14B22151   0.814   4.043  13.099  0.5718 -0.3686 -0.4179
  181DOPC  H14C22152   0.881   4.182  13.171 -1.4017  0.0177 -3.8017
  181DOPC   C1522153   0.757   4.004  13.354 -0.0998 -0.0493 -0.0275
  181DOPC  H15A22154   0.753   3.942  13.442 -1.3928 -0.3009 -0.2519
  181DOPC  H15B22155   0.687   3.964  13.283  0.4054  0.0372 -0.5830
  181DOPC  H15C22156   0.727   4.105  13.380 -2.4325 -0.6503 -0.2311
  181DOPC   C1122157   1.024   4.010  13.527 -0.2962  0.2362 -0.3004
  181DOPC  H11A22158   1.089   4.080  13.583 -2.1071 -0.2090  2.5616
  181DOPC  H11B22159   0.925   4.023  13.576 -0.2060  1.5730 -0.4137
  181DOPC     P22160   1.213   3.835  13.500 -0.0066  0.0504  0.0572
  181DOPC   O1322161   1.272   3.910  13.387 -0.2539  0.0543  0.1273
  181DOPC   O1422162   1.208   3.690  13.487  0.0332  0.4882  0.5740
  181DOPC   O1222163   1.062   3.878  13.536 -0.1248 -0.3389  0.2346
  181DOPC   O1122164   1.283   3.871  13.640 -0.3857 -0.0557  0.5193
  181DOPC    C122165   1.240   3.819  13.763 -0.2030  0.0796 -0.3839
  181DOPC    HA22166   1.260   3.710  13.769 -0.6667 -0.0284 -0.8360
  181DOPC    HB22167   1.129   3.826  13.763 -0.1748  0.8581 -1.8755
  181DOPC    C222168   1.288   3.894  13.889  0.2051 -0.2731 -0.0734
  181DOPC    HS22169   1.394   3.869  13.912  1.1791 -2.5148 -5.6024
  181DOPC   O2122170   1.197   3.867  13.990  0.4318  0.0884 -0.1858
  181DOPC   C2122171   1.249   3.802  14.096  0.7784 -0.1195  0.4604
  181DOPC   O2222172   1.365   3.780  14.114 -0.0748  0.0474  0.1753
  181DOPC   C2222173   1.128   3.759  14.183  0.2680 -0.2828 -0.9757
  181DOPC   H2R22174   1.100   3.653  14.164  1.1761 -0.4605 -1.4164
  181DOPC   H2S22175   1.041   3.824  14.160  0.3128 -0.2039 -0.9232
  181DOPC    C322176   1.288   4.051  13.869  0.0271  0.5938  0.7598
  181DOPC    HX22177   1.189   4.082  13.831  1.2065  1.6405 -1.6739
  181DOPC    HY22178   1.363   4.068  13.789  0.1629 -0.1882  0.7109
  181DOPC   O3122179   1.325   4.105  14.000 -0.3497 -0.1788 -0.2445
  181DOPC   C3122180   1.309   4.242  14.006 -0.3188  0.2223  0.2326
  181DOPC   O3222181   1.285   4.313  13.911 -0.6254  0.1311  0.1078
  181DOPC   C3222182   1.335   4.273  14.147  0.1035 -0.4156  0.4277
  181DOPC   H2X22183   1.251   4.243  14.213  0.8026 -1.3978  0.8992
  181DOPC   H2Y22184   1.424   4.214  14.179 -0.0504 -1.0927 -0.3570
  181DOPC   C2322185   1.163   3.781  14.334  0.0788  0.0016  0.0909
  181DOPC   H3R22186   1.208   3.882  14.349  0.6897 -0.1633 -0.5720
  181DOPC   H3S22187   1.233   3.703  14.369  1.4730  0.9998 -0.3694
  181DOPC   C2422188   1.048   3.782  14.433 -0.1727  0.0325 -0.6887
  181DOPC   H4R22189   1.002   3.681  14.443 -1.7813  0.7804 -0.2908
  181DOPC   H4S22190   0.966   3.850  14.402 -0.6120 -0.3475 -0.3772
  181DOPC   C2522191   1.089   3.798  14.581 -0.3208 -0.0653  0.2534
  181DOPC   H5R22192   1.136   3.898  14.582  3.0643 -1.4971 -1.3496
  181DOPC   H5S22193   1.167   3.726  14.612 -2.6118 -1.3923  3.5816
  181DOPC   C2622194   0.977   3.803  14.686 -0.5443 -0.5681  0.1980
  181DOPC   H6R22195   1.024   3.837  14.781 -1.0282  1.4035 -0.2325
  181DOPC   H6S22196   0.942   3.698  14.694  1.0328 -1.0964  0.4809
  181DOPC   C2722197   0.867   3.907  14.666 -0.2010 -0.0564 -0.3153
  181DOPC   H7R22198   0.804   3.897  14.757 -0.7875  0.9092 -0.6114
  181DOPC   H7S22199   0.802   3.870  14.584 -3.0936  1.4790  1.1143
  181DOPC   C2822200   0.907   4.056  14.637 -0.5096  0.3697 -0.3339
  181DOPC   H8R22201   0.816   4.110  14.605 -1.0843  0.0675  0.7307
  181DOPC   H8S22202   0.986   4.053  14.559 -2.0461 -1.2454 -1.9071
  181DOPC   C2922203   0.953   4.120  14.764  0.8520 -0.2271  0.3757
  181DOPC   H9R22204   1.062   4.131  14.772  0.8339  0.2411  0.0010
  181DOPC  C21022205   0.883   4.158  14.873 -0.4376 -0.9309  0.3766
  181DOPC  H10R22206   0.935   4.196  14.962 -3.3023  1.3918  1.2129
  181DOPC  C21122207   0.736   4.136  14.897  0.5294  0.5439  0.4429
  181DOPC  H11R22208   0.684   4.091  14.810  1.3493  3.1114 -1.4785
  181DOPC  H11S22209   0.680   4.232  14.901 -2.5194 -0.9433 -2.3374
  181DOPC  C21222210   0.708   4.050  15.021 -0.5352 -0.0627  0.7342
  181DOPC  H12R22211   0.767   3.957  15.012 -0.4734 -0.0627  1.1274
  181DOPC  H12S22212   0.602   4.019  15.017 -1.3471  2.4682 -2.5780
  181DOPC  C21322213   0.734   4.122  15.161 -0.1908  0.6596  0.4308
  181DOPC  H13R22214   0.679   4.218  15.161 -3.5267 -1.1130 -0.3555
  181DOPC  H13S22215   0.844   4.138  15.164  0.2400 -1.1047 -2.5454
  181DOPC  C21422216   0.688   4.034  15.283 -0.3888 -0.1237 -0.3838
  181DOPC  H14R22217   0.721   4.082  15.378  1.8283 -3.5047  0.7402
  181DOPC  H14S22218   0.743   3.938  15.270  1.5220  0.2811  3.2162
  181DOPC  C21522219   0.544   4.011  15.304 -0.2199  0.1154  0.2461
  181DOPC  H15R22220   0.491   3.998  15.208  1.4975  0.7708 -0.8237
  181DOPC  H15S22221   0.507   4.108  15.343  2.1822  2.0548 -2.0014
  181DOPC  C21622222   0.517   3.896  15.405 -0.5714 -0.4315 -0.5132
  181DOPC  H16R22223   0.524   3.798  15.353  1.5326 -0.3857 -0.4065
  181DOPC  H16S22224   0.419   3.917  15.454  0.4841  0.8558  1.1290
  181DOPC  C21722225   0.627   3.892  15.515  0.0334 -0.3740  0.3249
  181DOPC  H17R22226   0.671   3.989  15.543 -1.1819  0.7034 -1.3181
  181DOPC  H17S22227   0.719   3.837  15.487  1.0300  1.4861 -0.1812
  181DOPC  C21822228   0.579   3.818  15.636 -0.0627 -0.1744 -0.1923
  181DOPC  H18R22229   0.663   3.789  15.703  0.3100 -1.4536 -1.1643
  181DOPC  H18S22230   0.541   3.721  15.596  1.7600 -0.3753 -1.5539
  181DOPC  H18T22231   0.501   3.869  15.697 -0.2551 -0.7934  0.0852
  181DOPC   C3322232   1.360   4.420  14.165 -0.4730 -0.1871  0.3585
  181DOPC   H3X22233   1.265   4.475  14.145  0.1429  0.9660  0.5282
  181DOPC   H3Y22234   1.436   4.463  14.098  0.5975 -0.5463  1.3076
  181DOPC   C3422235   1.400   4.448  14.303 -0.1766 -0.4618  0.1289
  181DOPC   H4X22236   1.494   4.399  14.337 -0.3311 -0.6241  0.3278
  181DOPC   H4Y22237   1.314   4.413  14.365 -1.5652  0.8242 -0.9774
  181DOPC   C3522238   1.404   4.598  14.333 -0.0205  0.0923 -0.0311
  181DOPC   H5X22239   1.329   4.651  14.271 -4.2357 -0.7254  3.8210
  181DOPC   H5Y22240   1.504   4.634  14.302  0.4449 -0.5629  0.6587
  181DOPC   C3622241   1.389   4.629  14.486  0.5147  0.3098 -0.2491
  181DOPC   H6X22242   1.282   4.630  14.513  0.8693  1.1662  1.1904
  181DOPC   H6Y22243   1.426   4.543  14.546  0.6260 -0.3378 -1.2129
  181DOPC   C3722244   1.478   4.743  14.522 -0.1881 -0.0756 -0.7114
  181DOPC   H7X22245   1.486   4.822  14.444 -3.7210  1.6319  0.4408
  181DOPC   H7Y22246   1.419   4.792  14.603  2.1591  2.9283 -0.6276
  181DOPC   C3822247   1.620   4.688  14.563  0.1427 -0.3164 -0.5731
  181DOPC   H8X22248   1.655   4.624  14.479  0.7679  2.0338 -2.2161
  181DOPC   H8Y22249   1.605   4.625  14.653 -2.3368 -0.1640 -0.8069
  181DOPC   C3922250   1.722   4.798  14.571 -0.0667 -0.4155  0.8709
  181DOPC   H9X22251   1.708   4.881  14.500  2.2717  1.1790  2.1485
  181DOPC  C31022252   1.806   4.817  14.669  0.5764 -0.6963  0.0408
  181DOPC  H10X22253   1.865   4.910  14.656 -2.5687  1.1866 -2.0776
  181DOPC  C31122254   1.804   4.754  14.801 -0.3609  0.7856 -0.1420
  181DOPC  H11X22255   1.903   4.705  14.820  0.0826  0.9063 -1.9828
  181DOPC  H11Y22256   1.724   4.677  14.812 -1.1318  1.6172  0.1603
  181DOPC  C31222257   1.779   4.867  14.906 -0.3461  0.1793  0.2966
  181DOPC  H12X22258   1.697   4.933  14.869  0.9254  1.8370  0.3546
  181DOPC  H12Y22259   1.872   4.925  14.923  0.9049 -1.3261 -1.0305
  181DOPC  C31322260   1.728   4.813  15.040 -0.3967 -0.3488 -0.2121
  181DOPC  H13X22261   1.708   4.896  15.111  2.0630 -0.8363  1.1716
  181DOPC  H13Y22262   1.634   4.753  15.039  0.8760 -2.4362 -1.2425
  181DOPC  C31422263   1.826   4.717  15.108 -0.6356  0.4830  0.1155
  181DOPC  H14X22264   1.838   4.627  15.045 -0.9283  0.2828  0.3415
  181DOPC  H14Y22265   1.923   4.767  15.128  0.6719 -2.1285  0.6975
  181DOPC  C31522266   1.775   4.659  15.234 -0.2734 -0.5390  0.4228
  181DOPC  H15X22267   1.669   4.630  15.218 -0.4181  0.1800  0.0199
  181DOPC  H15Y22268   1.787   4.742  15.307 -1.1815  0.1795 -0.2199
  181DOPC  C31622269   1.852   4.535  15.281  0.2647 -0.1151 -0.1516
  181DOPC  H16X22270   1.797   4.485  15.363 -0.4906  0.0307 -0.5580
  181DOPC  H16Y22271   1.859   4.472  15.190  1.2689 -0.3509  0.0775
  181DOPC  C31722272   2.000   4.555  15.330  0.4670 -0.2875  0.1895
  181DOPC  H17X22273   2.047   4.456  15.345 -1.1385 -1.5316 -2.4057
  181DOPC  H17Y22274   2.063   4.603  15.253  0.6792  2.7024  2.0643
  181DOPC  C31822275   2.004   4.638  15.463  0.0699  0.8608 -0.0193
  181DOPC  H18X22276   1.954   4.737  15.453  0.4419  1.1279  0.6500
  181DOPC  H18Y22277   1.945   4.582  15.538 -2.6020  2.7576 -0.5787
  181DOPC  H18Z22278   2.111   4.646  15.492  0.0152 -1.2152  0.9589
  182DOPC     N22279   1.688   2.213  13.514  0.4312 -0.1925 -0.3282
  182DOPC   C1222280   1.788   2.115  13.578  0.2358 -0.8332  0.1101
  182DOPC  H12A22281   1.731   2.025  13.596 -1.6816 -0.1619 -2.0867
  182DOPC  H12B22282   1.816   2.160  13.672  1.4853 -0.3463 -0.4709
  182DOPC   C1322283   1.633   2.180  13.380  0.6828 -0.2353 -0.7215
  182DOPC  H13A22284   1.695   2.215  13.299 -1.1725 -0.0978 -2.1545
  182DOPC  H13B22285   1.627   2.075  13.357  0.0889 -0.3547 -0.0639
  182DOPC  H13C22286   1.548   2.244  13.362  0.9558  0.9730  1.9155
  182DOPC   C1422287   1.759   2.347  13.501 -0.0470  0.3035 -0.0971
  182DOPC  H14A22288   1.784   2.371  13.603 -1.7672 -0.4122  0.5395
  182DOPC  H14B22289   1.843   2.348  13.433 -0.7358 -0.6502 -0.9905
  182DOPC  H14C22290   1.691   2.423  13.466  1.7684  1.3933 -1.4075
  182DOPC   C1522291   1.567   2.237  13.604  0.0082 -0.1057  0.5245
  182DOPC  H15A22292   1.590   2.229  13.709  0.7229 -1.9917  0.2673
  182DOPC  H15B22293   1.488   2.165  13.592 -0.5791  0.4606  0.9216
  182DOPC  H15C22294   1.528   2.336  13.586 -0.8881 -0.4072  0.7815
  182DOPC   C1122295   1.917   2.083  13.495 -0.0035  0.0241 -0.0313
  182DOPC  H11A22296   1.961   2.180  13.461 -1.9589  0.4482 -1.6067
  182DOPC  H11B22297   1.991   2.031  13.558 -0.7445 -1.5201 -0.3808
  182DOPC     P22298   1.816   1.860  13.410 -0.0677  0.1314 -0.1242
  182DOPC   O1322299   1.875   1.757  13.325 -0.0849  0.0602 -0.5801
  182DOPC   O1422300   1.666   1.881  13.406 -0.2509 -0.3403 -0.4934
  182DOPC   O1222301   1.888   2.001  13.378 -0.0801  0.5355 -0.2096
  182DOPC   O1122302   1.850   1.837  13.559 -0.0868 -0.5667 -0.2048
  182DOPC    C122303   1.811   1.716  13.625  0.0705  0.6339 -0.3191
  182DOPC    HA22304   1.889   1.676  13.693  0.0150 -1.7842 -1.5791
  182DOPC    HB22305   1.794   1.636  13.551  0.0041  0.8822 -0.5764
  182DOPC    C222306   1.679   1.730  13.717  0.3748 -0.0623  1.0487
  182DOPC    HS22307   1.605   1.797  13.670 -1.1720 -0.2096  3.1470
  182DOPC   O2122308   1.717   1.767  13.851  0.6026  0.1372 -0.5052
  182DOPC   C2122309   1.712   1.898  13.876  0.4105 -0.0183 -0.7199
  182DOPC   O2222310   1.664   1.985  13.802  0.1720  0.0462 -0.4681
  182DOPC   C2222311   1.772   1.932  14.011 -0.0148  0.9794 -0.3010
  182DOPC   H2R22312   1.817   2.034  14.013  0.8621  0.5993 -0.0266
  182DOPC   H2S22313   1.858   1.868  14.041  2.0630  3.0054 -1.5146
  182DOPC    C322314   1.592   1.596  13.704  0.1432 -1.1820 -0.0353
  182DOPC    HX22315   1.567   1.583  13.597 -0.7535  1.0222 -0.1590
  182DOPC    HY22316   1.498   1.619  13.760  0.4697 -1.3887  0.6130
  182DOPC   O3122317   1.672   1.476  13.744  0.1369  0.1837  0.7379
  182DOPC   C3122318   1.627   1.413  13.849 -0.0128  0.2434 -0.3896
  182DOPC   O3222319   1.540   1.455  13.925 -0.2070 -0.8982  0.4287
  182DOPC   C3222320   1.685   1.275  13.842  0.6192 -0.1288  0.5466
  182DOPC   H2X22321   1.624   1.205  13.780  0.3676  0.4593  0.1116
  182DOPC   H2Y22322   1.781   1.277  13.787  0.4777 -0.0151  0.2993
  182DOPC   C2322323   1.666   1.932  14.126  0.1534 -0.4733 -0.3791
  182DOPC   H3R22324   1.601   2.015  14.092  2.8644  0.6705 -3.3274
  182DOPC   H3S22325   1.705   1.956  14.227 -0.8913 -0.9598  0.1558
  182DOPC   C2422326   1.588   1.794  14.133  0.1619 -0.3522  0.4032
  182DOPC   H4R22327   1.656   1.708  14.150  0.4446 -0.3116 -0.5143
  182DOPC   H4S22328   1.531   1.772  14.040  1.4501 -0.0050 -0.4918
  182DOPC   C2522329   1.478   1.803  14.245 -0.5694 -0.2140 -0.1864
  182DOPC   H5R22330   1.405   1.885  14.227 -1.0273 -0.1637  1.6634
  182DOPC   H5S22331   1.538   1.836  14.333 -0.0017  2.4240 -1.4662
  182DOPC   C2622332   1.408   1.670  14.262 -0.2614 -0.2478 -0.1639
  182DOPC   H6R22333   1.484   1.591  14.281  0.9265  0.8369 -0.3037
  182DOPC   H6S22334   1.358   1.632  14.170  0.8421 -0.1770 -0.8205
  182DOPC   C2722335   1.317   1.660  14.388 -0.3354  0.0339 -0.0068
  182DOPC   H7R22336   1.248   1.748  14.383 -0.4768  0.0238  1.5297
  182DOPC   H7S22337   1.387   1.670  14.473 -0.8665  0.6138  0.3798
  182DOPC   C2822338   1.239   1.534  14.416 -0.0082 -0.0466  0.6171
  182DOPC   H8R22339   1.188   1.558  14.512  1.0103 -0.4750  1.2821
  182DOPC   H8S22340   1.307   1.447  14.429 -0.9632 -0.8226  0.5243
  182DOPC   C2922341   1.134   1.524  14.316  1.5282  0.1687 -0.4431
  182DOPC   H9R22342   1.168   1.495  14.216 -0.5342  1.1272 -1.4953
  182DOPC  C21022343   1.004   1.568  14.330 -0.1637  0.9138  0.1138
  182DOPC  H10R22344   0.941   1.567  14.240  1.4820 -1.6209 -1.1296
  182DOPC  C21122345   0.930   1.617  14.449 -0.1102  0.9787  0.1018
  182DOPC  H11R22346   0.905   1.722  14.423  1.7321  1.5946  0.6903
  182DOPC  H11S22347   0.987   1.607  14.544  2.2157  3.9919 -0.7977
  182DOPC  C21222348   0.792   1.541  14.468 -0.2507  0.4921 -0.0613
  182DOPC  H12R22349   0.809   1.432  14.460 -0.1698  0.5384 -0.5571
  182DOPC  H12S22350   0.726   1.554  14.379  1.6519  0.6148 -1.5008
  182DOPC  C21322351   0.725   1.574  14.599  0.3033  0.4018  0.4344
  182DOPC  H13R22352   0.702   1.682  14.608 -1.5515 -0.1190  3.2350
  182DOPC  H13S22353   0.792   1.546  14.684  2.0529  0.1189 -0.9659
  182DOPC  C21422354   0.599   1.482  14.631 -0.1899 -0.0012  0.1210
  182DOPC  H14R22355   0.646   1.382  14.620  1.0064  0.6758 -1.2854
  182DOPC  H14S22356   0.528   1.499  14.547 -0.4397  0.1145  0.3518
  182DOPC  C21522357   0.531   1.504  14.769 -0.2096  0.6606 -0.0917
  182DOPC  H15R22358   0.507   1.610  14.792 -0.4617  0.3545  1.1657
  182DOPC  H15S22359   0.597   1.460  14.847  2.4541  2.5637 -1.1045
  182DOPC  C21622360   0.403   1.421  14.791  0.0119 -0.3145  0.5791
  182DOPC  H16R22361   0.437   1.321  14.758  0.1574  0.5772 -2.2669
  182DOPC  H16S22362   0.334   1.470  14.719  2.2385  0.7431 -0.9382
  182DOPC  C21722363   0.367   1.421  14.935 -0.3105 -0.6998 -0.0642
  182DOPC  H17R22364   0.355   1.527  14.969  2.2883  0.0908 -1.3562
  182DOPC  H17S22365   0.456   1.385  14.992  0.4864 -1.9455 -2.0121
  182DOPC  C21822366   0.256   1.329  14.963 -0.3061  0.4019  0.3580
  182DOPC  H18R22367   0.160   1.357  14.915 -0.2832 -0.4141 -0.1877
  182DOPC  H18S22368   0.249   1.316  15.073  0.2389  1.8074  0.5792
  182DOPC  H18T22369   0.291   1.237  14.912 -1.1315 -0.1531  0.7564
  182DOPC   C3322370   1.724   1.204  13.978  0.9056  0.4646  0.2576
  182DOPC   H3X22371   1.687   1.100  13.969 -2.0227  1.5714 -2.1681
  182DOPC   H3Y22372   1.660   1.237  14.063 -1.8698 -2.0860 -0.6735
  182DOPC   C3422373   1.871   1.212  14.019 -0.9868 -0.2181  0.3660
  182DOPC   H4X22374   1.929   1.194  13.926 -5.0202  0.8859 -2.6302
  182DOPC   H4Y22375   1.884   1.130  14.093 -4.2000 -0.9473  0.2681
  182DOPC   C3522376   1.918   1.354  14.047  0.4047 -1.2070 -0.4474
  182DOPC   H5X22377   1.877   1.421  13.968 -0.6870 -1.1767  0.1325
  182DOPC   H5Y22378   2.029   1.359  14.043  0.4682 -2.4300 -0.6165
  182DOPC   C3622379   1.886   1.405  14.189 -0.0432  0.3631  0.5597
  182DOPC   H6X22380   1.776   1.411  14.202 -0.1772  0.9517 -0.6628
  182DOPC   H6Y22381   1.932   1.335  14.262  4.2488  0.5732 -1.6303
  182DOPC   C3722382   1.939   1.546  14.214 -0.3762 -0.2741  0.2230
  182DOPC   H7X22383   2.047   1.534  14.234 -0.6401  0.0271  2.0288
  182DOPC   H7Y22384   1.935   1.595  14.115 -0.2950 -0.6025  0.0556
  182DOPC   C3822385   1.886   1.625  14.332  0.4362  0.2008  0.5244
  182DOPC   H8X22386   1.890   1.551  14.414 -2.4534 -1.0683 -0.3583
  182DOPC   H8Y22387   1.781   1.656  14.312  0.0713  0.7441  2.9539
  182DOPC   C3922388   1.959   1.755  14.358  0.5185 -0.3439  0.7610
  182DOPC   H9X22389   1.941   1.827  14.277 -0.4835 -0.9134  0.4574
  182DOPC  C31022390   2.044   1.772  14.459  0.6058 -0.0190  0.1991
  182DOPC  H10X22391   2.103   1.865  14.462 -2.3525  1.9521  1.6538
  182DOPC  C31122392   2.073   1.681  14.573 -0.2826  0.8633 -0.2363
  182DOPC  H11X22393   2.174   1.634  14.576 -0.0624  1.3671  0.7098
  182DOPC  H11Y22394   2.007   1.591  14.574  1.8794 -0.8119 -0.8154
  182DOPC  C31222395   2.053   1.756  14.713 -0.2141  0.3742  0.4650
  182DOPC  H12X22396   1.944   1.765  14.731 -0.4660 -1.2611 -0.1387
  182DOPC  H12Y22397   2.101   1.856  14.707  0.2842  0.0652 -0.8825
  182DOPC  C31322398   2.128   1.669  14.819  0.3287  0.3108  0.1450
  182DOPC  H13X22399   2.136   1.563  14.788 -2.3650  0.3804 -1.0753
  182DOPC  H13Y22400   2.228   1.718  14.829 -0.6976  2.6209 -0.1547
  182DOPC  C31422401   2.049   1.660  14.950  0.4366  0.2472 -0.2138
  182DOPC  H14X22402   2.046   1.754  15.008 -1.0016 -0.2777  0.6236
  182DOPC  H14Y22403   1.944   1.641  14.917 -0.0786  2.7174 -0.1498
  182DOPC  C31522404   2.078   1.537  15.034  0.4717  0.0055  0.0981
  182DOPC  H15X22405   2.063   1.551  15.143 -1.6279  1.8632 -0.3502
  182DOPC  H15Y22406   2.184   1.506  15.024 -0.1151 -2.0500 -0.4353
  182DOPC  C31622407   1.992   1.412  14.995 -0.0281 -0.4784 -0.0617
  182DOPC  H16X22408   1.884   1.435  15.003  0.1621  1.5553 -2.3819
  182DOPC  H16Y22409   1.987   1.387  14.887 -0.2411 -0.8432  0.0321
  182DOPC  C31722410   2.014   1.302  15.099  0.4971  0.2702 -0.0581
  182DOPC  H17X22411   2.107   1.247  15.072  0.8888  1.4341 -1.1926
  182DOPC  H17Y22412   2.033   1.343  15.200 -2.5463  1.7505  0.0155
  182DOPC  C31822413   1.910   1.191  15.115 -0.0813  0.4512 -0.1181
  182DOPC  H18X22414   1.803   1.223  15.119 -0.1646  0.3506 -1.2073
  182DOPC  H18Y22415   1.920   1.113  15.036  0.6743 -0.0201  0.4314
  182DOPC  H18Z22416   1.942   1.141  15.209 -0.5847 -1.3359 -0.8440
  183DOPC     N22417   7.020   5.066  12.617 -0.3596 -0.0860 -0.1792
  183DOPC   C1222418   7.054   5.050  12.764 -0.0531 -0.1844 -0.6051
  183DOPC  H12A22419   6.966   5.044  12.826 -0.2244 -1.4477 -0.9470
  183DOPC  H12B22420   7.097   5.146  12.789 -1.7903  0.1223  1.4309
  183DOPC   C1322421   6.925   5.178  12.596  0.2009  0.0148  0.4308
  183DOPC  H13A22422   6.890   5.180  12.494 -1.6667 -1.2266  1.0030
  183DOPC  H13B22423   6.837   5.181  12.658 -1.4903  0.0872 -1.8703
  183DOPC  H13C22424   6.973   5.275  12.598 -1.8182  1.0572  2.1482
  183DOPC   C1422425   6.943   4.952  12.570 -0.3359  0.2742  0.9914
  183DOPC  H14A22426   6.911   4.967  12.468 -0.1880 -0.0799  0.8917
  183DOPC  H14B22427   7.006   4.865  12.582 -0.0019  0.5679  1.3988
  183DOPC  H14C22428   6.851   4.936  12.625 -2.7001  1.3815 -2.3615
  183DOPC   C1522429   7.138   5.093  12.528 -0.5377  0.3729 -0.2589
  183DOPC  H15A22430   7.219   5.028  12.555 -0.7405  0.6823  1.1626
  183DOPC  H15B22431   7.182   5.188  12.555 -0.6298  0.2079  0.4795
  183DOPC  H15C22432   7.124   5.101  12.421  0.8518  0.4543 -0.4436
  183DOPC   C1122433   7.148   4.932  12.801  0.1986 -0.6055 -0.0970
  183DOPC  H11A22434   7.243   4.925  12.744 -0.8459  0.8173 -2.1541
  183DOPC  H11B22435   7.185   4.952  12.903  1.0078 -0.3768 -0.4236
  183DOPC     P22436   7.004   4.761  12.922 -0.1760  0.1898 -0.1067
  183DOPC   O1322437   7.041   4.616  12.935  0.2740  0.7660  0.1405
  183DOPC   O1422438   6.862   4.792  12.909 -0.0384  0.2725 -0.1138
  183DOPC   O1222439   7.078   4.806  12.798  0.2352 -0.6995  0.0260
  183DOPC   O1122440   7.057   4.837  13.049  0.0178  0.0111 -0.0311
  183DOPC    C122441   7.054   4.786  13.178  0.1648 -0.1539 -0.2408
  183DOPC    HA22442   7.154   4.746  13.205  0.0938 -0.9356 -1.0859
  183DOPC    HB22443   6.995   4.692  13.187  2.1931 -1.5706 -1.1227
  183DOPC    C222444   7.001   4.885  13.280 -0.3939 -0.1019  0.0123
  183DOPC    HS22445   7.072   4.969  13.298 -1.5882  1.4920 -2.1868
  183DOPC   O2122446   6.968   4.829  13.407 -0.2520  0.3494 -0.3444
  183DOPC   C2122447   7.061   4.773  13.474 -0.6659 -0.1437  0.8930
  183DOPC   O2222448   7.180   4.765  13.440  0.1852  0.9407 -0.1733
  183DOPC   C2222449   7.005   4.708  13.598  0.2975 -0.0447 -0.1580
  183DOPC   H2R22450   6.935   4.631  13.558 -0.1470  1.3215 -2.1198
  183DOPC   H2S22451   6.939   4.780  13.651 -1.9503 -2.7197  0.9506
  183DOPC    C322452   6.877   4.963  13.224  0.0370 -0.1851  0.2197
  183DOPC    HX22453   6.807   4.893  13.173 -1.1457  0.9883  0.1979
  183DOPC    HY22454   6.924   5.037  13.156 -1.0130  0.2031 -0.0970
  183DOPC   O3122455   6.799   5.032  13.329  0.3987  0.2554 -0.1900
  183DOPC   C3122456   6.861   5.132  13.382 -0.3120 -0.5631 -0.6483
  183DOPC   O3222457   6.967   5.183  13.340  0.2751  0.3002  0.3170
  183DOPC   C3222458   6.779   5.181  13.504 -0.8705 -0.6469 -0.0702
  183DOPC   H2X22459   6.729   5.277  13.477  1.4644  0.8163  0.5023
  183DOPC   H2Y22460   6.707   5.099  13.525 -1.0384 -0.8660 -1.4288
  183DOPC   C2322461   7.110   4.637  13.687  0.7904 -0.1280 -0.3655
  183DOPC   H3R22462   7.200   4.701  13.683  0.5979  0.3816  1.9717
  183DOPC   H3S22463   7.124   4.530  13.660 -1.0235 -0.5093  0.0773
  183DOPC   C2422464   7.069   4.658  13.834 -0.7619  0.2570  0.1799
  183DOPC   H4R22465   6.970   4.613  13.856 -0.9074  1.0430  1.2124
  183DOPC   H4S22466   7.064   4.767  13.856  1.1726  0.3619  0.3522
  183DOPC   C2522467   7.176   4.596  13.924  0.5762 -0.6000 -0.6951
  183DOPC   H5R22468   7.268   4.655  13.904 -1.0809  2.0613 -0.8895
  183DOPC   H5S22469   7.182   4.486  13.906  0.4046 -0.5713 -0.9289
  183DOPC   C2622470   7.156   4.597  14.075 -1.1569 -1.3155  0.0469
  183DOPC   H6R22471   7.059   4.546  14.095 -1.1289 -0.9005  1.3275
  183DOPC   H6S22472   7.153   4.700  14.118  0.2774 -0.7774 -1.0765
  183DOPC   C2722473   7.267   4.533  14.144 -0.1700  0.4228 -0.4742
  183DOPC   H7R22474   7.367   4.567  14.111  0.7984 -1.5805  0.2673
  183DOPC   H7S22475   7.270   4.422  14.145 -2.0545  0.3174  1.3473
  183DOPC   C2822476   7.257   4.571  14.295  0.2310 -0.2808 -0.5025
  183DOPC   H8R22477   7.152   4.548  14.326  0.9658 -3.8178 -0.1477
  183DOPC   H8S22478   7.264   4.681  14.300 -2.6510 -0.0842  1.4988
  183DOPC   C2922479   7.359   4.522  14.400  0.3563 -0.8987  0.2295
  183DOPC   H9R22480   7.460   4.508  14.359  0.4622  0.0564  0.1279
  183DOPC  C21022481   7.333   4.498  14.528  0.3341  0.0270 -0.5496
  183DOPC  H10R22482   7.417   4.491  14.599 -0.0716  1.0526  0.0582
  183DOPC  C21122483   7.204   4.523  14.606  0.5300  0.2811 -0.5847
  183DOPC  H11R22484   7.176   4.443  14.678 -2.0458  0.9351 -0.7931
  183DOPC  H11S22485   7.126   4.519  14.527  0.9978  0.1994 -1.0551
  183DOPC  C21222486   7.207   4.652  14.700  0.4388  0.6792 -0.5046
  183DOPC  H12R22487   7.288   4.627  14.772  1.0390 -2.6236 -2.1252
  183DOPC  H12S22488   7.107   4.660  14.747 -1.7489  0.7132 -4.6287
  183DOPC  C21322489   7.225   4.783  14.624 -0.7929 -0.1811  0.8290
  183DOPC  H13R22490   7.134   4.793  14.561  0.3113  0.1936 -0.8057
  183DOPC  H13S22491   7.321   4.784  14.566 -1.4176  0.1708 -0.2357
  183DOPC  C21422492   7.231   4.900  14.723 -0.5259  0.4492  0.3728
  183DOPC  H14R22493   7.138   4.900  14.785 -0.5483  2.4217  0.4025
  183DOPC  H14S22494   7.224   4.991  14.660  0.0941 -0.9726 -1.8943
  183DOPC  C21522495   7.352   4.902  14.816  0.3741  0.6220 -0.3581
  183DOPC  H15R22496   7.444   4.923  14.757 -0.1652  1.2480 -0.9900
  183DOPC  H15S22497   7.361   4.808  14.875 -0.1763  0.4325 -0.5716
  183DOPC  C21622498   7.337   5.011  14.919 -0.0731  0.7177  0.1552
  183DOPC  H16R22499   7.244   4.994  14.977 -0.9950  2.3887 -0.7698
  183DOPC  H16S22500   7.309   5.103  14.865 -1.3773 -0.5974 -1.5426
  183DOPC  C21722501   7.441   5.035  15.032 -0.8424  0.6506 -0.0812
  183DOPC  H17R22502   7.535   5.047  14.975 -2.3019 -0.6921 -2.9950
  183DOPC  H17S22503   7.441   4.946  15.098 -1.6309  2.8444  3.1264
  183DOPC  C21822504   7.420   5.160  15.122  0.0476 -0.2241  0.7579
  183DOPC  H18R22505   7.394   5.242  15.052 -1.7121 -0.1321  1.4722
  183DOPC  H18S22506   7.502   5.183  15.194  0.0036  2.7196 -0.0098
  183DOPC  H18T22507   7.335   5.142  15.190 -1.1102 -0.1539 -0.6276
  183DOPC   C3322508   6.877   5.204  13.620 -0.0220 -0.4040 -0.4119
  183DOPC   H3X22509   6.816   5.256  13.696  0.5947  1.0662 -0.8829
  183DOPC   H3Y22510   6.962   5.268  13.590  0.6894 -0.4429  1.3782
  183DOPC   C3422511   6.926   5.066  13.682  0.2166  0.6873  0.4242
  183DOPC   H4X22512   6.988   5.018  13.603 -0.3714  1.3771 -0.4922
  183DOPC   H4Y22513   6.840   5.002  13.709  0.4950 -0.4764 -1.2374
  183DOPC   C3522514   7.007   5.098  13.804 -0.1181  1.0845  0.1702
  183DOPC   H5X22515   7.036   4.997  13.840  2.4648  1.3872 -0.8193
  183DOPC   H5Y22516   6.950   5.150  13.884 -0.8484  1.4089 -0.5503
  183DOPC   C3622517   7.141   5.169  13.782 -0.3336  0.2670 -0.7205
  183DOPC   H6X22518   7.203   5.123  13.702 -2.2243  1.8741 -3.2418
  183DOPC   H6Y22519   7.126   5.272  13.742  1.7873  0.3893 -1.3545
  183DOPC   C3722520   7.223   5.183  13.914 -0.1014 -0.2788  0.3342
  183DOPC   H7X22521   7.155   5.231  13.987  0.4261  1.8394 -0.4984
  183DOPC   H7Y22522   7.249   5.077  13.937 -0.9023 -1.4341 -3.4145
  183DOPC   C3822523   7.369   5.250  13.901  0.5983 -0.0470  0.1296
  183DOPC   H8X22524   7.419   5.201  13.814  0.6102  0.4124 -0.1254
  183DOPC   H8Y22525   7.425   5.227  13.994  0.8196  0.6315  0.1709
  183DOPC   C3922526   7.365   5.397  13.878  0.0784  0.1718 -0.0981
  183DOPC   H9X22527   7.309   5.431  13.790 -1.0515 -0.4078  0.3776
  183DOPC  C31022528   7.410   5.500  13.956 -1.1342  0.4403  0.5653
  183DOPC  H10X22529   7.411   5.604  13.921  0.0013 -0.1886 -1.4178
  183DOPC  C31122530   7.477   5.485  14.094 -0.1542  0.5930  0.0847
  183DOPC  H11X22531   7.469   5.380  14.129 -0.4685  0.1301 -1.3136
  183DOPC  H11Y22532   7.433   5.549  14.174 -1.0057  1.0721 -0.7413
  183DOPC  C31222533   7.632   5.513  14.091 -0.6923  0.1996  0.2064
  183DOPC  H12X22534   7.667   5.476  13.992 -1.2421 -0.8128  0.3711
  183DOPC  H12Y22535   7.689   5.466  14.173 -0.0762 -1.0788 -0.9182
  183DOPC  C31322536   7.655   5.665  14.097  0.1246 -0.1652 -0.6941
  183DOPC  H13X22537   7.600   5.726  14.023  0.5415  1.1265  0.0400
  183DOPC  H13Y22538   7.624   5.704  14.196 -0.5643 -1.0794 -0.5365
  183DOPC  C31422539   7.810   5.683  14.077  0.0759  0.1404  0.2620
  183DOPC  H14X22540   7.860   5.635  14.164 -0.6701 -0.9750  0.0923
  183DOPC  H14Y22541   7.850   5.640  13.983 -0.7969  2.8443 -1.4366
  183DOPC  C31522542   7.846   5.832  14.053 -0.6025 -0.1966 -0.5743
  183DOPC  H15X22543   7.802   5.889  14.137  0.3372 -1.1166  0.5881
  183DOPC  H15Y22544   7.813   5.867  13.953 -0.2010 -0.7861 -0.9226
  183DOPC  C31622545   7.997   5.871  14.071 -0.2887  0.0863  0.4967
  183DOPC  H16X22546   8.056   5.803  14.006 -0.7068 -1.1096  1.3253
  183DOPC  H16Y22547   8.012   5.974  14.032  1.4358 -0.8289 -1.4201
  183DOPC  C31722548   8.036   5.869  14.219 -0.4903 -0.3162  0.2863
  183DOPC  H17X22549   7.963   5.916  14.288 -0.7880  0.4245 -0.5152
  183DOPC  H17Y22550   8.052   5.761  14.243  1.1107 -0.3049 -0.5473
  183DOPC  C31822551   8.169   5.942  14.245 -0.3788  0.2005  0.4303
  183DOPC  H18X22552   8.190   5.960  14.352 -0.1441  1.5875  0.1699
  183DOPC  H18Y22553   8.243   5.879  14.190 -0.7530 -0.0762  0.2361
  183DOPC  H18Z22554   8.166   6.039  14.192 -0.4317 -0.2983 -0.5184
  184DOPC     N22555   4.203   0.925  13.104  0.4736  0.4665  0.5047
  184DOPC   C1222556   4.260   0.915  13.244  0.0371  0.3373  0.2246
  184DOPC  H12A22557   4.200   0.850  13.306 -0.5315  0.1629 -0.4943
  184DOPC  H12B22558   4.258   1.015  13.286  2.9711  0.4993  0.1468
  184DOPC   C1322559   4.235   0.803  13.016 -0.4574 -0.1302  0.1941
  184DOPC  H13A22560   4.203   0.709  13.059  1.8901 -0.7615  0.7186
  184DOPC  H13B22561   4.184   0.815  12.921 -2.1181  1.8399  1.2598
  184DOPC  H13C22562   4.341   0.798  12.997  0.0815  2.2232  2.0758
  184DOPC   C1422563   4.258   1.052  13.038  0.2130 -0.0831 -0.2237
  184DOPC  H14A22564   4.240   1.144  13.093 -0.1451 -0.1474 -0.2297
  184DOPC  H14B22565   4.364   1.037  13.031  0.0785 -1.7165  0.7013
  184DOPC  H14C22566   4.226   1.064  12.936  4.6298  2.1077 -1.6024
  184DOPC   C1522567   4.060   0.934  13.106  0.1756 -0.1562 -0.1552
  184DOPC  H15A22568   4.022   0.996  13.186  2.0656 -1.1119  1.6097
  184DOPC  H15B22569   4.018   0.835  13.119 -2.1164  0.4882 -2.0513
  184DOPC  H15C22570   4.024   0.959  13.008  0.4218 -0.0687 -0.2234
  184DOPC   C1122571   4.416   0.874  13.255  0.3477 -0.0291 -0.1662
  184DOPC  H11A22572   4.439   0.851  13.361  0.3838  0.7631  0.0050
  184DOPC  H11B22573   4.422   0.777  13.202  0.3127  1.0227 -2.1820
  184DOPC     P22574   4.564   1.090  13.279 -0.0241 -0.0769 -0.2536
  184DOPC   O1322575   4.583   1.205  13.185  0.6526 -0.2682 -0.1681
  184DOPC   O1422576   4.687   1.036  13.334  0.3207  0.1102 -0.2826
  184DOPC   O1222577   4.506   0.971  13.200  0.4836  0.2599  0.6330
  184DOPC   O1122578   4.454   1.121  13.389  0.1020  0.7106  0.1072
  184DOPC    C122579   4.455   1.045  13.511 -0.5414  0.1459 -0.1936
  184DOPC    HA22580   4.529   0.964  13.526 -0.6294  0.2667  0.9946
  184DOPC    HB22581   4.356   0.995  13.514 -0.8402  0.7892  1.8732
  184DOPC    C222582   4.465   1.142  13.632 -0.0640  0.3988 -0.4817
  184DOPC    HS22583   4.467   1.083  13.726  5.1240  0.6811 -0.1103
  184DOPC   O2122584   4.354   1.239  13.637 -0.4351 -0.9861 -0.0336
  184DOPC   C2122585   4.238   1.184  13.683 -0.0329 -0.1765 -0.3668
  184DOPC   O2222586   4.222   1.064  13.700 -0.1772 -0.0156  0.2800
  184DOPC   C2222587   4.137   1.289  13.710 -0.1569 -0.0571 -0.3217
  184DOPC   H2R22588   4.056   1.287  13.633  0.7373 -1.2163 -1.2694
  184DOPC   H2S22589   4.180   1.390  13.697  0.1945 -0.4714 -3.1352
  184DOPC    C322590   4.601   1.214  13.624 -0.0997  0.1081 -0.2920
  184DOPC    HX22591   4.606   1.289  13.543  1.3563  0.7902  0.3978
  184DOPC    HY22592   4.664   1.128  13.592 -1.0425 -1.2679  1.3857
  184DOPC   O3122593   4.653   1.253  13.753 -0.0354 -0.1235 -0.1007
  184DOPC   C3122594   4.654   1.382  13.798 -0.9027 -0.8651  0.4586
  184DOPC   O3222595   4.627   1.480  13.727 -0.0616  0.3459 -0.1274
  184DOPC   C3222596   4.690   1.395  13.939 -0.2529 -0.1492 -0.7343
  184DOPC   H2X22597   4.634   1.316  13.993 -0.6915 -1.2283 -2.6688
  184DOPC   H2Y22598   4.795   1.371  13.966 -0.6368 -0.5912  0.4229
  184DOPC   C2322599   4.064   1.278  13.851  0.2901  0.1660  0.2055
  184DOPC   H3R22600   4.040   1.173  13.877  1.6042 -0.3366 -0.4556
  184DOPC   H3S22601   3.970   1.337  13.857 -0.2758 -0.6112 -0.7885
  184DOPC   C2422602   4.154   1.356  13.952  0.2805 -1.0621  0.2679
  184DOPC   H4R22603   4.149   1.464  13.929  1.8959 -0.9013  0.5758
  184DOPC   H4S22604   4.256   1.315  13.935  0.8513 -0.1352  1.3694
  184DOPC   C2522605   4.123   1.331  14.096 -0.0047 -0.0060 -0.2019
  184DOPC   H5R22606   4.014   1.314  14.110  0.0011  2.0156  3.3563
  184DOPC   H5S22607   4.153   1.420  14.155  1.9139 -0.0387 -1.0324
  184DOPC   C2622608   4.189   1.213  14.166  0.1028  0.1157 -0.2268
  184DOPC   H6R22609   4.148   1.189  14.266  2.5033 -2.9178  0.1998
  184DOPC   H6S22610   4.298   1.232  14.175  0.0977  0.2759 -0.5061
  184DOPC   C2722611   4.177   1.077  14.093  0.6739 -0.1419 -0.7867
  184DOPC   H7R22612   4.233   1.081  13.997  0.5866  0.6831 -0.8146
  184DOPC   H7S22613   4.072   1.062  14.061  0.4745 -2.5374  0.7671
  184DOPC   C2822614   4.225   0.949  14.165  0.0885  0.4833  0.8348
  184DOPC   H8R22615   4.219   0.856  14.105  0.7662  1.4224 -0.7333
  184DOPC   H8S22616   4.144   0.924  14.237 -1.5708  2.8398 -0.1004
  184DOPC   C2922617   4.353   0.977  14.243 -0.1166  0.6799  0.1854
  184DOPC   H9R22618   4.435   1.019  14.184  0.6601 -1.6797 -0.5126
  184DOPC  C21022619   4.383   0.942  14.371  0.3595  0.7940 -0.3246
  184DOPC  H10R22620   4.468   0.989  14.423 -1.1154  0.3287  2.7210
  184DOPC  C21122621   4.301   0.862  14.470 -0.6838 -0.1385  0.5656
  184DOPC  H11R22622   4.197   0.852  14.433 -0.5520  2.1848 -0.5975
  184DOPC  H11S22623   4.302   0.922  14.563 -0.6378  2.0141 -0.7698
  184DOPC  C21222624   4.341   0.710  14.510  0.0289 -0.3784  0.5377
  184DOPC  H12R22625   4.316   0.653  14.418  0.0219  0.7102 -0.1501
  184DOPC  H12S22626   4.275   0.675  14.593 -1.4339  1.5183  0.2447
  184DOPC  C21322627   4.486   0.695  14.551 -0.2370 -0.0050 -0.7889
  184DOPC  H13R22628   4.499   0.774  14.627 -1.0801 -0.1036 -0.5325
  184DOPC  H13S22629   4.556   0.721  14.469  0.4626 -0.9928 -0.5167
  184DOPC  C21422630   4.519   0.556  14.603 -0.0913  0.3941 -0.3918
  184DOPC  H14R22631   4.628   0.563  14.623  0.1255 -1.3398 -0.7930
  184DOPC  H14S22632   4.508   0.476  14.527 -1.5732  0.7960 -0.6264
  184DOPC  C21522633   4.453   0.513  14.740  0.2549  0.1580  0.0720
  184DOPC  H15R22634   4.467   0.405  14.762  1.7778  0.1795 -0.6270
  184DOPC  H15S22635   4.345   0.536  14.735 -0.0217 -1.0557  0.3042
  184DOPC  C21622636   4.530   0.588  14.857  1.1613  0.7465 -0.1270
  184DOPC  H16R22637   4.526   0.699  14.847 -0.6555  0.6690 -0.6039
  184DOPC  H16S22638   4.633   0.550  14.842  0.7079 -0.2441 -0.8298
  184DOPC  C21722639   4.488   0.521  14.984 -0.5059  0.2539 -0.5810
  184DOPC  H17R22640   4.509   0.412  14.979 -0.9045  0.1573 -0.2049
  184DOPC  H17S22641   4.379   0.531  15.000 -0.5456 -0.4231 -0.4112
  184DOPC  C21822642   4.561   0.580  15.104  0.5793  0.0665 -0.0986
  184DOPC  H18R22643   4.671   0.579  15.092  0.4749 -0.7503 -1.1167
  184DOPC  H18S22644   4.537   0.531  15.201  0.0916  0.6758  0.0956
  184DOPC  H18T22645   4.527   0.686  15.108 -1.8973 -0.6397 -0.5372
  184DOPC   C3322646   4.662   1.536  13.999  0.2253 -0.1221  0.1105
  184DOPC   H3X22647   4.556   1.566  13.984 -0.2098 -1.9178 -0.7364
  184DOPC   H3Y22648   4.727   1.612  13.950 -0.0150 -0.4584 -0.7554
  184DOPC   C3422649   4.678   1.530  14.147  0.1570  0.5569 -0.3977
  184DOPC   H4X22650   4.702   1.630  14.188  0.4354  0.3991 -0.1686
  184DOPC   H4Y22651   4.767   1.466  14.164 -0.9642 -0.5982  1.5611
  184DOPC   C3522652   4.551   1.465  14.210  0.3103  0.5463  0.3792
  184DOPC   H5X22653   4.525   1.361  14.178  0.8003 -0.2927  2.5148
  184DOPC   H5Y22654   4.463   1.530  14.190  2.0991  2.6341 -1.0196
  184DOPC   C3622655   4.564   1.445  14.368 -0.3986  0.4539 -0.0899
  184DOPC   H6X22656   4.659   1.400  14.403 -0.3126  0.9671  0.3577
  184DOPC   H6Y22657   4.574   1.550  14.403 -0.3550  0.4286 -0.0279
  184DOPC   C3722658   4.445   1.386  14.443  0.5872  0.4730  0.2154
  184DOPC   H7X22659   4.351   1.444  14.430 -0.9006 -1.3581  2.0141
  184DOPC   H7Y22660   4.421   1.289  14.394 -0.3383  1.3251 -1.0505
  184DOPC   C3822661   4.462   1.375  14.599  0.8322  0.5676  0.2040
  184DOPC   H8X22662   4.525   1.460  14.634  1.5273 -0.3502  1.2587
  184DOPC   H8Y22663   4.528   1.292  14.632  0.3411  1.1028  2.7243
  184DOPC   C3922664   4.336   1.343  14.670  0.1534 -0.2267 -1.4244
  184DOPC   H9X22665   4.280   1.252  14.643 -1.0485  0.4536 -1.2689
  184DOPC  C31022666   4.282   1.412  14.773 -0.3644 -0.2454  0.1410
  184DOPC  H10X22667   4.199   1.366  14.828  0.2520 -1.0513  0.4174
  184DOPC  C31122668   4.352   1.533  14.843  0.4846 -0.0785  0.7965
  184DOPC  H11X22669   4.275   1.604  14.882  3.2373  2.4231  2.0873
  184DOPC  H11Y22670   4.407   1.584  14.761 -1.8431 -1.7641 -1.9872
  184DOPC  C31222671   4.447   1.476  14.954  0.7005 -0.0172 -0.0103
  184DOPC  H12X22672   4.482   1.564  15.012  0.0331 -0.4082  1.0170
  184DOPC  H12Y22673   4.530   1.413  14.913  1.2313 -0.9187  2.3152
  184DOPC  C31322674   4.377   1.384  15.063 -0.0587 -0.9034 -0.6107
  184DOPC  H13X22675   4.300   1.321  15.013 -1.3093 -0.0985  0.2497
  184DOPC  H13Y22676   4.449   1.316  15.113  2.0834  2.3597  1.0407
  184DOPC  C31422677   4.323   1.465  15.180 -0.5253  0.7753 -0.1671
  184DOPC  H14X22678   4.399   1.527  15.232 -0.5948 -0.0952  1.0182
  184DOPC  H14Y22679   4.252   1.541  15.141 -0.0210  0.9731 -0.7046
  184DOPC  C31522680   4.255   1.377  15.289 -0.7532  0.2320  0.3306
  184DOPC  H15X22681   4.196   1.445  15.354 -0.4881 -0.2650  1.1054
  184DOPC  H15Y22682   4.335   1.322  15.343  0.7626  1.4798 -0.5652
  184DOPC  C31622683   4.157   1.274  15.225 -0.0979 -0.0401 -0.2221
  184DOPC  H16X22684   4.120   1.343  15.146 -0.7915 -0.7789 -0.5552
  184DOPC  H16Y22685   4.199   1.184  15.176  0.5333  0.7152 -1.1068
  184DOPC  C31722686   4.058   1.218  15.329 -0.5542 -0.4657 -0.2427
  184DOPC  H17X22687   4.096   1.175  15.424 -0.4756 -0.9534 -0.4912
  184DOPC  H17Y22688   4.002   1.304  15.371  0.2119  0.0778 -0.3184
  184DOPC  C31822689   3.952   1.128  15.261 -0.1741 -0.3488 -0.0200
  184DOPC  H18X22690   3.936   1.158  15.155  2.3400  0.5854 -0.2044
  184DOPC  H18Y22691   3.985   1.022  15.253 -1.6173 -0.7646 -0.9361
  184DOPC  H18Z22692   3.855   1.130  15.315 -0.4430 -3.7147 -0.1398
  185DOPC     N22693   6.813   5.763  13.013  0.1828  0.0936  0.0017
  185DOPC   C1222694   6.675   5.773  12.947 -0.3728 -0.1088 -0.1168
  185DOPC  H12A22695   6.684   5.745  12.843  0.2883 -1.5597  0.3084
  185DOPC  H12B22696   6.637   5.874  12.948 -1.3598 -0.4705  0.5583
  185DOPC   C1322697   6.920   5.820  12.927  0.8734 -0.1585 -0.4388
  185DOPC  H13A22698   6.901   5.923  12.900  1.7172 -0.2745 -1.5494
  185DOPC  H13B22699   7.010   5.828  12.986  0.5701 -0.3582  0.0544
  185DOPC  H13C22700   6.935   5.754  12.843  1.2827 -1.6948  0.8066
  185DOPC   C1422701   6.854   5.620  13.041 -0.3422  0.0762 -0.1582
  185DOPC  H14A22702   6.860   5.568  12.946 -3.4048  1.4789 -1.2580
  185DOPC  H14B22703   6.954   5.624  13.080  0.0875  0.7199 -1.2918
  185DOPC  H14C22704   6.780   5.565  13.099  0.3793 -1.3885 -0.5643
  185DOPC   C1522705   6.807   5.839  13.142 -0.7224 -0.0104  0.0452
  185DOPC  H15A22706   6.903   5.822  13.187  0.9595  2.7478 -2.1297
  185DOPC  H15B22707   6.733   5.790  13.203  1.0801 -3.0150  0.0073
  185DOPC  H15C22708   6.778   5.939  13.112 -1.6024  0.0585  1.0583
  185DOPC   C1122709   6.561   5.684  13.004 -0.1701 -0.3733 -0.4676
  185DOPC  H11A22710   6.488   5.686  12.920  0.5073  1.6626 -1.0775
  185DOPC  H11B22711   6.594   5.580  13.022 -0.9651 -0.6398 -0.5026
  185DOPC     P22712   6.482   5.665  13.259  0.4855  0.0542  0.1458
  185DOPC   O1322713   6.518   5.522  13.237 -0.6923 -0.1417  0.0542
  185DOPC   O1422714   6.339   5.697  13.302 -0.5985  0.1549 -0.6609
  185DOPC   O1222715   6.510   5.745  13.122 -0.4532 -0.1859 -0.4848
  185DOPC   O1122716   6.584   5.727  13.356  0.0680 -0.3174 -0.2179
  185DOPC    C122717   6.586   5.864  13.399 -0.0383 -0.0158  0.1264
  185DOPC    HA22718   6.543   5.938  13.328 -0.4955  0.3813  0.8055
  185DOPC    HB22719   6.692   5.895  13.410 -0.5611  1.9281 -0.0144
  185DOPC    C222720   6.508   5.882  13.535 -0.3035 -0.6698  0.7334
  185DOPC    HS22721   6.400   5.898  13.515 -0.3000 -1.5256 -0.0217
  185DOPC   O2122722   6.559   5.995  13.616 -0.2380 -0.0161 -0.0506
  185DOPC   C2122723   6.536   6.114  13.572  0.2603  0.0176  0.0856
  185DOPC   O2222724   6.458   6.140  13.479  0.2605 -0.1942  0.3572
  185DOPC   C2222725   6.611   6.214  13.660  0.5323  0.1802 -0.6057
  185DOPC   H2R22726   6.709   6.226  13.608  0.3857 -0.0308 -0.9360
  185DOPC   H2S22727   6.626   6.173  13.762 -0.0390  1.1941 -0.1072
  185DOPC    C322728   6.520   5.750  13.619  0.8671 -0.0705  0.3047
  185DOPC    HX22729   6.621   5.703  13.616 -0.0541 -2.2203  1.0806
  185DOPC    HY22730   6.452   5.672  13.579  0.6058 -0.0945  0.7939
  185DOPC   O3122731   6.483   5.778  13.751 -0.5712  0.1030  0.0596
  185DOPC   C3122732   6.574   5.813  13.836  0.5316 -0.5364  0.2407
  185DOPC   O3222733   6.693   5.810  13.818 -0.3211 -0.5218  0.0030
  185DOPC   C3222734   6.508   5.885  13.949  0.0170 -0.2853  0.4554
  185DOPC   H2X22735   6.457   5.970  13.898  3.3470  0.7096 -1.5526
  185DOPC   H2Y22736   6.425   5.826  13.994 -0.8054  0.4132 -0.1108
  185DOPC   C2322737   6.554   6.357  13.668 -0.2725  0.1338  0.2200
  185DOPC   H3R22738   6.544   6.413  13.572  0.3053 -0.0348  0.0588
  185DOPC   H3S22739   6.619   6.425  13.727 -1.1422 -0.6391  2.1492
  185DOPC   C2422740   6.420   6.361  13.738  0.6406  0.7924 -0.3294
  185DOPC   H4R22741   6.350   6.320  13.662 -0.3019  2.4685 -0.4288
  185DOPC   H4S22742   6.385   6.464  13.760  0.6324  0.6001  0.5817
  185DOPC   C2522743   6.410   6.277  13.871  0.0937 -0.2122  0.0918
  185DOPC   H5R22744   6.479   6.313  13.950  0.0690 -1.7174  0.8410
  185DOPC   H5S22745   6.434   6.170  13.857  0.2421 -0.1743  0.0541
  185DOPC   C2622746   6.266   6.292  13.924 -1.0329 -0.1064  0.7230
  185DOPC   H6R22747   6.203   6.286  13.833  1.0838  1.5696 -0.9811
  185DOPC   H6S22748   6.264   6.397  13.960  0.3761  0.3565 -0.4203
  185DOPC   C2722749   6.210   6.191  14.029  0.2069 -0.0297 -0.2447
  185DOPC   H7R22750   6.233   6.095  13.979  0.3875  1.0911 -2.4417
  185DOPC   H7S22751   6.100   6.201  14.035  0.2731  1.5575 -1.0130
  185DOPC   C2822752   6.258   6.212  14.173 -0.3872 -0.3438 -0.1799
  185DOPC   H8R22753   6.214   6.311  14.197 -0.9049 -0.5316 -0.3499
  185DOPC   H8S22754   6.368   6.228  14.162 -0.5145  1.0122  0.3852
  185DOPC   C2922755   6.217   6.110  14.270  0.6601 -0.0648  0.7646
  185DOPC   H9R22756   6.112   6.076  14.262  0.1877  1.4550  0.0111
  185DOPC  C21022757   6.295   6.061  14.369  0.3196  0.7541 -0.1104
  185DOPC  H10R22758   6.256   5.975  14.425  2.2511 -0.4199 -0.4821
  185DOPC  C21122759   6.444   6.083  14.387 -0.0964  0.1553 -0.2196
  185DOPC  H11R22760   6.480   6.168  14.325  1.1991  0.2253  0.5954
  185DOPC  H11S22761   6.489   5.989  14.350  0.0099 -0.3339  1.0867
  185DOPC  C21222762   6.492   6.124  14.527  0.4671  0.2897  0.0953
  185DOPC  H12R22763   6.443   6.222  14.547 -0.6807  0.2402 -2.1251
  185DOPC  H12S22764   6.602   6.136  14.536  0.3401  0.5758  1.6690
  185DOPC  C21322765   6.449   6.026  14.638 -0.5598  0.4534 -0.1597
  185DOPC  H13R22766   6.491   5.927  14.615  0.8243  1.3458 -1.6590
  185DOPC  H13S22767   6.339   6.026  14.657 -0.3604 -1.3994  1.2346
  185DOPC  C21422768   6.490   6.074  14.779  0.1870 -0.0285 -0.5353
  185DOPC  H14R22769   6.458   6.179  14.789  1.4484  0.1556  2.3306
  185DOPC  H14S22770   6.601   6.066  14.776  0.2182  0.5114 -0.9005
  185DOPC  C21522771   6.424   5.992  14.890 -0.2077  0.2449  0.5275
  185DOPC  H15R22772   6.491   6.015  14.976  1.3425 -1.7590 -0.0747
  185DOPC  H15S22773   6.450   5.884  14.888  3.1628  0.9557 -0.6864
  185DOPC  C21622774   6.279   6.029  14.912  0.1486  0.5689 -0.7877
  185DOPC  H16R22775   6.213   5.975  14.840 -0.1883 -4.9573  3.0298
  185DOPC  H16S22776   6.276   6.139  14.897 -0.1612  0.6944  0.1267
  185DOPC  C21722777   6.236   5.992  15.055  0.5342 -0.2483 -0.3267
  185DOPC  H17R22778   6.130   6.024  15.050  0.3699 -0.8844 -1.1329
  185DOPC  H17S22779   6.289   6.058  15.127 -2.4886  1.8883  0.1229
  185DOPC  C21822780   6.247   5.846  15.088 -0.4840 -0.0401  0.3595
  185DOPC  H18R22781   6.193   5.789  15.010  3.2501 -0.7917 -1.8618
  185DOPC  H18S22782   6.209   5.830  15.192 -1.4347  0.4731  0.1039
  185DOPC  H18T22783   6.349   5.803  15.085 -0.1692  0.6154  1.2114
  185DOPC   C3322784   6.614   5.943  14.051 -0.2011  0.1282  0.5720
  185DOPC   H3X22785   6.570   6.031  14.103 -0.5831  2.0384 -2.7279
  185DOPC   H3Y22786   6.703   5.987  14.003 -0.4184  0.0146  0.0608
  185DOPC   C3422787   6.666   5.838  14.148  0.0872  0.2137  0.3798
  185DOPC   H4X22788   6.713   5.751  14.096 -1.7764 -0.2378 -0.6309
  185DOPC   H4Y22789   6.573   5.793  14.188 -1.3542 -0.3958 -3.2248
  185DOPC   C3522790   6.765   5.885  14.257  0.3375 -0.2022 -0.0990
  185DOPC   H5X22791   6.712   5.969  14.307 -0.0447 -0.7515  0.4337
  185DOPC   H5Y22792   6.853   5.936  14.211 -1.0128  0.9408 -1.5116
  185DOPC   C3622793   6.799   5.776  14.359  0.3115 -0.5282  0.9989
  185DOPC   H6X22794   6.824   5.692  14.291  0.7260  1.4448 -1.4579
  185DOPC   H6Y22795   6.898   5.792  14.407  0.6714 -1.3712  0.5556
  185DOPC   C3722796   6.693   5.749  14.468  0.2333  0.2966  0.9211
  185DOPC   H7X22797   6.664   5.842  14.521 -1.6909  0.4046 -0.2612
  185DOPC   H7Y22798   6.599   5.713  14.421  0.0866  0.4794  1.0749
  185DOPC   C3822799   6.728   5.625  14.555  0.0712  0.1157 -0.2703
  185DOPC   H8X22800   6.753   5.541  14.487 -1.7311 -0.2067 -0.5785
  185DOPC   H8Y22801   6.644   5.588  14.617  0.1386  0.1193 -0.1773
  185DOPC   C3922802   6.835   5.650  14.657  0.1024 -0.4636 -0.0437
  185DOPC   H9X22803   6.936   5.618  14.629  1.0447  1.2599  1.2376
  185DOPC  C31022804   6.829   5.721  14.770  0.4852 -0.0146  0.1931
  185DOPC  H10X22805   6.927   5.741  14.816  0.5587  1.3521 -0.4950
  185DOPC  C31122806   6.710   5.784  14.830  0.4704  0.1968 -0.5419
  185DOPC  H11X22807   6.619   5.807  14.770 -0.8115 -0.9440  0.9069
  185DOPC  H11Y22808   6.741   5.885  14.865  2.6046  0.3088 -2.4630
  185DOPC  C31222809   6.670   5.699  14.953  0.5629  0.2543  0.0658
  185DOPC  H12X22810   6.589   5.749  15.011 -0.2288 -1.1059  0.1773
  185DOPC  H12Y22811   6.757   5.690  15.022  0.2686  2.3447  0.7895
  185DOPC  C31322812   6.620   5.558  14.915  0.6279  0.5774 -0.0427
  185DOPC  H13X22813   6.558   5.560  14.822 -1.2052  0.0822  1.1058
  185DOPC  H13Y22814   6.700   5.483  14.905 -0.4604 -0.6572  0.2100
  185DOPC  C31422815   6.533   5.498  15.034  0.1874 -0.7119  0.4094
  185DOPC  H14X22816   6.453   5.575  15.043 -0.6706 -1.7391  2.1617
  185DOPC  H14Y22817   6.485   5.406  14.993 -1.7626  1.0402 -1.5206
  185DOPC  C31522818   6.619   5.477  15.158  0.5331  0.3053  0.3321
  185DOPC  H15X22819   6.650   5.579  15.187  0.5593  0.0006  1.3987
  185DOPC  H15Y22820   6.703   5.418  15.116  1.4818  2.5080 -1.0258
  185DOPC  C31622821   6.542   5.399  15.265  0.0681  0.1941 -0.0091
  185DOPC  H16X22822   6.525   5.296  15.227  0.5497 -0.2439  0.9138
  185DOPC  H16Y22823   6.615   5.385  15.348 -2.0937 -1.7041  1.7222
  185DOPC  C31722824   6.412   5.459  15.319  0.4431  0.1523  0.2488
  185DOPC  H17X22825   6.429   5.559  15.364  2.3764 -0.3433  0.7200
  185DOPC  H17Y22826   6.343   5.466  15.233 -0.7395 -0.9502  1.0612
  185DOPC  C31822827   6.331   5.377  15.421  0.4423  0.2954 -0.5779
  185DOPC  H18X22828   6.306   5.277  15.379  1.7325 -0.0460 -0.5560
  185DOPC  H18Y22829   6.387   5.366  15.516  0.8226  0.3075 -0.7964
  185DOPC  H18Z22830   6.232   5.422  15.444  0.9458  0.5515  1.2012
  186DOPC     N22831   0.019   2.761  13.124  0.0089  0.2372  0.8032
  186DOPC   C1222832  -0.031   2.831  13.255  0.6271  0.7222 -0.0002
  186DOPC  H12A22833  -0.139   2.827  13.258  0.6264 -0.7986 -0.9442
  186DOPC  H12B22834  -0.011   2.937  13.260 -0.8993  0.9603  3.5599
  186DOPC   C1322835  -0.006   2.617  13.113  0.4456 -0.4064 -0.4987
  186DOPC  H13A22836   0.031   2.557  13.195  0.5907 -1.4284 -1.2881
  186DOPC  H13B22837  -0.111   2.593  13.102  0.8156 -1.7014 -1.4780
  186DOPC  H13C22838   0.028   2.575  13.019 -0.5990  1.3730 -1.7359
  186DOPC   C1422839   0.159   2.796  13.112 -0.2352  0.4400  0.3929
  186DOPC  H14A22840   0.227   2.746  13.179 -2.3535 -3.6080 -0.1728
  186DOPC  H14B22841   0.195   2.767  13.014  0.7049 -1.7109  1.3162
  186DOPC  H14C22842   0.171   2.904  13.111 -2.8414  0.7940 -1.1286
  186DOPC   C1522843  -0.060   2.826  13.015 -1.2775 -0.1700  0.3761
  186DOPC  H15A22844  -0.063   2.932  13.034  1.1768  0.0320 -0.0103
  186DOPC  H15B22845  -0.159   2.783  13.008 -0.7562 -1.4091  0.2783
  186DOPC  H15C22846  -0.006   2.806  12.924 -0.0866  0.6232  0.8868
  186DOPC   C1122847   0.023   2.774  13.391  0.1464  0.5256  0.0936
  186DOPC  H11A22848   0.132   2.791  13.385  0.0711  0.8092 -0.6907
  186DOPC  H11B22849  -0.015   2.845  13.468  0.4080  1.2155 -0.4068
  186DOPC     P22850   0.028   2.584  13.555 -0.2973  0.5299  0.2722
  186DOPC   O1322851   0.165   2.626  13.589  0.1972  0.5594 -0.4830
  186DOPC   O1422852  -0.008   2.443  13.569  0.2525 -0.0026  0.2798
  186DOPC   O1222853  -0.011   2.635  13.412 -0.1656  0.1457  0.0901
  186DOPC   O1122854  -0.071   2.664  13.642 -0.1168 -0.0031  0.3762
  186DOPC    C122855  -0.054   2.667  13.786 -0.0542  0.0969  1.0181
  186DOPC    HA22856   0.049   2.697  13.812  0.2734 -0.7134  0.6904
  186DOPC    HB22857  -0.091   2.567  13.818 -0.1302  0.1927  1.2339
  186DOPC    C222858  -0.130   2.787  13.847  0.2687  0.2303 -0.1684
  186DOPC    HS22859  -0.090   2.802  13.949  0.9593  1.6876 -0.6337
  186DOPC   O2122860  -0.274   2.772  13.854 -0.1429  0.3021 -0.1435
  186DOPC   C2122861  -0.311   2.671  13.934  0.3337 -0.0315 -0.4145
  186DOPC   O2222862  -0.242   2.609  14.009 -0.5375  0.2855 -0.1718
  186DOPC   C2222863  -0.458   2.639  13.908 -0.2384 -0.2015 -0.1250
  186DOPC   H2R22864  -0.455   2.604  13.802 -0.1923 -1.2822  0.2225
  186DOPC   H2S22865  -0.520   2.730  13.919 -1.1408 -0.4818 -2.3665
  186DOPC    C322866  -0.110   2.924  13.784 -0.0824  0.6863  0.3164
  186DOPC    HX22867  -0.186   2.941  13.706 -1.7810  0.0894  1.7834
  186DOPC    HY22868  -0.011   2.932  13.734 -0.2505  1.2253  0.0679
  186DOPC   O3122869  -0.115   3.029  13.890 -0.1677  0.1185  0.1541
  186DOPC   C3122870  -0.167   3.154  13.855 -0.1928 -0.4010 -0.4395
  186DOPC   O3222871  -0.204   3.178  13.740  0.4481  0.4291 -0.3273
  186DOPC   C3222872  -0.175   3.250  13.974  0.1153 -0.3975 -0.7773
  186DOPC   H2X22873  -0.271   3.307  13.970  0.1065 -0.3524 -0.0231
  186DOPC   H2Y22874  -0.176   3.184  14.063 -0.7319  0.6805  0.0538
  186DOPC   C2322875  -0.506   2.517  13.986 -0.3442  0.2686  0.0614
  186DOPC   H3R22876  -0.487   2.532  14.095  0.9032 -1.6123  0.1507
  186DOPC   H3S22877  -0.449   2.427  13.955 -1.2895 -1.2019  2.2703
  186DOPC   C2422878  -0.652   2.478  13.965 -0.0072 -0.3338 -0.7061
  186DOPC   H4R22879  -0.681   2.383  14.016  0.0675 -0.8768 -1.6616
  186DOPC   H4S22880  -0.654   2.442  13.860 -0.2763 -3.8568  0.3790
  186DOPC   C2522881  -0.754   2.589  13.994 -0.1579 -0.3446 -0.5600
  186DOPC   H5R22882  -0.770   2.661  13.911 -1.5703  1.9606  1.5541
  186DOPC   H5S22883  -0.712   2.651  14.076 -0.7229 -0.7739  0.0611
  186DOPC   C2622884  -0.886   2.532  14.032  0.6282  0.0841  0.4039
  186DOPC   H6R22885  -0.855   2.464  14.114  2.1860  0.3472  0.0695
  186DOPC   H6S22886  -0.929   2.472  13.949  1.1647  1.4142 -0.8809
  186DOPC   C2722887  -0.983   2.640  14.082 -0.1144  0.5620 -0.0490
  186DOPC   H7R22888  -1.083   2.595  14.103 -0.7998  1.6438 -0.8797
  186DOPC   H7S22889  -0.995   2.703  13.992  1.5713 -1.9117 -2.1526
  186DOPC   C2822890  -0.941   2.712  14.209 -0.8549  0.8602  0.7147
  186DOPC   H8R22891  -0.839   2.755  14.196  0.1499 -1.2694  1.1481
  186DOPC   H8S22892  -0.945   2.643  14.296 -2.2061  0.0284  0.0289
  186DOPC   C2922893  -1.041   2.821  14.243 -0.2079  0.7517 -0.3740
  186DOPC   H9R22894  -1.057   2.898  14.166 -1.1508  0.7198 -0.2179
  186DOPC  C21022895  -1.117   2.832  14.352  0.0600  0.2281 -1.0917
  186DOPC  H10R22896  -1.181   2.920  14.356 -1.4072 -0.8542  0.7590
  186DOPC  C21122897  -1.125   2.763  14.486 -0.2031 -0.1211 -0.2472
  186DOPC  H11R22898  -1.131   2.653  14.477 -2.1069 -0.0324 -0.2873
  186DOPC  H11S22899  -1.227   2.787  14.521 -0.3167  1.6431 -1.6325
  186DOPC  C21222900  -1.019   2.812  14.578  0.2214  0.0658 -0.7683
  186DOPC  H12R22901  -1.028   2.920  14.602  0.3055 -0.3477  1.2641
  186DOPC  H12S22902  -0.917   2.795  14.538 -0.3073 -0.3015 -2.0230
  186DOPC  C21322903  -0.992   2.739  14.715  0.0598  0.6601 -0.3840
  186DOPC  H13R22904  -0.933   2.803  14.784  1.6535 -0.9903 -0.1133
  186DOPC  H13S22905  -0.932   2.647  14.696 -0.7360  0.0045  0.2155
  186DOPC  C21422906  -1.127   2.699  14.770  0.6724 -0.4312  0.5666
  186DOPC  H14R22907  -1.182   2.646  14.688 -2.2943  0.7544  1.6347
  186DOPC  H14S22908  -1.178   2.796  14.787  1.0345 -0.0075 -0.6348
  186DOPC  C21522909  -1.133   2.618  14.897  0.3252 -0.0746 -0.2364
  186DOPC  H15R22910  -1.057   2.648  14.972 -0.3314 -0.9093  0.7865
  186DOPC  H15S22911  -1.124   2.510  14.873 -2.5699 -0.6396  0.8747
  186DOPC  C21622912  -1.268   2.636  14.971 -0.7577 -1.0057  0.2765
  186DOPC  H16R22913  -1.351   2.645  14.897  0.4188  0.4831 -0.9310
  186DOPC  H16S22914  -1.269   2.739  15.012 -0.3512 -0.9192  0.0731
  186DOPC  C21722915  -1.313   2.512  15.061  0.7845  0.2238 -0.6934
  186DOPC  H17R22916  -1.324   2.419  15.002 -3.4193  0.6003 -0.7911
  186DOPC  H17S22917  -1.409   2.534  15.113  1.1341  1.2628 -0.4621
  186DOPC  C21822918  -1.208   2.481  15.168  0.0276 -0.1376 -0.0466
  186DOPC  H18R22919  -1.118   2.441  15.116  0.1276  1.4722 -1.2194
  186DOPC  H18S22920  -1.254   2.408  15.237 -2.4401  0.4505 -0.9738
  186DOPC  H18T22921  -1.188   2.574  15.226 -0.9947 -0.5110  0.9399
  186DOPC   C3322922  -0.060   3.346  13.971 -0.2341  0.2464 -0.6485
  186DOPC   H3X22923  -0.070   3.416  13.885 -0.7373 -0.4283 -1.1552
  186DOPC   H3Y22924   0.037   3.294  13.959 -0.8736 -1.3131  0.6699
  186DOPC   C3422925  -0.035   3.426  14.097 -0.2229 -0.3579 -0.0731
  186DOPC   H4X22926  -0.134   3.462  14.133 -0.9967 -0.8069 -1.6429
  186DOPC   H4Y22927   0.023   3.519  14.079 -0.6621 -0.1686 -0.5304
  186DOPC   C3522928   0.036   3.347  14.204 -0.5027  0.0465  0.3625
  186DOPC   H5X22929   0.141   3.319  14.182  0.5095  1.9377  2.3268
  186DOPC   H5Y22930  -0.015   3.251  14.224 -1.2719  0.0890 -1.3089
  186DOPC   C3622931   0.041   3.419  14.340 -0.2078  0.3549  0.5697
  186DOPC   H6X22932   0.062   3.524  14.310 -0.3183 -0.2387 -1.7518
  186DOPC   H6Y22933  -0.058   3.422  14.389 -1.0972  1.0359 -1.1969
  186DOPC   C3722934   0.155   3.376  14.436 -1.0021  0.2114 -0.0507
  186DOPC   H7X22935   0.148   3.267  14.456  1.6732 -0.0061  0.1809
  186DOPC   H7Y22936   0.252   3.395  14.386 -0.3254  2.3886  1.8778
  186DOPC   C3822937   0.152   3.442  14.578 -0.3730 -0.2746  0.7189
  186DOPC   H8X22938   0.176   3.549  14.561  0.9683 -0.1083  3.1665
  186DOPC   H8Y22939   0.241   3.403  14.633  0.4373  0.1223 -0.2732
  186DOPC   C3922940   0.028   3.434  14.663  0.3730  0.1416 -0.5738
  186DOPC   H9X22941   0.012   3.329  14.693  2.3446 -0.9019 -2.7981
  186DOPC  C31022942  -0.065   3.529  14.702 -0.5395  0.0636 -0.1294
  186DOPC  H10X22943  -0.165   3.503  14.741 -2.5646 -0.6423 -5.0266
  186DOPC  C31122944  -0.054   3.673  14.671 -0.1799 -0.8669 -0.2260
  186DOPC  H11X22945  -0.158   3.709  14.653 -0.5114 -1.5111  0.3419
  186DOPC  H11Y22946  -0.004   3.696  14.575 -0.4929  3.6560  0.4803
  186DOPC  C31222947   0.021   3.760  14.776  0.2808  0.3500  0.1410
  186DOPC  H12X22948   0.030   3.863  14.735 -1.0191  0.1369 -0.7332
  186DOPC  H12Y22949   0.124   3.725  14.798  0.9792  2.1114 -0.1037
  186DOPC  C31322950  -0.054   3.779  14.907 -0.1797 -0.0803  0.4669
  186DOPC  H13X22951  -0.160   3.797  14.877 -0.3492 -0.9234  0.5472
  186DOPC  H13Y22952  -0.047   3.686  14.966  1.1695 -0.3077 -0.0356
  186DOPC  C31422953   0.012   3.900  14.978 -0.3567  0.1213 -1.0786
  186DOPC  H14X22954   0.118   3.869  14.988 -0.3240  0.5062 -0.0300
  186DOPC  H14Y22955   0.006   3.998  14.925 -1.2407  0.5766 -0.1863
  186DOPC  C31522956  -0.042   3.924  15.121  0.3771 -0.1441  0.4263
  186DOPC  H15X22957  -0.028   3.825  15.170  0.5395 -1.1007 -1.4582
  186DOPC  H15Y22958  -0.150   3.953  15.118  0.3954 -0.0634  0.5483
  186DOPC  C31622959   0.038   4.032  15.210 -0.3893 -0.0086 -0.3112
  186DOPC  H16X22960   0.144   4.003  15.199 -0.5837 -0.5482 -0.8352
  186DOPC  H16Y22961   0.027   4.128  15.155 -1.0861  0.2747  0.3011
  186DOPC  C31722962  -0.012   4.037  15.355  0.7028 -0.8383  0.1667
  186DOPC  H17X22963  -0.117   4.074  15.357  1.2748  0.8946  0.4016
  186DOPC  H17Y22964  -0.020   3.930  15.384 -2.3575 -1.1247 -1.3906
  186DOPC  C31822965   0.072   4.124  15.447  0.0784  0.4652  0.7923
  186DOPC  H18X22966   0.018   4.149  15.541  0.2942  2.5592  0.4201
  186DOPC  H18Y22967   0.168   4.071  15.468 -0.5110 -2.1023 -2.2034
  186DOPC  H18Z22968   0.086   4.224  15.399 -0.3050  0.1716  0.0473
  187DOPC     N22969   5.775   2.251  13.310  0.4977  0.5426  0.5165
  187DOPC   C1222970   5.877   2.146  13.361  0.8018 -0.8783 -0.2781
  187DOPC  H12A22971   5.871   2.055  13.304 -0.7052 -0.7746 -0.3224
  187DOPC  H12B22972   5.850   2.120  13.462  0.7078  0.0288 -0.0558
  187DOPC   C1322973   5.818   2.311  13.180 -0.2548 -1.0071 -0.0210
  187DOPC  H13A22974   5.864   2.234  13.121 -0.6100 -0.9949 -0.3118
  187DOPC  H13B22975   5.740   2.363  13.126  1.6746  3.1965  0.7814
  187DOPC  H13C22976   5.890   2.392  13.185 -0.6816 -0.4477 -2.0473
  187DOPC   C1422977   5.773   2.363  13.412 -0.3932 -0.4102 -0.0029
  187DOPC  H14A22978   5.738   2.316  13.503  1.7054 -0.9126  0.5989
  187DOPC  H14B22979   5.874   2.392  13.438 -0.8898  1.4792  0.0134
  187DOPC  H14C22980   5.712   2.448  13.384 -1.1669 -0.5460  1.1781
  187DOPC   C1522981   5.639   2.197  13.288  0.0393  0.0341  0.2373
  187DOPC  H15A22982   5.612   2.148  13.380  0.2187  0.1508  0.3517
  187DOPC  H15B22983   5.644   2.134  13.200  1.3164  1.4825 -0.7863
  187DOPC  H15C22984   5.570   2.279  13.278  0.2079  0.5598  2.7414
  187DOPC   C1122985   6.029   2.184  13.377 -0.3098 -0.5270  0.2996
  187DOPC  H11A22986   6.083   2.096  13.417  1.8026  0.1450 -0.9205
  187DOPC  H11B22987   6.080   2.211  13.282  0.9207 -0.8217  0.8615
  187DOPC     P22988   6.139   2.290  13.588 -0.3204  0.5902 -0.1885
  187DOPC   O1322989   6.097   2.388  13.694  0.2406 -0.3630  0.3251
  187DOPC   O1422990   6.278   2.292  13.541 -0.3307 -0.2486  0.0416
  187DOPC   O1222991   6.048   2.303  13.463  0.0635 -1.0799  0.2192
  187DOPC   O1122992   6.113   2.147  13.650  0.0692  0.1070  0.1581
  187DOPC    C122993   5.990   2.099  13.704 -0.3980  0.0837 -0.2535
  187DOPC    HA22994   5.975   1.995  13.670 -0.9017 -0.3492  1.2202
  187DOPC    HB22995   5.909   2.164  13.664 -0.3600 -1.3489 -2.8082
  187DOPC    C222996   5.994   2.082  13.862 -0.1660  0.5393  0.4428
  187DOPC    HS22997   5.897   2.038  13.894  0.1565  0.3664  1.2097
  187DOPC   O2122998   6.029   2.206  13.918  0.0373  0.2528  0.0749
  187DOPC   C2122999   5.934   2.295  13.926 -0.7549  0.1191  0.4886
  187DOPC   O2223000   5.822   2.274  13.885  0.0966 -0.4241  0.6374
  187DOPC   C2223001   5.970   2.430  13.990 -0.6825 -0.0734 -0.0934
  187DOPC   H2R23002   5.961   2.508  13.912  0.3596  1.1453  0.9599
  187DOPC   H2S23003   6.079   2.431  14.008 -0.6401  2.9964 -0.1536
  187DOPC    C323004   6.098   1.978  13.915 -0.4692  0.1683  0.2028
  187DOPC    HX23005   6.200   2.021  13.900 -0.3766  0.8421  2.4407
  187DOPC    HY23006   6.087   1.878  13.868 -0.7475 -0.4852  1.6084
  187DOPC   O3123007   6.081   1.974  14.059 -0.0366  0.2193 -0.2016
  187DOPC   C3123008   5.996   1.883  14.099  1.1725  1.1548 -1.0881
  187DOPC   O3223009   5.941   1.800  14.027  0.0569  0.0456 -0.3954
  187DOPC   C3223010   5.983   1.897  14.248 -0.1125  0.3120 -0.4017
  187DOPC   H2X23011   5.928   1.989  14.278 -1.0046 -0.2207 -0.3451
  187DOPC   H2Y23012   5.925   1.804  14.270 -1.7274  1.3105 -0.2880
  187DOPC   C2323013   5.884   2.458  14.119 -0.3104 -0.3370  0.2685
  187DOPC   H3R23014   5.776   2.441  14.100 -0.3609  1.0543 -0.8245
  187DOPC   H3S23015   5.892   2.565  14.147 -2.7962 -0.5106  1.9489
  187DOPC   C2423016   5.932   2.385  14.247  0.2802  0.5500 -0.5343
  187DOPC   H4R23017   6.023   2.432  14.289  0.1709  0.4728 -0.2109
  187DOPC   H4S23018   5.955   2.283  14.208 -1.3994  1.4572 -4.3528
  187DOPC   C2523019   5.832   2.394  14.351 -0.0550  0.3816  1.0444
  187DOPC   H5R23020   5.732   2.364  14.313  0.0050  0.4331  0.8405
  187DOPC   H5S23021   5.833   2.500  14.384  0.5825  0.6459  0.2222
  187DOPC   C2623022   5.870   2.303  14.469 -0.0885 -0.2365 -0.1885
  187DOPC   H6R23023   5.881   2.201  14.425 -1.9773 -0.2702 -0.7144
  187DOPC   H6S23024   5.781   2.311  14.535 -1.6489 -1.5551 -2.0197
  187DOPC   C2723025   5.996   2.343  14.546  0.2963 -0.5434 -0.4173
  187DOPC   H7R23026   5.973   2.448  14.577  0.5950 -0.7736  0.6284
  187DOPC   H7S23027   6.083   2.343  14.477  1.0918 -0.6135  0.5480
  187DOPC   C2823028   6.037   2.262  14.669  0.0668  0.2252  0.6198
  187DOPC   H8R23029   6.073   2.163  14.633  0.4690  0.6611 -0.2111
  187DOPC   H8S23030   5.957   2.254  14.745 -0.1508  2.1223  0.6370
  187DOPC   C2923031   6.147   2.341  14.734  0.3436 -0.2248 -0.5406
  187DOPC   H9R23032   6.125   2.448  14.748  1.0649 -0.2562  1.0717
  187DOPC  C21023033   6.270   2.301  14.768 -0.4775  0.4266 -0.1424
  187DOPC  H10R23034   6.334   2.367  14.829  0.2325 -0.3650 -0.0240
  187DOPC  C21123035   6.336   2.168  14.741  0.6099 -0.6819  0.9019
  187DOPC  H11R23036   6.443   2.181  14.713 -0.7090  1.6008 -4.3607
  187DOPC  H11S23037   6.295   2.124  14.647  2.1702  1.3939 -0.8612
  187DOPC  C21223038   6.307   2.060  14.849  0.1792  0.0838  0.2563
  187DOPC  H12R23039   6.362   1.974  14.805  0.6580  1.0991 -1.2197
  187DOPC  H12S23040   6.200   2.031  14.847  0.2415 -0.1315 -1.3167
  187DOPC  C21323041   6.364   2.080  14.988  0.1175 -0.1468  0.2737
  187DOPC  H13R23042   6.302   2.155  15.041  1.3050  0.9483  0.1645
  187DOPC  H13S23043   6.459   2.137  14.988 -0.5392  1.2127  3.3965
  187DOPC  C21423044   6.362   1.947  15.060  0.3388 -0.6377  0.6166
  187DOPC  H14R23045   6.401   1.861  15.002  2.3184  1.2382 -0.9839
  187DOPC  H14S23046   6.257   1.912  15.064  0.2692 -0.8107 -1.7159
  187DOPC  C21523047   6.428   1.948  15.194  0.4561  0.3494 -0.0157
  187DOPC  H15R23048   6.362   2.013  15.256 -0.3683  2.5599 -2.9448
  187DOPC  H15S23049   6.531   1.987  15.179  0.7786 -1.0503 -1.8179
  187DOPC  C21623050   6.428   1.816  15.268  0.4405 -0.6916 -0.5697
  187DOPC  H16R23051   6.484   1.835  15.362 -0.0775  1.1186 -0.5918
  187DOPC  H16S23052   6.488   1.744  15.209  1.8845 -0.7875  0.9339
  187DOPC  C21723053   6.288   1.748  15.313 -0.3325  0.1209 -0.0446
  187DOPC  H17R23054   6.313   1.645  15.345 -0.7766  0.4626  1.5111
  187DOPC  H17S23055   6.218   1.743  15.227  1.8397 -0.9233 -1.8827
  187DOPC  C21823056   6.230   1.827  15.431 -0.2511  0.6501 -0.4641
  187DOPC  H18R23057   6.315   1.833  15.502  0.5861 -0.7080 -1.2886
  187DOPC  H18S23058   6.137   1.793  15.480  0.6093  1.8573  2.2057
  187DOPC  H18T23059   6.208   1.931  15.400  1.0397  1.2328  0.5104
  187DOPC   C3323060   6.119   1.896  14.328 -0.3587 -0.7510  0.6310
  187DOPC   H3X23061   6.181   1.977  14.285 -0.4434 -0.2046  1.5164
  187DOPC   H3Y23062   6.162   1.796  14.306 -2.2037 -1.4320 -0.1403
  187DOPC   C3423063   6.105   1.897  14.475  0.0292  0.7459 -0.3637
  187DOPC   H4X23064   6.072   2.000  14.503 -0.8970  0.6264 -0.9619
  187DOPC   H4Y23065   6.202   1.878  14.524 -0.4176  2.3303  1.2880
  187DOPC   C3523066   6.008   1.797  14.555 -0.0010  0.8005 -0.5964
  187DOPC   H5X23067   6.049   1.698  14.525 -0.1464  1.7005 -4.3748
  187DOPC   H5Y23068   5.901   1.794  14.525 -1.0808  2.1660  2.7718
  187DOPC   C3623069   6.019   1.825  14.711  1.0535 -0.4212  0.0067
  187DOPC   H6X23070   6.127   1.839  14.733  0.8188  3.2737 -0.5956
  187DOPC   H6Y23071   5.965   1.917  14.740 -0.5502 -1.6731  1.1897
  187DOPC   C3723072   5.961   1.711  14.799 -0.3162  0.0530 -0.7936
  187DOPC   H7X23073   5.857   1.687  14.768 -1.1611  2.0401  0.3400
  187DOPC   H7Y23074   6.030   1.626  14.780  0.4195  0.5163 -0.2258
  187DOPC   C3823075   5.955   1.746  14.951 -0.0666  0.2966 -0.4685
  187DOPC   H8X23076   6.054   1.794  14.966  0.1835 -0.0830 -0.8657
  187DOPC   H8Y23077   5.955   1.646  14.999 -2.1932  0.0568 -0.8407
  187DOPC   C3923078   5.834   1.819  15.000  0.4079  0.5406  0.3824
  187DOPC   H9X23079   5.745   1.754  14.994  1.4736 -0.9681  0.1520
  187DOPC  C31023080   5.821   1.938  15.055  0.0837 -0.6243 -0.5988
  187DOPC  H10X23081   5.723   1.975  15.087 -0.6092 -0.1516 -3.0947
  187DOPC  C31123082   5.943   2.031  15.082  1.1175 -0.1492  0.4277
  187DOPC  H11X23083   5.937   2.123  15.020  3.7902 -0.5948 -0.6212
  187DOPC  H11Y23084   6.045   1.996  15.058  0.6413 -1.6771  0.5672
  187DOPC  C31223085   5.965   2.062  15.229 -0.1625 -0.3465 -0.8699
  187DOPC  H12X23086   5.996   1.972  15.286 -3.1464 -0.9728 -0.0348
  187DOPC  H12Y23087   5.869   2.090  15.277 -0.8590 -1.9364 -1.2644
  187DOPC  C31323088   6.076   2.166  15.236 -0.0630 -0.1993 -1.1799
  187DOPC  H13X23089   6.172   2.113  15.216  0.7688  1.0699 -0.6652
  187DOPC  H13Y23090   6.062   2.241  15.155  0.5648  2.1129  0.7343
  187DOPC  C31423091   6.090   2.243  15.366 -0.9833  0.0767 -0.5855
  187DOPC  H14X23092   5.997   2.297  15.392 -0.7035  0.4527 -0.3561
  187DOPC  H14Y23093   6.119   2.177  15.450  1.1657 -0.6162 -1.7917
  187DOPC  C31523094   6.198   2.359  15.365  0.0250  0.2286 -0.1053
  187DOPC  H15X23095   6.188   2.421  15.274 -0.4439 -2.1530 -1.7963
  187DOPC  H15Y23096   6.298   2.311  15.354  0.5722  0.3250  3.5084
  187DOPC  C31623097   6.205   2.430  15.500  0.0575 -0.7726  0.0323
  187DOPC  H16X23098   6.121   2.501  15.504  0.2933 -0.4729 -0.2710
  187DOPC  H16Y23099   6.196   2.360  15.586  0.4178 -2.0737 -0.9463
  187DOPC  C31723100   6.339   2.513  15.515 -0.1049 -0.6276 -0.6480
  187DOPC  H17X23101   6.423   2.441  15.511  1.8781  1.5828 -1.2175
  187DOPC  H17Y23102   6.346   2.574  15.422  0.3818  0.3035 -0.0168
  187DOPC  C31823103   6.354   2.613  15.637  0.2152 -0.0134  0.1066
  187DOPC  H18X23104   6.455   2.642  15.673 -0.8813  0.9393  2.5851
  187DOPC  H18Y23105   6.301   2.710  15.630  0.9686  0.3880 -0.1636
  187DOPC  H18Z23106   6.318   2.558  15.726 -0.1784  0.8702  0.5075
  188DOPC     N23107   2.284   2.047  13.321 -0.0131  0.0968  0.6960
  188DOPC   C1223108   2.240   2.101  13.453 -0.8004 -0.2690  0.9060
  188DOPC  H12A23109   2.220   2.019  13.520 -0.4264 -0.7930  0.3939
  188DOPC  H12B23110   2.145   2.150  13.441 -0.4113  0.5573  1.1531
  188DOPC   C1323111   2.294   2.158  13.218  0.3689  0.6729 -0.3578
  188DOPC  H13A23112   2.200   2.212  13.223  1.3420  2.3371  2.1938
  188DOPC  H13B23113   2.377   2.222  13.246  1.0910 -1.4402  2.9062
  188DOPC  H13C23114   2.301   2.118  13.118 -1.1346 -0.9290  0.1375
  188DOPC   C1423115   2.184   1.953  13.269  0.5731 -0.5196  0.9686
  188DOPC  H14A23116   2.221   1.885  13.194  1.2076 -0.3330  1.1097
  188DOPC  H14B23117   2.139   1.893  13.347  1.0275 -1.4841  0.5057
  188DOPC  H14C23118   2.110   2.006  13.212  1.0820  0.9761  1.6504
  188DOPC   C1523119   2.418   1.980  13.331 -0.5258 -0.2944  0.4104
  188DOPC  H15A23120   2.496   2.045  13.367  0.3339 -0.7019 -0.6659
  188DOPC  H15B23121   2.454   1.944  13.236  0.9606  0.9787  0.4554
  188DOPC  H15C23122   2.414   1.904  13.408 -0.6206  0.8408  1.5510
  188DOPC   C1123123   2.337   2.184  13.539  0.1700  0.5288  0.4395
  188DOPC  H11A23124   2.291   2.218  13.634  0.0357  2.2099 -0.1812
  188DOPC  H11B23125   2.408   2.103  13.563  0.5815  0.2620 -1.5439
  188DOPC     P23126   2.350   2.437  13.467  0.2067  0.0069  0.4556
  188DOPC   O1323127   2.217   2.431  13.400  0.1871  0.3151  0.1807
  188DOPC   O1423128   2.451   2.530  13.412 -0.1112  0.1462  0.9965
  188DOPC   O1223129   2.403   2.293  13.464 -0.1538  0.1449 -0.6587
  188DOPC   O1123130   2.325   2.448  13.620  0.1201 -0.2055  0.1474
  188DOPC    C123131   2.435   2.464  13.707  0.3620  0.6193 -0.8099
  188DOPC    HA23132   2.479   2.564  13.689  1.0389  0.3504 -0.6615
  188DOPC    HB23133   2.517   2.392  13.685 -0.3258 -0.0178 -1.3755
  188DOPC    C223134   2.371   2.453  13.847  0.4397  0.2468  0.1055
  188DOPC    HS23135   2.306   2.542  13.864 -0.5142  0.7002 -4.6319
  188DOPC   O2123136   2.481   2.457  13.941 -0.3127  0.1394 -0.5825
  188DOPC   C2123137   2.527   2.576  13.968 -0.2546 -1.4556 -0.7170
  188DOPC   O2223138   2.495   2.680  13.919  0.3113 -0.4017  0.3558
  188DOPC   C2223139   2.637   2.560  14.066 -0.1265 -0.2611 -0.2406
  188DOPC   H2R23140   2.663   2.660  14.107  0.6010 -0.4002 -0.3401
  188DOPC   H2S23141   2.727   2.516  14.018 -1.2597 -1.8704 -0.9889
  188DOPC    C323142   2.285   2.328  13.876  0.0519 -0.3034  0.1681
  188DOPC    HX23143   2.353   2.240  13.872 -0.6130 -0.8635  1.0196
  188DOPC    HY23144   2.210   2.319  13.794  0.7857  2.2058 -0.9040
  188DOPC   O3123145   2.221   2.337  14.007  0.1568  0.4350  0.1223
  188DOPC   C3123146   2.184   2.220  14.057  0.2382  0.5649  0.0869
  188DOPC   O3223147   2.194   2.110  14.000 -0.3233 -0.0050  0.1378
  188DOPC   C3223148   2.110   2.248  14.183  0.0022  0.1712 -1.0850
  188DOPC   H2X23149   2.167   2.312  14.253 -0.5482 -2.1043  1.6326
  188DOPC   H2Y23150   2.014   2.301  14.165 -1.3434 -1.1697  1.5851
  188DOPC   C2323151   2.602   2.460  14.186  0.9146 -0.0298  0.3831
  188DOPC   H3R23152   2.696   2.441  14.242 -0.7289  0.2586  3.4296
  188DOPC   H3S23153   2.562   2.364  14.147 -0.2100  0.4669  0.2720
  188DOPC   C2423154   2.511   2.523  14.292 -0.0051  0.6950 -0.0623
  188DOPC   H4R23155   2.491   2.451  14.375 -1.9938  0.3365 -0.8007
  188DOPC   H4S23156   2.413   2.552  14.250  0.7021  2.8583 -0.3198
  188DOPC   C2523157   2.577   2.650  14.349  0.8234 -0.1784 -0.1765
  188DOPC   H5R23158   2.582   2.737  14.279 -2.2134 -0.0395 -0.3642
  188DOPC   H5S23159   2.682   2.620  14.367  0.3337 -1.1120  1.2434
  188DOPC   C2623160   2.501   2.689  14.473  0.1927 -0.6365 -0.2623
  188DOPC   H6R23161   2.503   2.599  14.538  1.7226 -0.0017  0.6191
  188DOPC   H6S23162   2.395   2.705  14.442 -0.1381  0.2897  1.2524
  188DOPC   C2723163   2.549   2.821  14.531 -0.5173 -0.3692  0.1431
  188DOPC   H7R23164   2.524   2.895  14.452  3.3427 -1.5529 -2.5172
  188DOPC   H7S23165   2.659   2.830  14.542 -0.5889  0.9938 -0.0475
  188DOPC   C2823166   2.484   2.850  14.667 -0.1771 -0.2079 -0.5093
  188DOPC   H8R23167   2.535   2.790  14.745  0.3423 -0.8672 -1.3309
  188DOPC   H8S23168   2.376   2.826  14.669 -0.7335  2.1297  1.2432
  188DOPC   C2923169   2.500   2.994  14.714 -0.7939 -0.6315  0.9756
  188DOPC   H9R23170   2.447   3.066  14.651 -0.1769 -0.8470  0.2019
  188DOPC  C21023171   2.588   3.048  14.801  0.0633 -0.3414  0.0693
  188DOPC  H10R23172   2.595   3.156  14.824 -0.7218 -0.5892  1.6276
  188DOPC  C21123173   2.690   2.962  14.873 -0.1097  0.3841  0.3361
  188DOPC  H11R23174   2.786   3.018  14.874 -1.2611  2.4418  0.3125
  188DOPC  H11S23175   2.715   2.863  14.829 -3.3410  0.1219 -1.1920
  188DOPC  C21223176   2.661   2.959  15.029 -0.1854 -0.1921 -0.2484
  188DOPC  H12R23177   2.574   2.897  15.059  0.0826 -0.5782 -0.2622
  188DOPC  H12S23178   2.607   3.051  15.058 -0.0104 -0.6018  1.4880
  188DOPC  C21323179   2.767   2.905  15.117  0.0825  0.1068 -0.0459
  188DOPC  H13R23180   2.861   2.960  15.101  1.8259 -3.0775 -1.8598
  188DOPC  H13S23181   2.780   2.800  15.081  1.8462  0.3261 -0.0925
  188DOPC  C21423182   2.740   2.913  15.266  0.1052 -0.3656 -0.5216
  188DOPC  H14R23183   2.647   2.860  15.295 -1.2505  1.4487 -1.3043
  188DOPC  H14S23184   2.713   3.017  15.295  1.4310 -0.4239  1.0608
  188DOPC  C21523185   2.868   2.879  15.353 -0.0809 -0.4979  0.5469
  188DOPC  H15R23186   2.943   2.960  15.342 -1.7460  1.0273 -0.2129
  188DOPC  H15S23187   2.908   2.789  15.302 -2.4681 -0.7797 -0.9963
  188DOPC  C21623188   2.844   2.854  15.499  0.0700  0.3063 -1.0555
  188DOPC  H16R23189   2.781   2.764  15.513 -1.7101  1.7074  0.5954
  188DOPC  H16S23190   2.784   2.937  15.544 -1.2852 -0.7881 -0.7521
  188DOPC  C21723191   2.986   2.849  15.562 -0.3006 -0.1285  0.0758
  188DOPC  H17R23192   2.974   2.859  15.672  0.1156 -0.9316  0.2068
  188DOPC  H17S23193   3.037   2.943  15.532  1.0794 -0.3036  1.6899
  188DOPC  C21823194   3.080   2.737  15.524 -0.2081  0.2725  0.0899
  188DOPC  H18R23195   3.049   2.645  15.577  0.0772  0.4707  0.6026
  188DOPC  H18S23196   3.186   2.765  15.542 -0.3919  1.8488 -0.9890
  188DOPC  H18T23197   3.072   2.725  15.414 -0.7780 -0.3719  0.1994
  188DOPC   C3323198   2.092   2.115  14.265  0.1487  1.4044 -0.2678
  188DOPC   H3X23199   2.191   2.065  14.275  0.1677  1.7029  1.2303
  188DOPC   H3Y23200   2.024   2.050  14.205 -0.3153  0.3630  1.3102
  188DOPC   C3423201   2.027   2.135  14.406 -0.5479 -0.3764  0.2605
  188DOPC   H4X23202   1.990   2.034  14.434  1.0754 -0.3682  2.7909
  188DOPC   H4Y23203   1.942   2.206  14.404  0.9645  1.5062 -0.2539
  188DOPC   C3523204   2.124   2.171  14.512  0.1947 -0.1696  0.1158
  188DOPC   H5X23205   2.164   2.272  14.488  0.7341  0.0286  1.7197
  188DOPC   H5Y23206   2.209   2.100  14.503 -0.8188 -1.3428 -0.5578
  188DOPC   C3623207   2.081   2.177  14.658  0.3303  0.4110  0.7056
  188DOPC   H6X23208   2.049   2.076  14.689  0.0994 -0.4373 -2.0644
  188DOPC   H6Y23209   2.173   2.199  14.716  0.6113 -0.6214  0.6596
  188DOPC   C3723210   1.966   2.284  14.683 -0.0440 -0.4880 -0.2520
  188DOPC   H7X23211   2.012   2.383  14.665  0.2935 -0.3184  1.4090
  188DOPC   H7Y23212   1.885   2.256  14.612 -0.2352 -0.2481 -0.1273
  188DOPC   C3823213   1.913   2.293  14.830 -0.0417 -0.1662 -0.7186
  188DOPC   H8X23214   1.859   2.201  14.858 -0.7451  0.5262  0.2794
  188DOPC   H8Y23215   1.841   2.377  14.832  0.4541  0.3146  2.4797
  188DOPC   C3923216   2.028   2.314  14.927 -0.0031 -0.0769  0.5885
  188DOPC   H9X23217   2.054   2.419  14.943 -1.4927  0.2169  1.2535
  188DOPC  C31023218   2.083   2.219  15.012  0.7142 -0.2976  0.1456
  188DOPC  H10X23219   2.166   2.250  15.078 -1.0219 -0.7347  2.6964
  188DOPC  C31123220   2.036   2.073  15.018 -0.2121 -0.1816  0.5219
  188DOPC  H11X23221   2.130   2.015  15.005  0.6969  0.8350  2.1571
  188DOPC  H11Y23222   1.967   2.042  14.937 -0.0265  0.0383  0.2766
  188DOPC  C31223223   1.966   2.030  15.147  0.9513 -0.2680 -0.7568
  188DOPC  H12X23224   1.953   1.920  15.142  0.4817 -0.4036  2.0350
  188DOPC  H12Y23225   1.860   2.063  15.147  1.4971  1.5885 -0.5608
  188DOPC  C31323226   2.040   2.078  15.277  0.8769 -0.2826 -0.0627
  188DOPC  H13X23227   2.147   2.047  15.267  1.2556  1.7072 -3.6105
  188DOPC  H13Y23228   2.046   2.189  15.281  1.2519 -0.2658 -0.8364
  188DOPC  C31423229   1.960   2.027  15.398  0.5673 -0.1151  0.7079
  188DOPC  H14X23230   1.870   2.092  15.407  1.7888  1.7747  0.0267
  188DOPC  H14Y23231   1.954   1.916  15.393  2.3532 -0.1940 -3.2800
  188DOPC  C31523232   2.038   2.062  15.524 -0.3519 -0.4637  0.1464
  188DOPC  H15X23233   2.043   2.172  15.536  1.6797 -0.7313  3.1292
  188DOPC  H15Y23234   2.144   2.031  15.511  0.7275  2.7887  0.2800
  188DOPC  C31623235   1.987   1.987  15.643  0.3070 -0.0022  0.6998
  188DOPC  H16X23236   1.995   1.878  15.625 -1.5417 -0.2701  1.2775
  188DOPC  H16Y23237   2.036   2.015  15.739 -3.0578  1.6180  2.1413
  188DOPC  C31723238   1.834   2.001  15.672 -0.9625 -0.0486 -0.4047
  188DOPC  H17X23239   1.788   1.973  15.575  2.3411 -0.8270 -1.8856
  188DOPC  H17Y23240   1.815   1.923  15.749  0.8013 -0.8352 -0.7340
  188DOPC  C31823241   1.776   2.139  15.699  0.1464 -0.3299  0.4205
  188DOPC  H18X23242   1.793   2.208  15.614  2.0845 -0.9600  0.2501
  188DOPC  H18Y23243   1.667   2.125  15.713  0.0321  0.0699 -0.0141
  188DOPC  H18Z23244   1.821   2.186  15.789 -0.1291 -1.1800  1.0109
  189DOPC     N23245   4.269   0.313  12.900 -0.0388 -0.8210  0.3579
  189DOPC   C1223246   4.358   0.314  13.022  0.0070  0.6493  0.1650
  189DOPC  H12A23247   4.448   0.372  13.006  1.3161 -1.2237  0.4207
  189DOPC  H12B23248   4.387   0.214  13.052 -1.8216 -0.3605 -1.2603
  189DOPC   C1323249   4.208   0.449  12.883 -0.6018  0.0319 -0.4047
  189DOPC  H13A23250   4.138   0.479  12.960  0.7236 -0.4633  1.0669
  189DOPC  H13B23251   4.284   0.525  12.884  0.1391 -0.6378  1.7717
  189DOPC  H13C23252   4.169   0.454  12.783  0.2687 -1.0873 -0.8214
  189DOPC   C1423253   4.158   0.214  12.916 -0.1890 -0.2465 -0.2790
  189DOPC  H14A23254   4.108   0.246  13.007 -3.2700  0.0802 -1.9276
  189DOPC  H14B23255   4.077   0.216  12.844 -1.2022 -2.6935  0.6958
  189DOPC  H14C23256   4.194   0.113  12.914  0.2297 -0.1421 -3.5357
  189DOPC   C1523257   4.350   0.283  12.779  0.5475 -0.0508 -0.2661
  189DOPC  H15A23258   4.289   0.292  12.690 -0.0489 -2.8776 -0.2287
  189DOPC  H15B23259   4.402   0.189  12.789 -0.2922 -0.6833 -1.5499
  189DOPC  H15C23260   4.438   0.346  12.773  0.7372 -0.0008  2.0698
  189DOPC   C1123261   4.289   0.369  13.154 -1.1961  0.0848 -0.2630
  189DOPC  H11A23262   4.363   0.349  13.235 -1.7752  0.9361  0.4982
  189DOPC  H11B23263   4.278   0.480  13.148  0.1990  0.2714  0.2007
  189DOPC     P23264   4.159   0.167  13.260  0.1151 -0.5997 -0.1483
  189DOPC   O1323265   4.279   0.088  13.238  0.5669  0.5255  0.1374
  189DOPC   O1423266   4.024   0.104  13.228 -0.1088  0.0481  0.1109
  189DOPC   O1223267   4.168   0.301  13.179 -0.5601 -0.0553  0.0889
  189DOPC   O1123268   4.159   0.219  13.412  1.0811 -0.5971  0.2636
  189DOPC    C123269   4.066   0.317  13.449  0.4512 -0.5240 -0.1601
  189DOPC    HA23270   3.960   0.287  13.443 -0.9385  2.9018  3.2130
  189DOPC    HB23271   4.074   0.411  13.390  3.7587 -1.6812 -1.8719
  189DOPC    C223272   4.077   0.358  13.600  0.8361  0.7399 -0.0230
  189DOPC    HS23273   4.182   0.393  13.615  1.5972 -0.7649 -1.4460
  189DOPC   O2123274   4.046   0.254  13.688  0.6354 -0.2043 -0.9088
  189DOPC   C2123275   4.107   0.254  13.802  0.2896 -0.2365  0.0304
  189DOPC   O2223276   4.203   0.321  13.845  0.4216  0.2869  0.5606
  189DOPC   C2223277   4.031   0.153  13.893  0.1989  0.2683  0.7808
  189DOPC   H2R23278   4.025   0.057  13.838  1.1805  0.2420  0.7103
  189DOPC   H2S23279   3.925   0.184  13.898 -0.8232 -2.0967 -2.4306
  189DOPC    C323280   3.976   0.470  13.631 -0.9284  0.0299 -0.0874
  189DOPC    HX23281   3.878   0.451  13.583 -1.0335  1.9643 -0.7015
  189DOPC    HY23282   4.015   0.563  13.584  0.7087 -0.6610 -0.1614
  189DOPC   O3123283   3.940   0.479  13.770 -0.1842 -0.3694 -0.2084
  189DOPC   C3123284   3.970   0.596  13.824 -0.6680  0.0969  0.8412
  189DOPC   O3223285   4.038   0.679  13.767 -0.4921  0.0713  1.3846
  189DOPC   C3223286   3.894   0.612  13.952 -0.2075  0.0673  0.4266
  189DOPC   H2X23287   3.794   0.576  13.920  0.9938 -2.1815 -1.0303
  189DOPC   H2Y23288   3.937   0.539  14.025  3.1779  2.4026  1.0094
  189DOPC   C2323289   4.078   0.139  14.041 -0.5384 -0.0332  0.8824
  189DOPC   H3R23290   4.063   0.239  14.088 -0.4510  0.2726  0.2733
  189DOPC   H3S23291   4.188   0.125  14.047 -0.7725 -1.4223  2.9330
  189DOPC   C2423292   4.009   0.022  14.113  0.1236 -0.0544  0.5879
  189DOPC   H4R23293   4.047  -0.066  14.057  1.4483  0.9603 -0.1967
  189DOPC   H4S23294   3.899   0.040  14.107 -0.3650 -1.8714  2.9664
  189DOPC   C2523295   4.043   0.016  14.264  0.0359 -0.3646 -0.7080
  189DOPC   H5R23296   3.989   0.106  14.301 -5.3704 -3.7228  0.7029
  189DOPC   H5S23297   4.154   0.022  14.271  0.0162 -1.4130  3.3048
  189DOPC   C2623298   3.977  -0.093  14.348 -0.5893 -0.5035  0.8106
  189DOPC   H6R23299   3.997  -0.063  14.453 -1.2093 -0.5146  0.9339
  189DOPC   H6S23300   4.023  -0.194  14.338  1.0080  0.1801  0.8319
  189DOPC   C2723301   3.822  -0.108  14.326  0.3267 -0.1565 -0.4980
  189DOPC   H7R23302   3.779  -0.162  14.239 -0.9767  0.9016 -0.5446
  189DOPC   H7S23303   3.769  -0.010  14.317 -0.5547 -0.4099  1.4751
  189DOPC   C2823304   3.752  -0.181  14.454 -0.3269  0.6726  0.1756
  189DOPC   H8R23305   3.796  -0.123  14.538 -0.4860  1.6197 -0.3792
  189DOPC   H8S23306   3.785  -0.287  14.456  0.7961  0.9943 -0.1405
  189DOPC   C2923307   3.606  -0.163  14.463  0.5256  0.0076 -0.4340
  189DOPC   H9R23308   3.566  -0.078  14.406  0.0636  1.5824  2.0356
  189DOPC  C21023309   3.522  -0.244  14.537 -0.3521 -0.3651 -0.0449
  189DOPC  H10R23310   3.414  -0.225  14.538 -0.5090 -1.1618 -0.6595
  189DOPC  C21123311   3.573  -0.362  14.613 -0.3204  0.4046 -0.0131
  189DOPC  H11R23312   3.680  -0.346  14.637 -0.2704 -0.5290  0.4603
  189DOPC  H11S23313   3.574  -0.451  14.546 -1.2583  0.8272 -0.6178
  189DOPC  C21223314   3.496  -0.390  14.747 -0.0802 -0.0245  0.2862
  189DOPC  H12R23315   3.517  -0.493  14.783  0.7254 -0.1405 -0.4757
  189DOPC  H12S23316   3.388  -0.384  14.720  0.3520 -1.1240 -1.8879
  189DOPC  C21323317   3.519  -0.282  14.855 -0.6512 -0.2067 -0.0645
  189DOPC  H13R23318   3.470  -0.324  14.946  1.4753 -1.6180  0.4996
  189DOPC  H13S23319   3.477  -0.180  14.842  4.0106  1.6316 -3.0712
  189DOPC  C21423320   3.675  -0.267  14.874  0.1480  0.4998 -1.1624
  189DOPC  H14R23321   3.710  -0.183  14.810  0.0347 -0.3647 -2.3979
  189DOPC  H14S23322   3.717  -0.366  14.848 -1.0132 -0.0283 -1.0862
  189DOPC  C21523323   3.710  -0.227  15.019  0.2140 -0.7511 -0.4294
  189DOPC  H15R23324   3.820  -0.225  15.034  0.4887 -1.0236 -2.2226
  189DOPC  H15S23325   3.693  -0.307  15.094  1.0795 -0.4239  0.1356
  189DOPC  C21623326   3.648  -0.096  15.071  0.2255 -0.6378 -0.3352
  189DOPC  H16R23327   3.537  -0.103  15.068  0.2885 -1.4787 -2.4165
  189DOPC  H16S23328   3.670  -0.018  14.995 -1.8365 -1.0320 -1.4103
  189DOPC  C21723329   3.716  -0.038  15.197  0.3130 -0.1617  0.0878
  189DOPC  H17R23330   3.689   0.069  15.214  0.3346 -0.3504  1.4143
  189DOPC  H17S23331   3.824  -0.053  15.172  0.2601 -1.9737  0.8434
  189DOPC  C21823332   3.685  -0.120  15.324 -0.3830  0.1751  0.2701
  189DOPC  H18R23333   3.735  -0.219  15.325 -0.2520  0.2086 -1.0726
  189DOPC  H18S23334   3.575  -0.136  15.326 -0.8100  2.7386  0.6722
  189DOPC  H18T23335   3.713  -0.064  15.416  1.6744 -0.6707  0.2177
  189DOPC   C3323336   3.913   0.752  14.000  0.4318  0.2653 -0.5849
  189DOPC   H3X23337   3.864   0.829  13.937  0.1506  1.5195  1.1173
  189DOPC   H3Y23338   4.021   0.778  14.001  0.1630  1.4321  0.3774
  189DOPC   C3423339   3.858   0.786  14.140 -0.0200 -0.2493 -0.6213
  189DOPC   H4X23340   3.891   0.889  14.168 -0.7063 -0.5311  1.4235
  189DOPC   H4Y23341   3.912   0.719  14.211 -1.0324  1.3755  1.7968
  189DOPC   C3523342   3.710   0.769  14.145  0.3141  0.0721 -0.6909
  189DOPC   H5X23343   3.696   0.670  14.095  1.2027 -0.0834 -0.6417
  189DOPC   H5Y23344   3.643   0.834  14.084 -2.1707 -0.4974  1.2619
  189DOPC   C3623345   3.655   0.761  14.291  0.0573  0.1633  0.1181
  189DOPC   H6X23346   3.560   0.704  14.282  0.3123 -0.4019  0.8939
  189DOPC   H6Y23347   3.731   0.706  14.351 -0.1745 -1.7930 -1.2985
  189DOPC   C3723348   3.630   0.890  14.365 -0.2414 -0.4869 -0.1645
  189DOPC   H7X23349   3.716   0.951  14.396  0.0552 -1.0991  0.2408
  189DOPC   H7Y23350   3.558   0.950  14.306 -2.3684 -1.7970  0.9472
  189DOPC   C3823351   3.551   0.876  14.499  0.5112 -0.0705 -1.0930
  189DOPC   H8X23352   3.452   0.839  14.465  0.7824 -0.5095 -1.4293
  189DOPC   H8Y23353   3.534   0.978  14.538  2.9069 -0.4827  1.3218
  189DOPC   C3923354   3.596   0.792  14.625 -0.0958 -0.5085 -0.1673
  189DOPC   H9X23355   3.514   0.745  14.682 -0.4614  0.6509  0.3078
  189DOPC  C31023356   3.718   0.770  14.665 -0.1279 -0.2506 -0.1593
  189DOPC  H10X23357   3.725   0.701  14.750 -2.0038 -1.1200 -0.6606
  189DOPC  C31123358   3.853   0.810  14.612  0.3462 -0.3232 -0.2235
  189DOPC  H11X23359   3.856   0.794  14.502  1.6537 -0.8056 -0.1445
  189DOPC  H11Y23360   3.935   0.748  14.656  0.9387  0.1439 -0.6484
  189DOPC  C31223361   3.885   0.956  14.639  0.5815 -0.0597  0.4386
  189DOPC  H12X23362   3.788   1.011  14.642 -1.4179 -3.2429  4.6089
  189DOPC  H12Y23363   3.940   1.005  14.555  0.5207  0.3355  0.6263
  189DOPC  C31323364   3.958   0.986  14.767 -0.1403 -0.0362  0.2531
  189DOPC  H13X23365   3.953   1.094  14.791  1.0233 -0.0364  0.5401
  189DOPC  H13Y23366   3.922   0.928  14.855 -2.2439 -0.0692 -0.5744
  189DOPC  C31423367   4.111   0.963  14.744  0.7177  0.0467 -0.3258
  189DOPC  H14X23368   4.135   0.857  14.719  0.6383  0.0787 -0.5443
  189DOPC  H14Y23369   4.138   1.025  14.655  1.0430  0.7647  0.2583
  189DOPC  C31523370   4.202   1.007  14.858  0.3873  0.1118 -0.4925
  189DOPC  H15X23371   4.163   0.967  14.954 -0.0024 -3.3236 -1.9325
  189DOPC  H15Y23372   4.196   1.118  14.850 -0.0975  0.1354  0.1568
  189DOPC  C31623373   4.344   0.948  14.848 -0.2616  0.2142 -0.3514
  189DOPC  H16X23374   4.337   0.838  14.846 -1.5506  0.2847 -0.5778
  189DOPC  H16Y23375   4.388   0.988  14.755  2.3335  0.6866  0.9739
  189DOPC  C31723376   4.433   0.988  14.968  0.4692  0.0673 -0.3383
  189DOPC  H17X23377   4.538   0.955  14.957  0.8977  0.3019  2.3315
  189DOPC  H17Y23378   4.433   1.097  14.989 -0.2410 -0.1476  0.8788
  189DOPC  C31823379   4.387   0.930  15.099 -0.4226  0.9849 -0.8052
  189DOPC  H18X23380   4.296   0.973  15.143 -0.0667 -0.6270  1.6993
  189DOPC  H18Y23381   4.360   0.822  15.086 -0.4350  0.8993 -0.0904
  189DOPC  H18Z23382   4.470   0.938  15.173 -1.1687  3.4458 -0.1550
  190DOPC     N23383   2.861   0.630  13.503 -0.0479  0.3379 -0.0453
  190DOPC   C1223384   2.919   0.740  13.583 -0.5781 -0.3165  0.1745
  190DOPC  H12A23385   3.005   0.771  13.525 -0.3989  0.5552  0.8912
  190DOPC  H12B23386   2.950   0.696  13.676 -0.9413  1.3045  1.1092
  190DOPC   C1323387   2.763   0.565  13.594  0.1864  0.1249  0.3920
  190DOPC  H13A23388   2.676   0.619  13.628  0.3597 -1.5097  3.7797
  190DOPC  H13B23389   2.717   0.481  13.544  1.1909  0.9595 -2.1489
  190DOPC  H13C23390   2.814   0.522  13.679  0.3331 -0.3562  0.0630
  190DOPC   C1423391   2.968   0.527  13.464 -0.0019  0.6469 -0.6837
  190DOPC  H14A23392   3.017   0.484  13.551  0.5112  0.3155 -1.1323
  190DOPC  H14B23393   2.916   0.449  13.412 -1.7179  1.2512  0.0590
  190DOPC  H14C23394   3.040   0.569  13.396  2.3606  0.4827  1.5314
  190DOPC   C1523395   2.797   0.670  13.380  0.0358  0.0727 -0.0123
  190DOPC  H15A23396   2.753   0.589  13.325  2.4799 -1.5087  0.2374
  190DOPC  H15B23397   2.878   0.717  13.327  1.4055  0.8043  2.5467
  190DOPC  H15C23398   2.725   0.743  13.415  1.2280  0.8328  0.9420
  190DOPC   C1123399   2.824   0.850  13.613  0.8409  0.2843  0.0362
  190DOPC  H11A23400   2.721   0.816  13.639 -0.7562  3.2501 -1.8593
  190DOPC  H11B23401   2.856   0.910  13.701 -1.6266 -0.7129  1.7152
  190DOPC     P23402   2.929   1.036  13.472  0.5253  0.2092 -0.0057
  190DOPC   O1323403   2.918   1.107  13.342  0.9370 -0.2553  0.1949
  190DOPC   O1423404   3.064   0.976  13.501  0.8200 -0.2551 -0.0349
  190DOPC   O1223405   2.810   0.934  13.496  0.4042 -0.7658 -0.0611
  190DOPC   O1123406   2.916   1.148  13.579 -0.1672 -0.2263  0.1929
  190DOPC    C123407   2.780   1.191  13.615 -0.1630  0.8073 -0.6401
  190DOPC    HA23408   2.699   1.117  13.602  1.0413 -0.4200 -1.3753
  190DOPC    HB23409   2.751   1.273  13.546 -0.7655  0.3892 -0.8822
  190DOPC    C223410   2.784   1.253  13.758  0.0496  1.0109  0.3399
  190DOPC    HS23411   2.890   1.274  13.785  0.5719  1.2027 -1.7375
  190DOPC   O2123412   2.719   1.153  13.845 -0.1080  0.4473 -0.0184
  190DOPC   C2123413   2.764   1.167  13.968 -0.0576  0.0195 -0.9675
  190DOPC   O2223414   2.840   1.245  14.014 -0.1694  0.0383  0.4623
  190DOPC   C2223415   2.687   1.067  14.048 -0.0823 -0.6117 -0.1650
  190DOPC   H2R23416   2.659   0.971  14.002 -1.7487 -0.5786  0.6914
  190DOPC   H2S23417   2.592   1.122  14.070  0.5571  0.4312  0.0572
  190DOPC    C323418   2.698   1.378  13.756 -0.5980  0.1252 -0.2028
  190DOPC    HX23419   2.600   1.345  13.714  0.2114 -1.7560 -0.7392
  190DOPC    HY23420   2.746   1.453  13.690  0.9865 -1.0418 -0.4226
  190DOPC   O3123421   2.667   1.438  13.886 -0.4064  0.8381  0.3501
  190DOPC   C3123422   2.765   1.519  13.920 -0.7742  0.0598 -0.1591
  190DOPC   O3223423   2.862   1.547  13.855 -0.0589 -0.3748  0.3119
  190DOPC   C3223424   2.750   1.548  14.072 -0.6656  0.9942  0.5226
  190DOPC   H2X23425   2.648   1.588  14.084 -0.0804  2.1316  2.1615
  190DOPC   H2Y23426   2.769   1.454  14.129 -2.0017  0.8797  0.8092
  190DOPC   C2323427   2.756   1.021  14.178  0.4496 -0.4352  0.3574
  190DOPC   H3R23428   2.779   1.107  14.244 -1.2138  1.8606 -1.8420
  190DOPC   H3S23429   2.845   0.961  14.147  0.4497  1.0855 -2.9910
  190DOPC   C2423430   2.673   0.920  14.251 -0.4136 -0.1775 -0.0937
  190DOPC   H4R23431   2.630   0.854  14.172  2.0229 -1.7446 -0.2334
  190DOPC   H4S23432   2.600   0.981  14.308  1.0117  1.1458  0.3993
  190DOPC   C2523433   2.749   0.824  14.346 -0.6272 -0.1611 -0.6972
  190DOPC   H5R23434   2.848   0.787  14.311 -0.9717 -1.1278 -0.6754
  190DOPC   H5S23435   2.692   0.733  14.371 -0.8336  0.0706 -0.3189
  190DOPC   C2623436   2.786   0.892  14.486  1.0766  0.2968 -0.3580
  190DOPC   H6R23437   2.695   0.949  14.514  0.1343 -1.1152 -0.3962
  190DOPC   H6S23438   2.861   0.971  14.467  1.3558  1.7425  5.0534
  190DOPC   C2723439   2.838   0.792  14.589  0.1098  0.1947 -0.0720
  190DOPC   H7R23440   2.936   0.768  14.541  0.1795  0.2672  0.0322
  190DOPC   H7S23441   2.783   0.696  14.586 -1.1429  0.8188  1.3218
  190DOPC   C2823442   2.860   0.845  14.729  0.1073  0.1729 -0.0323
  190DOPC   H8R23443   2.902   0.948  14.721  0.3732  0.0412 -0.3508
  190DOPC   H8S23444   2.929   0.775  14.781  0.8104 -0.1297 -1.3087
  190DOPC   C2923445   2.731   0.844  14.807 -0.3619 -0.5694 -0.9178
  190DOPC   H9R23446   2.645   0.860  14.740 -0.2278 -3.8775 -2.0536
  190DOPC  C21023447   2.723   0.820  14.940 -0.3425  0.6823  0.3149
  190DOPC  H10R23448   2.626   0.815  14.992 -1.3005  0.6266 -1.3909
  190DOPC  C21123449   2.835   0.772  15.034  0.2457 -0.1270  0.7429
  190DOPC  H11R23450   2.887   0.686  14.986 -2.0759 -1.3023  0.2116
  190DOPC  H11S23451   2.799   0.744  15.135  0.3374 -1.3775  0.4389
  190DOPC  C21223452   2.941   0.882  15.060  0.1255  0.1038 -0.1649
  190DOPC  H12R23453   2.975   0.921  14.962  0.0669  0.5774  0.0017
  190DOPC  H12S23454   3.031   0.837  15.108 -0.8865 -0.5643  1.1872
  190DOPC  C21323455   2.882   0.998  15.139  0.1949 -0.1213 -0.3528
  190DOPC  H13R23456   2.869   0.961  15.243 -2.2010 -0.6129 -0.7660
  190DOPC  H13S23457   2.786   1.031  15.094  1.5452  1.6514 -2.0705
  190DOPC  C21423458   2.972   1.124  15.121  0.5302  0.2324 -0.1121
  190DOPC  H14R23459   3.000   1.142  15.015  3.7863  2.3067  0.9538
  190DOPC  H14S23460   3.068   1.092  15.167 -0.3061  0.2601  1.7121
  190DOPC  C21523461   2.919   1.252  15.189 -0.6779  0.1426  0.3699
  190DOPC  H15R23462   2.929   1.222  15.296 -3.4428 -3.0380 -0.1006
  190DOPC  H15S23463   2.809   1.268  15.181 -0.9202 -0.8916  1.4156
  190DOPC  C21623464   3.005   1.371  15.145 -0.2054 -0.6188 -0.5237
  190DOPC  H16R23465   3.111   1.342  15.126  0.8240  2.6544 -0.4355
  190DOPC  H16S23466   3.025   1.443  15.227 -0.9993 -1.0215  0.0392
  190DOPC  C21723467   2.947   1.453  15.027 -0.1413 -0.3315  0.3206
  190DOPC  H17R23468   2.843   1.476  15.057 -0.5743 -0.1425 -1.2686
  190DOPC  H17S23469   2.958   1.383  14.942  3.4582 -2.4329  2.2601
  190DOPC  C21823470   3.027   1.579  14.986  0.2068  0.0719 -0.1563
  190DOPC  H18R23471   3.057   1.634  15.078  1.5196 -0.4607 -0.2532
  190DOPC  H18S23472   2.962   1.644  14.923  0.2933 -1.0409 -1.4242
  190DOPC  H18T23473   3.119   1.550  14.932  1.6287  1.2599  1.5142
  190DOPC   C3323474   2.862   1.641  14.134  0.4129 -0.1235  0.1975
  190DOPC   H3X23475   2.875   1.732  14.072  2.4575 -1.0743 -0.8701
  190DOPC   H3Y23476   2.958   1.587  14.119 -0.5302 -1.6440 -0.6402
  190DOPC   C3423477   2.872   1.673  14.280  1.1079  0.7280 -0.6591
  190DOPC   H4X23478   2.792   1.744  14.310 -1.2221 -1.7834 -0.5010
  190DOPC   H4Y23479   2.968   1.724  14.304  0.8470 -0.2814  3.1275
  190DOPC   C3523480   2.865   1.546  14.373 -0.2456 -0.5967  0.2743
  190DOPC   H5X23481   2.953   1.482  14.351 -0.4961 -0.3194 -1.7704
  190DOPC   H5Y23482   2.771   1.489  14.355  0.7217 -1.7282 -1.4818
  190DOPC   C3623483   2.865   1.580  14.520  0.2251 -0.3075 -0.5599
  190DOPC   H6X23484   2.949   1.648  14.546  1.8164 -2.2607 -0.4030
  190DOPC   H6Y23485   2.766   1.619  14.553  0.4009 -1.3829  1.3271
  190DOPC   C3723486   2.897   1.461  14.610 -0.0450  0.3679 -0.2400
  190DOPC   H7X23487   2.996   1.413  14.595  0.2427  0.8720  0.0485
  190DOPC   H7Y23488   2.909   1.486  14.717  0.1478 -0.5089 -0.0449
  190DOPC   C3823489   2.787   1.354  14.592  0.3936  0.2426  0.0213
  190DOPC   H8X23490   2.802   1.309  14.492 -0.7369 -1.0375  0.3774
  190DOPC   H8Y23491   2.688   1.404  14.591 -1.1779 -2.5699  0.8077
  190DOPC   C3923492   2.779   1.251  14.698 -0.3233 -0.3927 -0.1140
  190DOPC   H9X23493   2.872   1.193  14.706 -1.5381 -2.5996 -1.2211
  190DOPC  C31023494   2.687   1.204  14.776  0.2956 -0.0230 -0.1222
  190DOPC  H10X23495   2.712   1.119  14.840 -0.4569 -0.6258 -0.6119
  190DOPC  C31123496   2.537   1.240  14.778 -0.0247  0.1455  0.7314
  190DOPC  H11X23497   2.512   1.319  14.705 -1.8590  1.2275  2.4258
  190DOPC  H11Y23498   2.501   1.275  14.877 -0.1444 -0.7548  1.0188
  190DOPC  C31223499   2.446   1.118  14.742  0.2604 -0.1105 -0.1171
  190DOPC  H12X23500   2.447   1.031  14.811  2.2676 -3.2086 -3.6523
  190DOPC  H12Y23501   2.461   1.074  14.641  1.3140  2.1131 -0.9983
  190DOPC  C31323502   2.303   1.161  14.744 -0.0980 -0.1044  0.3798
  190DOPC  H13X23503   2.274   1.201  14.844  0.4208 -0.4255  0.6625
  190DOPC  H13Y23504   2.279   1.243  14.673  0.4880 -0.5647 -0.3602
  190DOPC  C31423505   2.209   1.043  14.712 -0.3884  0.4330 -0.2809
  190DOPC  H14X23506   2.210   1.008  14.606  1.4709 -1.4356  0.2938
  190DOPC  H14Y23507   2.241   0.954  14.770 -0.6849 -0.6584 -1.7327
  190DOPC  C31523508   2.067   1.081  14.751 -0.6612 -0.0765 -0.5097
  190DOPC  H15X23509   2.036   1.175  14.701  0.8724  0.2816 -0.8251
  190DOPC  H15Y23510   2.057   1.081  14.861 -0.0928 -0.6708 -0.4551
  190DOPC  C31623511   1.966   0.972  14.707 -0.0933 -0.6617  0.1625
  190DOPC  H16X23512   1.866   0.999  14.749 -0.1481  1.9096 -1.4627
  190DOPC  H16Y23513   1.970   0.985  14.597 -0.1427  0.5531  0.2974
  190DOPC  C31723514   2.006   0.830  14.746  0.4195  0.4369 -0.6471
  190DOPC  H17X23515   2.107   0.800  14.710  1.2385  3.9119 -1.6923
  190DOPC  H17Y23516   2.006   0.832  14.857 -0.4098  2.1790 -0.6524
  190DOPC  C31823517   1.920   0.722  14.686  0.5221 -0.1879  0.3388
  190DOPC  H18X23518   1.950   0.627  14.735  0.4769 -0.3227  0.1044
  190DOPC  H18Y23519   1.816   0.739  14.719  0.6653  1.5880 -0.0118
  190DOPC  H18Z23520   1.927   0.722  14.575  2.1467  0.5195  0.3995
  191DOPC     N23521   5.022   1.335  13.075 -0.1511  0.0948 -0.0378
  191DOPC   C1223522   5.155   1.262  13.070  0.4616 -0.6099 -0.2411
  191DOPC  H12A23523   5.231   1.319  13.019  1.2956 -3.8294 -3.0474
  191DOPC  H12B23524   5.149   1.173  13.009  0.1619 -0.0092 -1.1111
  191DOPC   C1323525   4.993   1.383  12.938  0.0692  0.3040  0.0728
  191DOPC  H13A23526   4.887   1.398  12.920 -0.1259 -2.0204 -1.1773
  191DOPC  H13B23527   5.051   1.469  12.908  2.4530 -1.0225  0.6743
  191DOPC  H13C23528   5.013   1.307  12.864 -3.0951 -1.2453  0.6430
  191DOPC   C1423529   5.023   1.457  13.157 -1.0477  0.4374 -0.2259
  191DOPC  H14A23530   5.095   1.529  13.122  1.0823 -0.0458  2.8672
  191DOPC  H14B23531   4.924   1.501  13.162 -0.8309  0.8245  0.8941
  191DOPC  H14C23532   5.055   1.446  13.259  1.5728 -0.9441 -1.1181
  191DOPC   C1523533   4.904   1.260  13.129  0.3866  0.9399 -0.2083
  191DOPC  H15A23534   4.823   1.325  13.158  0.0745  1.6960 -2.6049
  191DOPC  H15B23535   4.938   1.213  13.221  0.6521  0.7353 -0.4085
  191DOPC  H15C23536   4.873   1.180  13.064 -1.1435  1.4594 -0.1492
  191DOPC   C1123537   5.207   1.224  13.208 -0.1724 -0.1316 -0.3553
  191DOPC  H11A23538   5.193   1.304  13.283 -0.3169  0.1776 -0.7090
  191DOPC  H11B23539   5.153   1.136  13.249 -1.9876  1.3115  0.4381
  191DOPC     P23540   5.455   1.306  13.215 -0.0057 -0.0960  0.1820
  191DOPC   O1323541   5.423   1.410  13.118  0.3308 -0.2167  0.5662
  191DOPC   O1423542   5.592   1.245  13.203  0.1690 -0.0741 -0.0929
  191DOPC   O1223543   5.347   1.192  13.202 -0.0961 -0.4200  0.4489
  191DOPC   O1123544   5.435   1.373  13.356 -0.3509  0.2173 -0.1363
  191DOPC    C123545   5.517   1.331  13.473  0.5230 -0.0941  0.4811
  191DOPC    HA23546   5.583   1.417  13.497  0.0488  0.4647 -0.1804
  191DOPC    HB23547   5.580   1.240  13.462 -1.9103 -1.7226 -1.0969
  191DOPC    C223548   5.427   1.304  13.592 -0.3920  0.1354  0.4554
  191DOPC    HS23549   5.336   1.367  13.585  0.6216  1.5573 -0.3068
  191DOPC   O2123550   5.500   1.346  13.711  0.2409 -0.0931  0.2164
  191DOPC   C2123551   5.447   1.331  13.823  0.5205 -0.0442 -0.3955
  191DOPC   O2223552   5.330   1.295  13.847  0.1867 -0.3615  0.5373
  191DOPC   C2223553   5.546   1.362  13.938  0.6747  0.0732 -0.4070
  191DOPC   H2R23554   5.508   1.458  13.979 -0.7494  0.2432 -2.0037
  191DOPC   H2S23555   5.651   1.362  13.901  0.1067  2.5962 -2.2615
  191DOPC    C323556   5.390   1.148  13.591 -0.4529  0.0197 -0.3685
  191DOPC    HX23557   5.365   1.132  13.484  0.1678 -1.2340 -0.3434
  191DOPC    HY23558   5.306   1.124  13.659 -0.1439 -2.2933 -0.7133
  191DOPC   O3123559   5.508   1.067  13.620 -0.3397  0.0247 -0.1326
  191DOPC   C3123560   5.484   0.936  13.598  0.1683 -0.0251  0.5102
  191DOPC   O3223561   5.381   0.893  13.549 -0.2558  0.3064 -0.3119
  191DOPC   C3223562   5.603   0.855  13.639  0.6036  0.1572  1.2915
  191DOPC   H2X23563   5.590   0.749  13.606  2.2815  0.3049 -0.0122
  191DOPC   H2Y23564   5.686   0.900  13.580 -0.4563 -0.0086 -0.4032
  191DOPC   C2323565   5.535   1.267  14.061 -0.2706  0.1288 -0.3386
  191DOPC   H3R23566   5.556   1.165  14.022  0.6286 -0.0599  0.5874
  191DOPC   H3S23567   5.431   1.276  14.099  0.3383  2.4896  0.9975
  191DOPC   C2423568   5.625   1.322  14.178 -0.3599  0.3753 -0.1510
  191DOPC   H4R23569   5.611   1.432  14.186  0.2331  0.4704 -0.3921
  191DOPC   H4S23570   5.733   1.313  14.155 -0.1914  0.0935  0.7079
  191DOPC   C2523571   5.596   1.245  14.313  0.3394 -0.4610 -0.0685
  191DOPC   H5R23572   5.612   1.135  14.301 -1.4113 -0.6650 -0.7307
  191DOPC   H5S23573   5.488   1.263  14.328  0.3780 -0.4066  0.1396
  191DOPC   C2623574   5.667   1.302  14.429 -0.3678  0.1593  0.0348
  191DOPC   H6R23575   5.625   1.405  14.439 -0.1956  0.1116  1.4672
  191DOPC   H6S23576   5.775   1.306  14.406 -1.0782 -1.3902 -4.4098
  191DOPC   C2723577   5.633   1.247  14.569 -0.8417  0.1594 -0.2639
  191DOPC   H7R23578   5.649   1.137  14.571  1.1429  0.4284  0.9714
  191DOPC   H7S23579   5.526   1.276  14.577  0.1294  3.8720  1.4226
  191DOPC   C2823580   5.735   1.301  14.664  0.6413  0.6339 -0.4269
  191DOPC   H8R23581   5.768   1.406  14.650 -0.7897  1.0349 -0.9391
  191DOPC   H8S23582   5.823   1.234  14.652  1.0776  1.0168  0.5445
  191DOPC   C2923583   5.684   1.264  14.804 -0.3827 -0.2576 -0.2623
  191DOPC   H9R23584   5.594   1.319  14.833 -0.6081 -0.7929  0.0635
  191DOPC  C21023585   5.745   1.193  14.906 -0.6970  0.1726  0.5770
  191DOPC  H10R23586   5.689   1.180  15.000  0.8356 -1.2297  1.3365
  191DOPC  C21123587   5.870   1.110  14.894 -0.2922  0.2499 -0.0050
  191DOPC  H11R23588   5.927   1.130  14.987  0.9092  2.9056 -1.1895
  191DOPC  H11S23589   5.938   1.150  14.816 -0.2575  0.5447  0.1765
  191DOPC  C21223590   5.842   0.962  14.869 -0.1137  0.3352 -0.3126
  191DOPC  H12R23591   5.927   0.904  14.827  0.5961  0.3511  1.0541
  191DOPC  H12S23592   5.759   0.948  14.796  0.5255  0.7339 -1.1421
  191DOPC  C21323593   5.809   0.882  14.997 -0.1164  0.3486 -0.0078
  191DOPC  H13R23594   5.771   0.785  14.959 -0.9072  0.9660 -0.8148
  191DOPC  H13S23595   5.729   0.926  15.059  0.6137  0.7708  0.6625
  191DOPC  C21423596   5.929   0.855  15.093 -0.2948 -0.3880 -0.0808
  191DOPC  H14R23597   5.949   0.944  15.156 -2.6364  0.4339 -0.4076
  191DOPC  H14S23598   6.027   0.841  15.042  1.5681 -3.6922  3.8711
  191DOPC  C21523599   5.910   0.726  15.171 -0.4443  0.2120 -0.1235
  191DOPC  H15R23600   5.880   0.647  15.099  0.9494  1.3661 -2.0385
  191DOPC  H15S23601   5.824   0.745  15.240 -0.8361 -1.6285 -0.0654
  191DOPC  C21623602   6.044   0.704  15.252 -0.1487  0.0365 -0.2498
  191DOPC  H16R23603   6.087   0.804  15.273  0.0148  0.3161 -1.7783
  191DOPC  H16S23604   6.105   0.642  15.182 -0.5222 -0.4340 -0.1646
  191DOPC  C21723605   6.011   0.633  15.378 -0.3967  0.6362 -0.9546
  191DOPC  H17R23606   5.970   0.533  15.351  0.8493 -1.2693  3.2507
  191DOPC  H17S23607   5.941   0.699  15.434  1.1318  0.0666  1.8338
  191DOPC  C21823608   6.136   0.589  15.453  0.1987 -0.1676 -0.0589
  191DOPC  H18R23609   6.116   0.508  15.527  0.4882  1.1418  1.4973
  191DOPC  H18S23610   6.180   0.672  15.511  0.7089 -0.8515  0.5521
  191DOPC  H18T23611   6.206   0.544  15.379  0.1768  1.4438 -1.1065
  191DOPC   C3323612   5.628   0.856  13.793 -0.4330  0.4912  0.3019
  191DOPC   H3X23613   5.566   0.775  13.836 -2.4560  1.4517 -0.6698
  191DOPC   H3Y23614   5.584   0.949  13.836 -1.3615 -0.8363  2.3621
  191DOPC   C3423615   5.775   0.858  13.834 -0.2776 -0.2598  0.1623
  191DOPC   H4X23616   5.833   0.935  13.778 -1.1610  0.3570  0.0739
  191DOPC   H4Y23617   5.820   0.758  13.820 -1.1491 -0.7065  0.4895
  191DOPC   C3523618   5.798   0.893  13.985 -0.5329  0.1752  0.2919
  191DOPC   H5X23619   5.759   0.997  13.991  1.0611  0.9570 -1.5358
  191DOPC   H5Y23620   5.904   0.895  14.019 -0.6611 -1.8333  0.9388
  191DOPC   C3623621   5.729   0.800  14.087  0.2652  0.1580  0.3209
  191DOPC   H6X23622   5.620   0.805  14.064  0.2767  2.1152  0.5441
  191DOPC   H6Y23623   5.762   0.696  14.065  0.2548  0.4565 -1.2703
  191DOPC   C3723624   5.761   0.848  14.223 -0.1825 -0.4196  0.1908
  191DOPC   H7X23625   5.870   0.864  14.224 -0.3999  1.3353 -0.5303
  191DOPC   H7Y23626   5.718   0.950  14.239  1.2772 -0.0423  2.0351
  191DOPC   C3823627   5.719   0.749  14.337 -0.4929 -0.2052 -0.0296
  191DOPC   H8X23628   5.746   0.644  14.311 -0.8547 -0.6689  1.3879
  191DOPC   H8Y23629   5.608   0.751  14.328 -0.5741 -0.8538  0.6794
  191DOPC   C3923630   5.766   0.808  14.474 -0.2673  0.2048  0.7456
  191DOPC   H9X23631   5.730   0.910  14.493 -2.1085 -0.1027 -0.9046
  191DOPC  C31023632   5.835   0.742  14.567  0.6613 -0.5525 -0.1279
  191DOPC  H10X23633   5.855   0.785  14.667 -2.5100  0.7611  0.0643
  191DOPC  C31123634   5.871   0.592  14.561 -0.5823 -0.2676  0.4350
  191DOPC  H11X23635   5.975   0.582  14.523 -0.5236  0.2311  0.4522
  191DOPC  H11Y23636   5.811   0.546  14.479  0.6104 -0.0020 -0.6274
  191DOPC  C31223637   5.842   0.526  14.694 -1.0804  0.4946 -0.5134
  191DOPC  H12X23638   5.926   0.541  14.764  0.3164 -1.0166 -1.7601
  191DOPC  H12Y23639   5.848   0.416  14.676 -0.6569  0.5222 -0.5343
  191DOPC  C31323640   5.700   0.548  14.754 -0.7270  1.0544  0.2501
  191DOPC  H13X23641   5.700   0.656  14.779 -0.3150  1.1076  0.0219
  191DOPC  H13Y23642   5.622   0.507  14.686 -2.8588 -0.3154  3.2775
  191DOPC  C31423643   5.675   0.460  14.878 -0.1543  0.3875 -0.3204
  191DOPC  H14X23644   5.630   0.364  14.843  2.1024 -0.8723  0.0490
  191DOPC  H14Y23645   5.774   0.437  14.922 -0.9649 -0.6868  1.0371
  191DOPC  C31523646   5.575   0.516  14.989 -0.3689 -0.1061 -0.7240
  191DOPC  H15X23647   5.492   0.568  14.936 -0.0088 -0.2041 -1.3957
  191DOPC  H15Y23648   5.635   0.585  15.051 -1.8449 -0.3216  1.0083
  191DOPC  C31623649   5.524   0.406  15.084 -0.1399  0.0564 -0.8156
  191DOPC  H16X23650   5.470   0.330  15.024  0.9128  0.8724 -2.9133
  191DOPC  H16Y23651   5.608   0.353  15.134 -0.6867  0.3946  0.5205
  191DOPC  C31723652   5.431   0.479  15.186  0.6651  0.1082 -0.5765
  191DOPC  H17X23653   5.481   0.571  15.226  2.4061 -0.0128 -2.3254
  191DOPC  H17Y23654   5.339   0.504  15.129  1.9426  0.9221 -2.3665
  191DOPC  C31823655   5.380   0.386  15.302 -0.6932 -0.9360  0.1384
  191DOPC  H18X23656   5.304   0.437  15.365  1.0137  0.7904  0.9110
  191DOPC  H18Y23657   5.342   0.292  15.258 -0.2337 -1.3998  0.7313
  191DOPC  H18Z23658   5.462   0.350  15.367  0.5717 -0.1338 -0.9447
  192DOPC     N23659   0.300   5.219  12.945 -0.2252 -0.0504  0.0371
  192DOPC   C1223660   0.353   5.358  12.986 -0.1168  0.0701  0.1666
  192DOPC  H12A23661   0.265   5.420  12.991  0.1824  0.5804 -0.7077
  192DOPC  H12B23662   0.426   5.381  12.910  1.7745 -1.9366  1.2705
  192DOPC   C1323663   0.175   5.187  13.024  0.8320 -0.4567  0.5916
  192DOPC  H13A23664   0.199   5.139  13.118 -1.6211 -3.0866  0.0470
  192DOPC  H13B23665   0.102   5.267  13.024  0.2852 -0.9102 -1.1995
  192DOPC  H13C23666   0.123   5.102  12.980 -0.5567  0.4920  0.3253
  192DOPC   C1423667   0.398   5.109  12.951  0.2891  0.2985  0.0142
  192DOPC  H14A23668   0.406   5.067  13.049 -1.9714  0.0016  0.1273
  192DOPC  H14B23669   0.370   5.018  12.901 -1.3877  0.0814  1.2634
  192DOPC  H14C23670   0.497   5.151  12.938  0.7408 -0.8029 -0.1941
  192DOPC   C1523671   0.256   5.233  12.802  0.6256 -0.3519  0.1645
  192DOPC  H15A23672   0.338   5.263  12.739 -0.5994  0.7160 -0.9795
  192DOPC  H15B23673   0.169   5.297  12.805  0.8550 -0.0658  2.1234
  192DOPC  H15C23674   0.219   5.139  12.763  0.6790  0.4217 -1.8912
  192DOPC   C1123675   0.426   5.379  13.120  0.3597  0.3424 -0.1547
  192DOPC  H11A23676   0.519   5.318  13.118  1.3589  1.7841  0.4336
  192DOPC  H11B23677   0.465   5.483  13.130  1.5014 -0.0571 -0.3202
  192DOPC     P23678   0.363   5.239  13.328 -0.2193 -0.0549 -0.1223
  192DOPC   O1323679   0.453   5.142  13.263  0.8243  0.3142 -0.0673
  192DOPC   O1423680   0.236   5.187  13.376  0.0774  0.3728  0.3932
  192DOPC   O1223681   0.332   5.360  13.228 -0.3441 -0.1242  0.0679
  192DOPC   O1123682   0.437   5.290  13.451 -0.2385  0.5485 -0.8215
  192DOPC    C123683   0.480   5.425  13.451 -0.2676 -0.0169 -0.1441
  192DOPC    HA23684   0.404   5.491  13.406  0.8202  2.1251  1.0214
  192DOPC    HB23685   0.571   5.433  13.388 -0.5382 -2.7104 -1.0005
  192DOPC    C223686   0.530   5.478  13.592 -0.1344 -0.3156  0.3547
  192DOPC    HS23687   0.627   5.427  13.612  0.1570  0.5355  1.1871
  192DOPC   O2123688   0.434   5.423  13.686 -0.2051 -0.4117  0.0911
  192DOPC   C2123689   0.488   5.359  13.792  0.3438  0.1225 -0.5858
  192DOPC   O2223690   0.607   5.363  13.819  0.7918 -0.5943 -0.1086
  192DOPC   C2223691   0.375   5.285  13.871  0.0897 -0.2478  0.1584
  192DOPC   H2R23692   0.357   5.185  13.825  0.1828  0.5081 -1.6051
  192DOPC   H2S23693   0.283   5.347  13.863  0.3718  0.1802  0.1932
  192DOPC    C323694   0.535   5.634  13.596  0.2770 -0.1488 -0.1056
  192DOPC    HX23695   0.429   5.665  13.597 -0.4716 -2.5659 -0.4277
  192DOPC    HY23696   0.591   5.670  13.506  1.4981 -1.1848  0.2018
  192DOPC   O3123697   0.603   5.676  13.714  0.1890 -0.1436  0.1069
  192DOPC   C3123698   0.601   5.811  13.726  0.4201  0.0808 -0.4204
  192DOPC   O3223699   0.531   5.891  13.657 -0.4791  0.0622 -0.0465
  192DOPC   C3223700   0.670   5.854  13.855 -0.3649 -0.3881 -0.0373
  192DOPC   H2X23701   0.615   5.790  13.926  0.0342  2.0095  2.5924
  192DOPC   H2Y23702   0.780   5.844  13.860 -0.2904  0.9210  2.4213
  192DOPC   C2323703   0.401   5.267  14.030  0.2209  0.2286  0.6595
  192DOPC   H3R23704   0.494   5.215  14.062 -0.1091  0.6220  2.3322
  192DOPC   H3S23705   0.319   5.202  14.067 -1.2352  2.6413  1.8688
  192DOPC   C2423706   0.381   5.391  14.116  0.2387  0.1966  0.0720
  192DOPC   H4R23707   0.281   5.433  14.094 -0.3866 -1.3459 -0.1049
  192DOPC   H4S23708   0.444   5.474  14.075 -0.2933  1.1153  1.0637
  192DOPC   C2523709   0.419   5.373  14.261 -0.4875  0.5392  0.1224
  192DOPC   H5R23710   0.384   5.277  14.304 -1.7381  1.6847  1.8365
  192DOPC   H5S23711   0.376   5.453  14.325 -0.8326 -0.7009  1.4892
  192DOPC   C2623712   0.577   5.376  14.286 -0.5725  0.4776  0.2475
  192DOPC   H6R23713   0.622   5.462  14.230  0.9140 -1.2354 -1.3252
  192DOPC   H6S23714   0.620   5.289  14.232 -0.6299 -0.5024  1.7322
  192DOPC   C2723715   0.620   5.398  14.434  0.6335  0.7863  0.1272
  192DOPC   H7R23716   0.629   5.294  14.471 -0.6371  0.7402  0.3756
  192DOPC   H7S23717   0.543   5.442  14.501 -2.1984 -1.1061 -1.6679
  192DOPC   C2823718   0.754   5.467  14.445  0.4636 -0.1004  0.0320
  192DOPC   H8R23719   0.735   5.575  14.427  0.9122 -0.0657 -0.2519
  192DOPC   H8S23720   0.822   5.438  14.362  1.5241 -1.5532  1.3431
  192DOPC   C2923721   0.816   5.430  14.578 -0.0410  0.1213 -0.1683
  192DOPC   H9R23722   0.858   5.328  14.577 -1.5815 -0.5392 -1.6844
  192DOPC  C21023723   0.807   5.497  14.695 -0.3057 -0.2896 -0.1552
  192DOPC  H10R23724   0.851   5.459  14.789 -0.2840  1.3372  0.5260
  192DOPC  C21123725   0.734   5.632  14.720 -0.1144  0.2970  0.4628
  192DOPC  H11R23726   0.633   5.617  14.765 -0.3045 -0.8419 -0.2831
  192DOPC  H11S23727   0.734   5.689  14.625  0.6383 -1.3344 -0.5524
  192DOPC  C21223728   0.804   5.736  14.805 -0.5007  0.6623  0.2747
  192DOPC  H12R23729   0.792   5.704  14.911 -0.1478  1.3968  0.5509
  192DOPC  H12S23730   0.753   5.835  14.798 -1.4017  0.1440 -0.7928
  192DOPC  C21323731   0.953   5.756  14.764  0.3104 -0.2481 -0.1670
  192DOPC  H13R23732   0.966   5.787  14.658  1.0241 -0.6965 -0.2210
  192DOPC  H13S23733   1.015   5.666  14.783  1.7257  0.4762 -1.1276
  192DOPC  C21423734   1.023   5.858  14.851  0.1984 -0.0536  0.7198
  192DOPC  H14R23735   0.974   5.956  14.835  0.2057 -0.0814  0.5272
  192DOPC  H14S23736   1.130   5.868  14.821  1.4331  1.0350  4.7907
  192DOPC  C21523737   1.016   5.823  15.001 -0.3442 -0.4467  0.1245
  192DOPC  H15R23738   1.041   5.716  15.015 -3.1357 -0.9249  2.2964
  192DOPC  H15S23739   0.911   5.829  15.037 -0.4560 -1.8455  0.0602
  192DOPC  C21623740   1.094   5.928  15.081 -0.5220 -0.0978 -1.0603
  192DOPC  H16R23741   1.038   5.956  15.173  0.8138 -0.1246 -0.2041
  192DOPC  H16S23742   1.112   6.026  15.032 -1.2147  0.5904  0.0037
  192DOPC  C21723743   1.229   5.868  15.122 -0.5009  0.5621  0.3262
  192DOPC  H17R23744   1.210   5.763  15.154  0.8209 -0.6876 -2.6142
  192DOPC  H17S23745   1.276   5.922  15.207  1.0192  1.8603 -1.2787
  192DOPC  C21823746   1.318   5.877  14.999 -0.0069  0.0670  0.5188
  192DOPC  H18R23747   1.413   5.834  15.037  1.1022  2.3473  0.5399
  192DOPC  H18S23748   1.322   5.977  14.950 -1.3138 -0.4663 -0.7444
  192DOPC  H18T23749   1.279   5.813  14.918  1.1479  0.6494 -0.5282
  192DOPC   C3323750   0.630   5.996  13.912 -0.8258  0.6848  0.1167
  192DOPC   H3X23751   0.676   5.991  14.013 -1.2609  1.3740  0.3583
  192DOPC   H3Y23752   0.519   6.003  13.914 -1.2326 -2.5484 -2.1844
  192DOPC   C3423753   0.688   6.107  13.821 -0.0809  0.0578 -0.1730
  192DOPC   H4X23754   0.622   6.112  13.732  0.0644 -0.6125 -0.3216
  192DOPC   H4Y23755   0.792   6.081  13.793 -0.5628 -2.8783  0.5137
  192DOPC   C3523756   0.689   6.245  13.890 -0.0887 -0.2306  0.1359
  192DOPC   H5X23757   0.585   6.279  13.906  0.0068 -0.3055  1.0052
  192DOPC   H5Y23758   0.758   6.304  13.826 -1.9449 -0.0484 -1.7643
  192DOPC   C3623759   0.767   6.241  14.029 -0.2260 -0.4343 -0.1316
  192DOPC   H6X23760   0.698   6.194  14.102  2.2166  1.4223  3.7014
  192DOPC   H6Y23761   0.854   6.174  14.011  0.2490 -0.6372  2.6225
  192DOPC   C3723762   0.802   6.384  14.078 -0.2702  0.1045  0.0318
  192DOPC   H7X23763   0.891   6.418  14.022 -0.0541 -0.1686  0.2098
  192DOPC   H7Y23764   0.724   6.456  14.046 -0.6772 -1.3964 -2.5704
  192DOPC   C3823765   0.835   6.394  14.226 -0.4311 -0.1821 -0.7154
  192DOPC   H8X23766   0.752   6.362  14.291  1.0426  2.1432  2.5679
  192DOPC   H8Y23767   0.867   6.496  14.258 -0.5932  0.1752 -1.6572
  192DOPC   C3923768   0.951   6.303  14.255  0.2544  0.0414  0.2491
  192DOPC   H9X23769   1.043   6.323  14.197 -0.3154 -0.6424 -0.9200
  192DOPC  C31023770   0.958   6.206  14.348 -0.8615  0.7281 -0.6579
  192DOPC  H10X23771   1.048   6.144  14.338  0.0684  1.5940  1.6977
  192DOPC  C31123772   0.852   6.153  14.446  1.2329  0.1204  0.8114
  192DOPC  H11X23773   0.859   6.042  14.456 -0.5959 -0.1922 -0.7581
  192DOPC  H11Y23774   0.750   6.166  14.404  1.5604 -2.7207 -1.1775
  192DOPC  C31223775   0.851   6.224  14.585  0.1388 -0.6590  0.6811
  192DOPC  H12X23776   0.811   6.327  14.572  3.2012  0.8355  1.9294
  192DOPC  H12Y23777   0.956   6.240  14.617  0.6170  2.6411 -1.9231
  192DOPC  C31323778   0.768   6.145  14.689  0.4685  0.2269  0.2884
  192DOPC  H13X23779   0.689   6.098  14.626  1.6052 -1.7821  0.2524
  192DOPC  H13Y23780   0.823   6.054  14.721  0.9385  0.3473 -0.1619
  192DOPC  C31423781   0.717   6.226  14.817  1.0172  0.5135 -0.3520
  192DOPC  H14X23782   0.810   6.265  14.862  1.8948 -2.2410  0.4089
  192DOPC  H14Y23783   0.646   6.304  14.781 -0.6196 -0.5187  0.4937
  192DOPC  C31523784   0.657   6.135  14.928 -0.2074  0.2859  0.0234
  192DOPC  H15X23785   0.737   6.063  14.956 -0.5232  0.3031  1.0071
  192DOPC  H15Y23786   0.570   6.081  14.885  1.6581 -3.1508  0.2059
  192DOPC  C31623787   0.622   6.201  15.058  0.0223  0.0134  0.0815
  192DOPC  H16X23788   0.592   6.123  15.131 -2.8035  0.3680 -0.6090
  192DOPC  H16Y23789   0.711   6.250  15.103  0.4630 -0.5104 -0.2075
  192DOPC  C31723790   0.523   6.321  15.046  0.0718  0.5624 -0.3294
  192DOPC  H17X23791   0.561   6.411  14.993  0.8071  0.3608 -0.1594
  192DOPC  H17Y23792   0.448   6.287  14.971 -1.8345  0.6766  1.4366
  192DOPC  C31823793   0.447   6.368  15.175 -0.4072 -0.1012  0.4511
  192DOPC  H18X23794   0.524   6.399  15.248 -1.1422  2.6089  0.1916
  192DOPC  H18Y23795   0.373   6.447  15.150 -0.2419 -0.3030 -0.7400
  192DOPC  H18Z23796   0.390   6.285  15.222 -1.3125 -0.4435 -1.1603
  193DOPC     N23797   7.000   2.429  13.448 -0.5604 -0.2878 -0.3415
  193DOPC   C1223798   6.992   2.283  13.489  0.3699 -0.2555 -0.2163
  193DOPC  H12A23799   7.016   2.218  13.405  1.0304  1.3054 -1.2934
  193DOPC  H12B23800   6.892   2.258  13.519  0.2685  0.2651 -0.1060
  193DOPC   C1323801   6.925   2.441  13.318 -0.8612 -0.1834  0.7392
  193DOPC  H13A23802   6.823   2.408  13.323 -0.5038 -1.1298  2.6609
  193DOPC  H13B23803   6.931   2.538  13.270  1.8182 -0.4756  0.3260
  193DOPC  H13C23804   6.964   2.375  13.242 -1.7523  0.9560 -0.7738
  193DOPC   C1423805   7.138   2.479  13.428 -0.4460  0.5995 -0.1636
  193DOPC  H14A23806   7.200   2.492  13.515  2.1909 -1.1880 -1.6185
  193DOPC  H14B23807   7.180   2.408  13.358 -1.6992 -0.5049  0.1801
  193DOPC  H14C23808   7.135   2.579  13.386 -0.4812  0.8153  0.3502
  193DOPC   C1523809   6.931   2.515  13.554  0.2555 -0.2405  0.1228
  193DOPC  H15A23810   6.832   2.479  13.578  0.1324  0.1975  0.2803
  193DOPC  H15B23811   6.918   2.615  13.516 -2.8224 -0.7986 -0.5881
  193DOPC  H15C23812   6.980   2.505  13.649  0.5794  0.6008  0.0471
  193DOPC   C1123813   7.085   2.219  13.598 -0.4515 -0.0410 -0.4121
  193DOPC  H11A23814   7.064   2.264  13.698 -1.0161 -1.0450 -0.0629
  193DOPC  H11B23815   7.051   2.113  13.604 -0.3495 -0.1727 -1.8981
  193DOPC     P23816   7.300   2.121  13.471  0.6209  0.2818 -0.1796
  193DOPC   O1323817   7.443   2.132  13.495  0.6346  0.7235 -0.5220
  193DOPC   O1423818   7.262   2.139  13.329 -0.1404  0.3537 -0.7620
  193DOPC   O1223819   7.227   2.224  13.566  0.1734  0.5139 -0.2452
  193DOPC   O1123820   7.250   1.986  13.522 -0.4151 -0.0729  0.0638
  193DOPC    C123821   7.321   1.892  13.601 -0.2996  0.7849 -0.0169
  193DOPC    HA23822   7.425   1.926  13.621  0.2296 -0.2601 -0.9147
  193DOPC    HB23823   7.329   1.799  13.541  2.5229  2.5549 -2.7076
  193DOPC    C223824   7.258   1.862  13.744  0.1281 -0.2994  0.6324
  193DOPC    HS23825   7.340   1.820  13.806  1.9810  0.8460 -0.9278
  193DOPC   O2123826   7.144   1.778  13.726 -0.1913  0.2469 -0.9144
  193DOPC   C2123827   7.168   1.648  13.708  0.1808  0.1806  0.3209
  193DOPC   O2223828   7.272   1.591  13.683  0.0536 -0.6090 -0.3705
  193DOPC   C2223829   7.039   1.569  13.726  0.7473  0.2006  0.0207
  193DOPC   H2R23830   7.044   1.471  13.674  0.9390  0.9322 -1.3848
  193DOPC   H2S23831   6.963   1.628  13.670  3.2201  4.5155  0.7246
  193DOPC    C323832   7.221   1.988  13.820 -0.0257 -0.1235  0.3098
  193DOPC    HX23833   7.141   2.050  13.774  0.7363  1.9585  1.6580
  193DOPC    HY23834   7.311   2.052  13.818 -0.0424 -0.1192 -0.6725
  193DOPC   O3123835   7.178   1.973  13.956 -0.4047  0.1023 -0.4905
  193DOPC   C3123836   7.273   1.945  14.046  0.0873  0.5138  0.3581
  193DOPC   O3223837   7.393   1.941  14.026  0.1553 -0.2042  0.0485
  193DOPC   C3223838   7.216   1.917  14.185 -0.0685 -0.1286  0.6195
  193DOPC   H2X23839   7.105   1.917  14.177  0.0003 -0.1930 -0.5451
  193DOPC   H2Y23840   7.237   1.812  14.216 -0.1501 -1.3867 -3.0940
  193DOPC   C2323841   6.988   1.565  13.870 -0.8372  0.9234 -0.9238
  193DOPC   H3R23842   6.885   1.524  13.870 -1.2907  2.0164 -0.7609
  193DOPC   H3S23843   6.995   1.664  13.920  0.2362 -0.2331  1.4074
  193DOPC   C2423844   7.074   1.475  13.959  0.3959 -0.2661  0.0345
  193DOPC   H4R23845   7.182   1.498  13.976  0.2493 -0.7564  1.8241
  193DOPC   H4S23846   7.062   1.378  13.905 -0.2518  0.3856 -1.0268
  193DOPC   C2523847   7.011   1.449  14.095 -0.6166  0.2937  0.7889
  193DOPC   H5R23848   7.063   1.363  14.143 -1.5974  0.1367  1.6222
  193DOPC   H5S23849   6.910   1.401  14.093  0.0428 -1.1439  0.5982
  193DOPC   C2623850   7.018   1.567  14.186  0.4248  0.2583 -0.4568
  193DOPC   H6R23851   6.958   1.647  14.138  0.7578  0.6847 -0.1726
  193DOPC   H6S23852   7.123   1.601  14.191  0.5878 -0.1924 -0.7585
  193DOPC   C2723853   6.958   1.544  14.324  0.3776  0.0800  0.3656
  193DOPC   H7R23854   6.850   1.518  14.332  0.7463 -2.3411 -1.3601
  193DOPC   H7S23855   6.962   1.642  14.375  0.7443  0.0168  0.4573
  193DOPC   C2823856   7.023   1.428  14.407 -0.7827  0.0392  0.5224
  193DOPC   H8R23857   7.004   1.332  14.354 -1.1705 -0.3395  1.3445
  193DOPC   H8S23858   6.972   1.429  14.505  1.5720  0.4958  1.8087
  193DOPC   C2923859   7.176   1.447  14.418 -0.9031  0.3839 -0.7078
  193DOPC   H9R23860   7.228   1.434  14.322 -0.3355  0.6691 -0.4435
  193DOPC  C21023861   7.232   1.494  14.534 -0.5550  0.9588  0.6087
  193DOPC  H10R23862   7.342   1.499  14.530 -0.4633 -0.8518 -1.9813
  193DOPC  C21123863   7.170   1.512  14.669  0.1806 -0.5135 -0.4854
  193DOPC  H11R23864   7.228   1.444  14.735  0.7387  1.2655  0.9573
  193DOPC  H11S23865   7.069   1.478  14.699 -0.1202 -0.8672 -1.8469
  193DOPC  C21223866   7.193   1.658  14.721 -0.2767 -0.1284 -0.1353
  193DOPC  H12R23867   7.298   1.686  14.747  0.2828 -0.5585 -1.8169
  193DOPC  H12S23868   7.137   1.667  14.816  1.0794  0.8535  0.6096
  193DOPC  C21323869   7.156   1.761  14.617  0.6011  0.9848  0.6697
  193DOPC  H13R23870   7.061   1.732  14.568 -0.3217 -1.4080  3.5281
  193DOPC  H13S23871   7.225   1.768  14.531 -0.8096 -1.9405 -0.8482
  193DOPC  C21423872   7.153   1.897  14.678 -0.4464 -0.2894  0.1667
  193DOPC  H14R23873   7.104   1.900  14.777 -0.8252 -3.5757  0.2035
  193DOPC  H14S23874   7.098   1.974  14.620 -0.5482  0.7514  1.6020
  193DOPC  C21523875   7.295   1.952  14.699  0.1001 -0.5255  0.1239
  193DOPC  H15R23876   7.340   1.972  14.600 -0.4561  0.8687  0.1250
  193DOPC  H15S23877   7.356   1.877  14.754 -1.2704 -1.6100  0.2053
  193DOPC  C21623878   7.284   2.086  14.779  0.1897 -0.5587  0.0532
  193DOPC  H16R23879   7.228   2.063  14.873 -1.9405 -0.1559 -1.0723
  193DOPC  H16S23880   7.224   2.160  14.722 -2.7012 -2.5916  0.2397
  193DOPC  C21723881   7.420   2.145  14.801  0.6577 -0.2722 -0.0508
  193DOPC  H17R23882   7.475   2.144  14.705 -1.0881 -0.2937 -1.0807
  193DOPC  H17S23883   7.471   2.074  14.870 -0.1487  0.1062  0.9562
  193DOPC  C21823884   7.414   2.284  14.865 -0.3973  0.2100 -0.1178
  193DOPC  H18R23885   7.516   2.327  14.868 -0.5384  0.7943 -2.1688
  193DOPC  H18S23886   7.359   2.281  14.961 -0.2861  3.0045  0.1015
  193DOPC  H18T23887   7.350   2.354  14.807  0.7838  2.0192  0.6870
  193DOPC   C3323888   7.270   2.017  14.287 -0.0814 -0.8065  0.1489
  193DOPC   H3X23889   7.381   2.011  14.284 -0.0254 -0.8140  1.4802
  193DOPC   H3Y23890   7.245   1.986  14.391 -1.6050 -2.0545 -0.5590
  193DOPC   C3423891   7.233   2.161  14.251  0.5065 -0.6959 -0.0787
  193DOPC   H4X23892   7.129   2.170  14.213  1.1222  0.9109 -1.4846
  193DOPC   H4Y23893   7.303   2.202  14.177  0.7193  0.4003  0.7107
  193DOPC   C3523894   7.230   2.249  14.378 -0.4091  0.0159 -1.0827
  193DOPC   H5X23895   7.160   2.202  14.449 -0.0914  0.1280 -0.6911
  193DOPC   H5Y23896   7.184   2.350  14.366  1.6164  1.3094  1.0986
  193DOPC   C3623897   7.371   2.274  14.439  0.1430 -0.0584  0.4003
  193DOPC   H6X23898   7.394   2.187  14.504  2.7093 -2.2082 -3.0384
  193DOPC   H6Y23899   7.446   2.262  14.358 -0.2782  0.5696 -0.0967
  193DOPC   C3723900   7.385   2.403  14.519  0.2497  0.3776  0.5847
  193DOPC   H7X23901   7.312   2.402  14.603 -0.0446  2.7940  0.4289
  193DOPC   H7Y23902   7.488   2.397  14.558  0.2982  2.1401  0.8134
  193DOPC   C3823903   7.379   2.520  14.415 -0.3318 -0.2797  0.6486
  193DOPC   H8X23904   7.274   2.516  14.378 -0.0534  0.2547 -0.2106
  193DOPC   H8Y23905   7.439   2.507  14.322  0.3516  2.0603  0.7048
  193DOPC   C3923906   7.420   2.650  14.477 -0.4417  0.2257 -0.4051
  193DOPC   H9X23907   7.528   2.653  14.501 -0.5710 -0.9263  0.3955
  193DOPC  C31023908   7.342   2.755  14.497 -0.0182 -0.6212 -0.4637
  193DOPC  H10X23909   7.376   2.843  14.554 -1.4769 -0.0990 -0.3638
  193DOPC  C31123910   7.200   2.775  14.449  0.8809  0.6109 -0.1558
  193DOPC  H11X23911   7.164   2.687  14.390 -0.8054 -0.0746  1.7839
  193DOPC  H11Y23912   7.203   2.858  14.376  0.6689  0.2517 -0.5797
  193DOPC  C31223913   7.088   2.792  14.554  0.2533  0.3291  0.1185
  193DOPC  H12X23914   7.084   2.708  14.627  0.8480  0.5653  0.4308
  193DOPC  H12Y23915   6.991   2.796  14.499 -0.7969 -1.4261  1.7161
  193DOPC  C31323916   7.100   2.916  14.642  0.1762  0.3740 -0.4642
  193DOPC  H13X23917   7.193   2.905  14.702  0.0052  0.0095 -0.2653
  193DOPC  H13Y23918   7.113   3.006  14.579  2.3319  0.1745 -0.4020
  193DOPC  C31423919   6.990   2.933  14.746  0.5128  1.0142  0.0843
  193DOPC  H14X23920   6.902   2.962  14.685 -1.7774 -1.7206  1.8261
  193DOPC  H14Y23921   6.944   2.852  14.807 -0.3909  0.3277 -1.4382
  193DOPC  C31523922   7.025   3.051  14.836 -0.6234  0.3317  0.2598
  193DOPC  H15X23923   7.085   3.130  14.785  0.0496 -0.8442 -0.8652
  193DOPC  H15Y23924   7.089   3.009  14.916 -1.8879 -0.0466  1.0957
  193DOPC  C31623925   6.894   3.114  14.895  0.1388 -0.2817  0.5184
  193DOPC  H16X23926   6.835   3.175  14.823  0.2454 -0.6793  0.0837
  193DOPC  H16Y23927   6.841   3.033  14.949 -0.3850 -1.2998 -1.4326
  193DOPC  C31723928   6.927   3.210  15.008  0.1517 -0.2601 -0.1561
  193DOPC  H17X23929   6.836   3.244  15.062 -0.0606  0.7780 -1.1306
  193DOPC  H17Y23930   6.972   3.140  15.081 -0.9420 -0.0205  0.7821
  193DOPC  C31823931   7.015   3.329  14.970 -0.1130 -0.5454  0.2813
  193DOPC  H18X23932   6.963   3.410  14.916 -0.8773 -0.8181  0.5840
  193DOPC  H18Y23933   7.057   3.376  15.062  1.0378 -1.2537  0.1458
  193DOPC  H18Z23934   7.110   3.293  14.924  0.0570 -1.0179  0.9671
  194DOPC     N23935   1.870   0.988  13.359 -0.4172  1.2114  0.0946
  194DOPC   C1223936   2.021   1.001  13.400 -0.4987  0.2624 -0.0031
  194DOPC  H12A23937   2.038   1.106  13.413  0.1571  0.2448 -0.6889
  194DOPC  H12B23938   2.081   0.958  13.321 -1.4905  1.0928 -1.2246
  194DOPC   C1323939   1.849   1.068  13.232 -0.8924  0.1971 -0.0895
  194DOPC  H13A23940   1.753   1.057  13.182  0.0460 -0.1064 -1.9345
  194DOPC  H13B23941   1.878   1.171  13.241  0.8845 -0.3956  1.4995
  194DOPC  H13C23942   1.912   1.023  13.156 -1.5493 -0.7114 -0.1144
  194DOPC   C1423943   1.792   1.056  13.466 -0.1504  0.5310 -0.0542
  194DOPC  H14A23944   1.697   1.095  13.431  0.4115  0.5919 -1.5966
  194DOPC  H14B23945   1.775   0.994  13.553  1.1047  1.0846  0.6049
  194DOPC  H14C23946   1.852   1.144  13.485  1.1041 -0.0868 -0.9706
  194DOPC   C1523947   1.827   0.851  13.324 -0.8514 -0.0409  0.1512
  194DOPC  H15A23948   1.846   0.786  13.408 -0.8046  0.2896  0.3961
  194DOPC  H15B23949   1.889   0.812  13.244 -0.2548  0.4696  0.3573
  194DOPC  H15C23950   1.723   0.840  13.297 -1.2578 -1.1631  1.9514
  194DOPC   C1123951   2.064   0.928  13.530 -0.1639 -0.5431 -0.1352
  194DOPC  H11A23952   2.171   0.949  13.553  0.1154  0.3459 -2.0124
  194DOPC  H11B23953   2.005   0.979  13.609 -0.2985  1.6926 -1.5774
  194DOPC     P23954   2.110   0.680  13.469  0.3483  0.0962  0.1127
  194DOPC   O1323955   2.202   0.747  13.381 -0.4107  0.3378 -0.2142
  194DOPC   O1423956   2.017   0.589  13.403  0.0067 -0.1401 -0.0042
  194DOPC   O1223957   2.017   0.793  13.538 -0.2557  0.6727  0.3021
  194DOPC   O1123958   2.195   0.606  13.581 -0.5167  0.0452  0.2156
  194DOPC    C123959   2.141   0.536  13.694  0.1007 -0.1923  0.4137
  194DOPC    HA23960   2.208   0.451  13.722  0.3155 -1.3123 -3.0406
  194DOPC    HB23961   2.039   0.500  13.670  0.3398 -0.2442 -0.5831
  194DOPC    C223962   2.135   0.628  13.823 -0.7599  0.1267 -0.2712
  194DOPC    HS23963   2.051   0.699  13.809  0.8317  2.5397  1.5089
  194DOPC   O2123964   2.257   0.708  13.824 -0.2904  0.0614  0.6768
  194DOPC   C2123965   2.249   0.830  13.888 -0.7412 -0.5418  0.3665
  194DOPC   O2223966   2.148   0.880  13.933 -0.2087  0.4993 -0.1801
  194DOPC   C2223967   2.397   0.891  13.892 -0.3706  0.0163  0.2268
  194DOPC   H2R23968   2.472   0.813  13.866 -1.3571 -1.1481  0.7576
  194DOPC   H2S23969   2.402   0.922  13.998 -0.4614 -0.7933  0.4744
  194DOPC    C323970   2.100   0.555  13.956 -0.1109  0.4370  0.0843
  194DOPC    HX23971   2.199   0.527  13.999 -0.7275 -1.4024  0.4077
  194DOPC    HY23972   2.048   0.459  13.937  1.4931 -0.0829 -2.0416
  194DOPC   O3123973   2.023   0.639  14.048 -0.2607 -0.7955 -0.2133
  194DOPC   C3123974   1.896   0.639  14.043  0.7805 -0.6325 -0.7146
  194DOPC   O3223975   1.829   0.580  13.961 -0.3918  0.4122 -0.1825
  194DOPC   C3223976   1.844   0.741  14.146 -0.3536  0.7912  0.2475
  194DOPC   H2X23977   1.868   0.698  14.245  0.6614 -1.0504 -0.7481
  194DOPC   H2Y23978   1.890   0.839  14.119 -2.2097  1.7803  0.4680
  194DOPC   C2323979   2.408   0.999  13.788 -0.3059  0.3194  0.1660
  194DOPC   H3R23980   2.372   0.967  13.688  1.8234  1.4696 -1.0354
  194DOPC   H3S23981   2.515   1.025  13.772 -0.7618  1.5855 -0.9960
  194DOPC   C2423982   2.338   1.125  13.816  0.0218  0.0646 -0.1064
  194DOPC   H4R23983   2.382   1.181  13.901  1.9592 -0.2590 -0.8414
  194DOPC   H4S23984   2.232   1.103  13.841  0.1868  0.3372  0.8990
  194DOPC   C2523985   2.338   1.222  13.696  0.0212  0.2888 -0.3002
  194DOPC   H5R23986   2.286   1.160  13.620  0.2390  1.2799 -1.2817
  194DOPC   H5S23987   2.441   1.243  13.661  0.0972 -0.6185 -0.6349
  194DOPC   C2623988   2.260   1.351  13.717 -0.4368 -0.2972  0.2341
  194DOPC   H6R23989   2.166   1.313  13.762 -0.0396 -1.0321  0.4785
  194DOPC   H6S23990   2.232   1.409  13.627  0.5793  0.3614  0.3331
  194DOPC   C2723991   2.327   1.444  13.812  0.2350 -1.0153 -0.3008
  194DOPC   H7R23992   2.432   1.446  13.777  0.0230 -2.5094 -1.0946
  194DOPC   H7S23993   2.344   1.416  13.918  0.9757 -0.9244 -0.3887
  194DOPC   C2823994   2.275   1.586  13.812 -1.1180 -0.0549  0.1901
  194DOPC   H8R23995   2.238   1.603  13.708  1.1265  2.1663 -0.3440
  194DOPC   H8S23996   2.362   1.648  13.842 -1.5200 -0.1905  1.6954
  194DOPC   C2923997   2.163   1.618  13.911 -0.8397 -0.1574 -0.1242
  194DOPC   H9R23998   2.066   1.570  13.888 -0.3102 -1.7405  0.7820
  194DOPC  C21023999   2.182   1.696  14.024  0.5048 -0.2645  0.2487
  194DOPC  H10R24000   2.100   1.715  14.095  1.0043  0.0739  0.7405
  194DOPC  C21124001   2.311   1.759  14.074  0.0294 -0.0475  0.2923
  194DOPC  H11R24002   2.290   1.851  14.132 -3.4807  0.4486 -1.5237
  194DOPC  H11S24003   2.373   1.776  13.983  0.6302 -2.4805  0.1793
  194DOPC  C21224004   2.390   1.658  14.160  0.2707 -0.4476 -0.0372
  194DOPC  H12R24005   2.492   1.699  14.175  1.1567 -1.9642 -1.6076
  194DOPC  H12S24006   2.410   1.568  14.099 -0.8055 -0.8258  0.1606
  194DOPC  C21324007   2.327   1.621  14.295  0.2587  0.3103  0.8529
  194DOPC  H13R24008   2.224   1.583  14.284  0.0916  1.1389 -0.7251
  194DOPC  H13S24009   2.318   1.717  14.348  0.4093  1.3012 -0.8321
  194DOPC  C21424010   2.404   1.520  14.372  0.3464  0.2564 -0.1055
  194DOPC  H14R24011   2.351   1.497  14.467  0.6654  0.9125  0.2343
  194DOPC  H14S24012   2.493   1.568  14.418 -1.0385  0.7605  2.1997
  194DOPC  C21524013   2.442   1.384  14.299 -1.0801  0.0593 -0.0626
  194DOPC  H15R24014   2.483   1.312  14.373 -2.0816 -1.3404 -0.8398
  194DOPC  H15S24015   2.510   1.400  14.212  0.7504  3.1206  1.7131
  194DOPC  C21624016   2.323   1.304  14.246 -0.2514  0.5081  0.0463
  194DOPC  H16R24017   2.355   1.208  14.200 -0.3460  1.3679 -1.8896
  194DOPC  H16S24018   2.259   1.363  14.177 -1.1988  0.8196  1.1595
  194DOPC  C21724019   2.219   1.264  14.346  0.3774 -0.1282 -0.0906
  194DOPC  H17R24020   2.160   1.355  14.369 -0.2667 -0.5646  0.0266
  194DOPC  H17S24021   2.268   1.243  14.443 -1.1618  1.8921  1.1965
  194DOPC  C21824022   2.124   1.157  14.298  0.1957 -0.6992  0.1764
  194DOPC  H18R24023   2.037   1.133  14.362 -0.1025 -2.2356 -0.7399
  194DOPC  H18S24024   2.173   1.057  14.287  1.0218 -0.4952  1.7840
  194DOPC  H18T24025   2.084   1.185  14.198  0.2926  1.3148  0.6641
  194DOPC   C3324026   1.689   0.741  14.145 -0.1272  0.4649  0.0383
  194DOPC   H3X24027   1.654   0.637  14.127  0.5121  0.4956 -1.5534
  194DOPC   H3Y24028   1.645   0.799  14.061 -1.4954  0.4709  0.7335
  194DOPC   C3424029   1.631   0.803  14.266  0.5417 -0.5565  0.0413
  194DOPC   H4X24030   1.679   0.771  14.361  1.3416  1.3962  0.3575
  194DOPC   H4Y24031   1.528   0.763  14.276  1.2031 -2.5978 -0.7606
  194DOPC   C3524032   1.616   0.959  14.260  0.3570  0.6940 -0.1012
  194DOPC   H5X24033   1.561   0.979  14.165 -0.8462 -2.9438 -0.3252
  194DOPC   H5Y24034   1.716   1.005  14.272  0.6746 -0.6489  3.4030
  194DOPC   C3624035   1.529   1.021  14.374  0.5068  0.1368  0.0147
  194DOPC   H6X24036   1.513   1.123  14.333 -1.5867 -0.2560 -0.2411
  194DOPC   H6Y24037   1.429   0.978  14.397  0.7252 -1.9144 -2.3884
  194DOPC   C3724038   1.596   1.038  14.509 -1.1535  0.2050  0.0047
  194DOPC   H7X24039   1.630   0.938  14.543  1.5041  0.6658 -1.0700
  194DOPC   H7Y24040   1.685   1.101  14.487 -0.0905 -1.4311 -0.5994
  194DOPC   C3824041   1.518   1.115  14.620 -0.1098  0.1698  0.3031
  194DOPC   H8X24042   1.422   1.062  14.641 -0.8317  2.1658  2.4661
  194DOPC   H8Y24043   1.497   1.215  14.576  3.8397  0.9525 -0.1706
  194DOPC   C3924044   1.594   1.125  14.750  0.0579  0.0436 -0.3834
  194DOPC   H9X24045   1.598   1.036  14.815 -0.4848  0.8877  0.8312
  194DOPC  C31024046   1.658   1.232  14.800  0.3199 -0.3616 -0.0082
  194DOPC  H10X24047   1.716   1.217  14.892  1.6830  0.7102 -0.6559
  194DOPC  C31124048   1.673   1.366  14.731 -0.2444  0.2708  0.1199
  194DOPC  H11X24049   1.681   1.345  14.622 -0.9748 -3.6046  0.6361
  194DOPC  H11Y24050   1.771   1.409  14.761 -0.0377 -1.0286  1.4796
  194DOPC  C31224051   1.554   1.462  14.757  0.0555 -0.0574 -1.4141
  194DOPC  H12X24052   1.522   1.470  14.863 -0.9741  0.7887 -1.7736
  194DOPC  H12Y24053   1.466   1.409  14.714  0.8210 -2.4440 -0.2168
  194DOPC  C31324054   1.582   1.602  14.702  0.1277  0.2614  0.2686
  194DOPC  H13X24055   1.678   1.630  14.750  0.0351  0.7280  0.1895
  194DOPC  H13Y24056   1.599   1.616  14.593  0.6142 -0.7200  0.2135
  194DOPC  C31424057   1.483   1.707  14.758 -0.5836  0.5512 -1.0675
  194DOPC  H14X24058   1.496   1.801  14.700  1.9275  0.4775 -0.7162
  194DOPC  H14Y24059   1.379   1.670  14.741 -1.5718  2.3521  0.7546
  194DOPC  C31524060   1.491   1.740  14.909 -0.2483  0.1017 -0.2708
  194DOPC  H15X24061   1.598   1.753  14.938 -0.2810 -1.1849  0.5043
  194DOPC  H15Y24062   1.454   1.650  14.962 -0.4300  0.5629  0.3876
  194DOPC  C31624063   1.408   1.852  14.978  0.2121  0.6882 -0.2276
  194DOPC  H16X24064   1.431   1.952  14.934 -2.7168  2.1974  1.3725
  194DOPC  H16Y24065   1.303   1.823  14.956 -0.3494  0.8453  2.0258
  194DOPC  C31724066   1.426   1.846  15.130  0.4009 -0.4606  0.0940
  194DOPC  H17X24067   1.396   1.745  15.166 -1.5800  0.0393 -0.0146
  194DOPC  H17Y24068   1.530   1.862  15.166 -0.3267 -0.3267  2.2914
  194DOPC  C31824069   1.342   1.940  15.211 -0.2114 -0.3768  0.2537
  194DOPC  H18X24070   1.237   1.904  15.206 -0.2709 -0.8613  3.0869
  194DOPC  H18Y24071   1.373   1.922  15.316 -0.8343 -0.4583  0.4276
  194DOPC  H18Z24072   1.351   2.047  15.181 -1.8075 -0.3428 -0.1851
  195DOPC     N24073   5.756   1.595  13.082  0.1452  0.2263  0.8389
  195DOPC   C1224074   5.858   1.702  13.061 -1.3267  0.1329 -0.5411
  195DOPC  H12A24075   5.838   1.780  13.132  1.4623  0.9940 -0.5727
  195DOPC  H12B24076   5.863   1.740  12.960 -0.9429  1.8817  0.1154
  195DOPC   C1324077   5.616   1.643  13.057  0.4907  0.3932  0.0629
  195DOPC  H13A24078   5.612   1.741  13.102  1.3972  0.3979  0.1541
  195DOPC  H13B24079   5.588   1.650  12.953 -0.5286 -1.6974  0.1410
  195DOPC  H13C24080   5.549   1.567  13.095 -0.6990  0.0997 -2.4304
  195DOPC   C1424081   5.764   1.528  13.210 -0.5388 -0.1829  0.2125
  195DOPC  H14A24082   5.761   1.606  13.285 -3.1184 -1.2605  1.3497
  195DOPC  H14B24083   5.677   1.468  13.231 -1.2629  0.2961 -1.3104
  195DOPC  H14C24084   5.857   1.474  13.220 -0.3132  0.5121  2.8364
  195DOPC   C1524085   5.776   1.482  12.975  0.2956  0.0294  0.0071
  195DOPC  H15A24086   5.786   1.520  12.874  0.0178  0.5075  0.1558
  195DOPC  H15B24087   5.696   1.410  12.976 -0.5305  0.9105 -0.4497
  195DOPC  H15C24088   5.865   1.427  13.001  1.4903  2.3389  1.1597
  195DOPC   C1124089   6.007   1.654  13.071 -0.3097 -0.8439 -0.4444
  195DOPC  H11A24090   6.020   1.565  13.005 -2.0892 -1.6872  0.2738
  195DOPC  H11B24091   6.058   1.737  13.017 -0.6680 -0.0726  0.3868
  195DOPC     P24092   6.059   1.757  13.294 -0.8129 -0.0865  0.2745
  195DOPC   O1324093   5.925   1.797  13.341 -0.0742  0.0175 -0.1376
  195DOPC   O1424094   6.143   1.858  13.224 -0.4164 -0.4359 -0.2399
  195DOPC   O1224095   6.059   1.630  13.204  0.3092 -0.1187  0.0379
  195DOPC   O1124096   6.127   1.704  13.424  0.3985 -0.3598  0.5003
  195DOPC    C124097   6.161   1.567  13.428 -0.5104  0.6387 -0.0942
  195DOPC    HA24098   6.250   1.534  13.371 -1.5622 -3.2347  0.2324
  195DOPC    HB24099   6.079   1.500  13.393 -0.1637 -1.0585  2.1270
  195DOPC    C224100   6.194   1.519  13.570  0.0483  0.4833 -0.1193
  195DOPC    HS24101   6.102   1.554  13.622 -0.1089  0.8414 -0.6318
  195DOPC   O2124102   6.309   1.588  13.622 -0.2830  0.0536 -0.4814
  195DOPC   C2124103   6.310   1.613  13.750 -0.8939  0.2094  0.3763
  195DOPC   O2224104   6.219   1.615  13.824  0.1684  0.0784 -0.1369
  195DOPC   C2224105   6.457   1.660  13.792 -0.4058  0.1011 -0.1453
  195DOPC   H2R24106   6.447   1.762  13.835  0.6755 -0.4280  1.4121
  195DOPC   H2S24107   6.526   1.655  13.705  2.3399  1.0296  1.8421
  195DOPC    C324108   6.213   1.366  13.569 -0.2389 -0.2655 -0.1175
  195DOPC    HX24109   6.301   1.351  13.503  1.8201 -0.6102  2.5208
  195DOPC    HY24110   6.123   1.318  13.524 -2.0796  0.5436  2.4825
  195DOPC   O3124111   6.242   1.319  13.696  0.1656  0.0758  0.0664
  195DOPC   C3124112   6.143   1.282  13.779 -0.3403 -1.3517 -0.2003
  195DOPC   O3224113   6.026   1.269  13.743 -0.2163  0.0983  0.4893
  195DOPC   C3224114   6.191   1.270  13.922 -0.7216  0.1225 -0.4264
  195DOPC   H2X24115   6.243   1.172  13.926  0.1872  0.5041 -2.0648
  195DOPC   H2Y24116   6.266   1.348  13.948  1.3382 -2.1653  0.8463
  195DOPC   C2324117   6.509   1.572  13.905 -0.1920 -0.6188 -0.1043
  195DOPC   H3R24118   6.619   1.578  13.894 -0.2747  2.0252 -0.1360
  195DOPC   H3S24119   6.475   1.466  13.898  0.3565 -0.8567  0.6804
  195DOPC   C2424120   6.460   1.631  14.041  0.2797 -0.4198  0.0797
  195DOPC   H4R24121   6.349   1.625  14.037  0.3253 -2.7525  1.0489
  195DOPC   H4S24122   6.496   1.735  14.062 -0.3982 -0.6271  2.6167
  195DOPC   C2524123   6.502   1.550  14.168  0.0467  0.3020 -0.0546
  195DOPC   H5R24124   6.608   1.567  14.198  0.1766 -1.6120  0.6825
  195DOPC   H5S24125   6.489   1.442  14.144 -0.3533  0.6845 -1.6486
  195DOPC   C2624126   6.417   1.599  14.285  0.0904  0.2289  0.0053
  195DOPC   H6R24127   6.314   1.617  14.250  0.4992  3.5266  0.1913
  195DOPC   H6S24128   6.456   1.700  14.311 -0.6946  1.2844 -2.5801
  195DOPC   C2724129   6.408   1.492  14.395 -0.1711 -0.0499  0.5263
  195DOPC   H7R24130   6.513   1.466  14.422  0.2860  2.8292  1.9084
  195DOPC   H7S24131   6.357   1.404  14.351 -1.1158  1.3456 -1.2853
  195DOPC   C2824132   6.327   1.537  14.515 -0.0599  0.4157  0.7884
  195DOPC   H8R24133   6.306   1.446  14.576  0.8569 -0.5384 -0.2706
  195DOPC   H8S24134   6.231   1.585  14.486 -0.3311 -0.5476 -0.0005
  195DOPC   C2924135   6.411   1.631  14.599 -0.3646 -0.5141  0.3560
  195DOPC   H9R24136   6.472   1.701  14.540 -0.4172  0.4095  1.3651
  195DOPC  C21024137   6.432   1.635  14.733 -0.2785 -0.0148 -0.7078
  195DOPC  H10R24138   6.499   1.713  14.772 -1.8728  1.3948 -0.7190
  195DOPC  C21124139   6.342   1.550  14.824  0.0290  0.1403  0.2601
  195DOPC  H11R24140   6.265   1.497  14.764  1.8999 -1.2280 -1.0589
  195DOPC  H11S24141   6.302   1.614  14.905  2.8917  1.3756  0.7900
  195DOPC  C21224142   6.416   1.437  14.906 -1.1234 -0.3341 -0.0248
  195DOPC  H12R24143   6.514   1.482  14.932 -0.5370 -0.3819 -2.0007
  195DOPC  H12S24144   6.430   1.342  14.850 -1.8600 -0.7816  0.5397
  195DOPC  C21324145   6.348   1.409  15.042 -0.5836  0.4566 -0.2335
  195DOPC  H13R24146   6.362   1.502  15.102 -0.3263  0.9613 -1.0599
  195DOPC  H13S24147   6.405   1.333  15.099 -2.0696 -0.4485  0.0961
  195DOPC  C21424148   6.194   1.381  15.039 -0.5544  0.0001 -0.2174
  195DOPC  H14R24149   6.187   1.290  14.975 -0.4662  0.8750 -1.5145
  195DOPC  H14S24150   6.146   1.472  14.998  0.7335  1.6623  1.7638
  195DOPC  C21524151   6.140   1.355  15.183 -0.7735  0.5844 -0.3318
  195DOPC  H15R24152   6.040   1.315  15.154 -0.6640 -0.5055  0.6869
  195DOPC  H15S24153   6.122   1.446  15.243 -3.4891  0.1696 -0.3773
  195DOPC  C21624154   6.213   1.233  15.249 -0.2438 -0.0509 -0.2064
  195DOPC  H16R24155   6.313   1.268  15.283 -0.6720  0.5371  0.5029
  195DOPC  H16S24156   6.217   1.155  15.170 -0.2345  0.7894 -1.0523
  195DOPC  C21724157   6.152   1.165  15.377 -0.5470  0.4050 -0.1735
  195DOPC  H17R24158   6.176   1.241  15.455  0.2730 -0.4377  0.4281
  195DOPC  H17S24159   6.205   1.073  15.411  0.5750  0.9562 -0.3615
  195DOPC  C21824160   5.998   1.151  15.384 -0.6741 -0.2634  0.5646
  195DOPC  H18R24161   5.964   1.119  15.485 -1.3569  1.6940  0.9903
  195DOPC  H18S24162   5.961   1.072  15.315 -2.5715  0.5122  0.6154
  195DOPC  H18T24163   5.950   1.247  15.354 -0.4321  0.3105  1.9268
  195DOPC   C3324164   6.082   1.258  14.026 -0.6489  0.2876 -0.1864
  195DOPC   H3X24165   6.004   1.183  14.004 -1.0499  0.7842 -0.4795
  195DOPC   H3Y24166   6.033   1.358  14.023 -3.5895 -1.0708 -0.8371
  195DOPC   C3424167   6.139   1.232  14.172  0.1787  0.1716  0.2376
  195DOPC   H4X24168   6.222   1.297  14.208  1.6746 -0.6330 -1.6308
  195DOPC   H4Y24169   6.194   1.137  14.184 -0.4293 -0.3137 -0.7004
  195DOPC   C3524170   6.023   1.231  14.277 -0.2083  0.1829  0.1694
  195DOPC   H5X24171   5.925   1.230  14.225  0.5579 -3.8277 -1.5612
  195DOPC   H5Y24172   6.033   1.317  14.347  1.7015 -1.0795  1.5449
  195DOPC   C3624173   6.042   1.111  14.376  0.7309 -0.2866 -0.0667
  195DOPC   H6X24174   5.951   1.107  14.439  0.7339  0.9547  0.0278
  195DOPC   H6Y24175   6.035   1.015  14.319 -1.6118 -0.3484  0.2011
  195DOPC   C3724176   6.155   1.125  14.479  0.3674 -0.6787 -0.1666
  195DOPC   H7X24177   6.255   1.095  14.443  1.5774  0.5005  2.0326
  195DOPC   H7Y24178   6.164   1.232  14.509  3.6235 -0.9677  0.2254
  195DOPC   C3824179   6.116   1.054  14.612  0.4029  0.1508 -0.7034
  195DOPC   H8X24180   6.011   1.068  14.646  0.2271 -0.4785 -0.9626
  195DOPC   H8Y24181   6.195   1.083  14.684  0.4651 -0.4386 -0.5282
  195DOPC   C3924182   6.119   0.902  14.587  0.3996 -0.5575  0.3859
  195DOPC   H9X24183   6.072   0.874  14.492  0.1823  2.7559 -0.6127
  195DOPC  C31024184   6.166   0.810  14.665 -0.6486 -0.4920 -0.0282
  195DOPC  H10X24185   6.181   0.713  14.615 -0.2826  0.7763 -2.5858
  195DOPC  C31124186   6.222   0.817  14.806 -0.3254  0.4657 -0.4535
  195DOPC  H11X24187   6.167   0.744  14.870  1.2625 -0.8546 -0.5198
  195DOPC  H11Y24188   6.192   0.914  14.852 -2.6853 -0.7866  0.8720
  195DOPC  C31224189   6.361   0.776  14.841  0.4206  0.9880 -0.5035
  195DOPC  H12X24190   6.431   0.860  14.821  1.5783  0.4018  0.8888
  195DOPC  H12Y24191   6.387   0.688  14.779 -1.4597 -0.2735  0.4320
  195DOPC  C31324192   6.375   0.735  14.988 -0.4266  0.0001 -0.3633
  195DOPC  H13X24193   6.286   0.674  15.013  0.3115 -0.9512  0.0120
  195DOPC  H13Y24194   6.467   0.673  14.993 -0.0219  0.6287  0.2575
  195DOPC  C31424195   6.372   0.849  15.092 -0.0636 -0.6441 -0.2023
  195DOPC  H14X24196   6.288   0.919  15.077 -0.4823 -1.4839 -2.0532
  195DOPC  H14Y24197   6.362   0.813  15.196 -0.0758  1.3371  0.5143
  195DOPC  C31524198   6.505   0.933  15.096  0.4112 -0.1016 -0.2481
  195DOPC  H15X24199   6.533   0.968  14.995 -0.7078  0.9688 -0.2085
  195DOPC  H15Y24200   6.590   0.869  15.129 -0.9659 -1.4395  0.8256
  195DOPC  C31624201   6.511   1.068  15.180  0.6008 -0.1414 -0.1465
  195DOPC  H16X24202   6.428   1.129  15.140  0.5300 -1.0793 -1.4866
  195DOPC  H16Y24203   6.490   1.045  15.287  1.4818 -0.0015  0.0636
  195DOPC  C31724204   6.645   1.145  15.169  0.4249  0.2614  0.4205
  195DOPC  H17X24205   6.717   1.069  15.206  1.0528 -0.1345 -1.5118
  195DOPC  H17Y24206   6.667   1.159  15.061 -0.5190  2.0788  0.4245
  195DOPC  C31824207   6.669   1.266  15.253 -0.4931 -0.6097  0.0839
  195DOPC  H18X24208   6.682   1.242  15.361  1.8571  0.6337  0.1402
  195DOPC  H18Y24209   6.755   1.329  15.221  0.1338 -2.3725 -1.9686
  195DOPC  H18Z24210   6.577   1.325  15.234  0.0388  0.3259  0.3884
  196DOPC     N24211   0.181   1.923  13.130 -0.2587 -0.4649 -0.5523
  196DOPC   C1224212   0.188   1.936  13.279 -0.1312  0.1128 -0.3837
  196DOPC  H12A24213   0.129   1.856  13.322 -0.3333 -0.7028 -2.0948
  196DOPC  H12B24214   0.157   2.033  13.313 -0.1940 -0.8520  2.6508
  196DOPC   C1324215   0.217   2.060  13.066  0.5014 -0.5162  0.3119
  196DOPC  H13A24216   0.309   2.101  13.105  0.5930 -1.4891  1.1593
  196DOPC  H13B24217   0.238   2.052  12.961 -0.3071 -1.4545  0.2143
  196DOPC  H13C24218   0.143   2.137  13.084  1.9206  0.8459  0.5828
  196DOPC   C1424219   0.047   1.879  13.087  0.3071  0.2353  0.8619
  196DOPC  H14A24220   0.050   1.873  12.979  2.3414 -0.3748  0.9126
  196DOPC  H14B24221   0.026   1.783  13.130 -0.5959  1.3872  3.1741
  196DOPC  H14C24222  -0.031   1.953  13.095  0.0228  0.5428 -2.8846
  196DOPC   C1524223   0.281   1.821  13.091  1.0180  0.3828 -0.0982
  196DOPC  H15A24224   0.383   1.855  13.101  1.4775 -1.1345  0.7371
  196DOPC  H15B24225   0.270   1.799  12.986 -1.6105 -0.0393  0.2051
  196DOPC  H15C24226   0.255   1.728  13.140 -2.4620  0.8240 -0.8680
  196DOPC   C1124227   0.332   1.932  13.343  0.3030 -1.0968 -0.0827
  196DOPC  H11A24228   0.311   1.942  13.452 -1.4074 -2.6442 -0.2140
  196DOPC  H11B24229   0.370   1.828  13.338  1.1759 -0.7154 -3.2565
  196DOPC     P24230   0.449   2.172  13.339 -0.2032  0.1053 -0.3968
  196DOPC   O1324231   0.324   2.241  13.343  0.1137 -0.4429 -0.1784
  196DOPC   O1424232   0.555   2.233  13.247  0.8684  0.1932  0.0883
  196DOPC   O1224233   0.426   2.024  13.285 -0.0661 -0.3256 -0.3540
  196DOPC   O1124234   0.498   2.155  13.487 -0.5184  0.4939 -0.4617
  196DOPC    C124235   0.602   2.056  13.512  0.9198 -0.1778  0.4354
  196DOPC    HA24236   0.686   2.075  13.441 -1.9744  0.1865 -3.2015
  196DOPC    HB24237   0.561   1.957  13.482 -0.6261  0.5449  0.0517
  196DOPC    C224238   0.644   2.049  13.661 -0.1203  0.3361 -0.3834
  196DOPC    HS24239   0.701   1.954  13.673 -0.6601  0.3434  3.3799
  196DOPC   O2124240   0.534   2.057  13.753 -0.4927 -0.4128  0.0195
  196DOPC   C2124241   0.458   1.950  13.770 -0.3747 -0.0341 -0.0852
  196DOPC   O2224242   0.468   1.849  13.702  0.1282  0.0738  0.0324
  196DOPC   C2224243   0.356   1.980  13.878 -0.4171  0.3927  0.0007
  196DOPC   H2R24244   0.260   1.934  13.845 -1.1775  1.4146  0.7377
  196DOPC   H2S24245   0.357   2.086  13.910 -0.8681  0.6964 -0.9731
  196DOPC    C324246   0.744   2.168  13.700 -0.5139 -0.7611 -0.4192
  196DOPC    HX24247   0.699   2.265  13.669 -0.1878 -1.3807 -3.0392
  196DOPC    HY24248   0.830   2.142  13.635  1.1644 -3.4967  2.5700
  196DOPC   O3124249   0.773   2.164  13.844 -0.3630 -0.2273 -0.0138
  196DOPC   C3124250   0.692   2.238  13.917  0.1635  0.7787  0.1584
  196DOPC   O3224251   0.604   2.310  13.876  0.1896 -0.1063 -0.0983
  196DOPC   C3224252   0.735   2.215  14.063 -0.1540 -0.6388  0.2487
  196DOPC   H2X24253   0.743   2.105  14.070 -0.9672 -0.7416 -0.3377
  196DOPC   H2Y24254   0.837   2.258  14.071 -0.6945  0.7904 -0.1855
  196DOPC   C2324255   0.415   1.905  14.003  0.5869  0.3816  0.3246
  196DOPC   H3R24256   0.524   1.929  13.998 -0.0395  3.2854 -1.7118
  196DOPC   H3S24257   0.407   1.795  14.006 -0.4202  0.4374 -0.0582
  196DOPC   C2424258   0.352   1.954  14.130  0.3801  0.1175  0.1475
  196DOPC   H4R24259   0.247   1.917  14.130  0.0779  0.9323 -0.7816
  196DOPC   H4S24260   0.347   2.064  14.143 -0.0572 -0.1298  2.5346
  196DOPC   C2524261   0.424   1.881  14.242  0.2785  0.4841 -0.0492
  196DOPC   H5R24262   0.532   1.899  14.224  0.6514  0.5297  1.9623
  196DOPC   H5S24263   0.405   1.773  14.255  2.3728  0.2740  1.9337
  196DOPC   C2624264   0.403   1.938  14.378 -0.4636  0.9218  0.9801
  196DOPC   H6R24265   0.295   1.920  14.397 -1.1532 -0.3147 -3.0688
  196DOPC   H6S24266   0.424   2.047  14.374 -0.0067  0.7965 -0.4090
  196DOPC   C2724267   0.491   1.878  14.488 -0.8154 -0.2623  0.0282
  196DOPC   H7R24268   0.599   1.901  14.477 -0.1368 -1.1405  3.5536
  196DOPC   H7S24269   0.478   1.768  14.482  0.2522 -0.3147 -2.0123
  196DOPC   C2824270   0.439   1.928  14.625 -0.5798 -0.4593 -0.2261
  196DOPC   H8R24271   0.420   2.037  14.621  1.8666  0.1398  2.0262
  196DOPC   H8S24272   0.527   1.911  14.691  0.3089  0.2729 -1.1740
  196DOPC   C2924273   0.328   1.856  14.696 -0.1191  1.0608 -0.3074
  196DOPC   H9R24274   0.257   1.805  14.629 -0.0765  1.5379 -0.7233
  196DOPC  C21024275   0.311   1.833  14.829  0.4300 -0.0610 -0.2230
  196DOPC  H10R24276   0.232   1.765  14.864  1.4726 -1.9435 -1.3002
  196DOPC  C21124277   0.399   1.883  14.947 -0.0384 -0.7119  0.7525
  196DOPC  H11R24278   0.441   1.978  14.906 -0.8111 -0.4632  0.5357
  196DOPC  H11S24279   0.472   1.803  14.972 -2.0480 -3.4459 -1.5055
  196DOPC  C21224280   0.317   1.896  15.078 -0.1558  0.8225 -0.6917
  196DOPC  H12R24281   0.382   1.892  15.168 -1.7981 -3.0000  0.5447
  196DOPC  H12S24282   0.249   1.809  15.085  3.1757 -2.0688 -1.2851
  196DOPC  C21324283   0.231   2.025  15.084  0.1667 -0.3712  0.3098
  196DOPC  H13R24284   0.157   2.024  15.001 -0.8090 -0.3975  1.1516
  196DOPC  H13S24285   0.290   2.118  15.068  2.5464 -2.0140 -1.0149
  196DOPC  C21424286   0.160   2.032  15.225  0.5504 -0.0805 -0.3546
  196DOPC  H14R24287   0.233   2.052  15.306 -1.2483  2.4009  0.7792
  196DOPC  H14S24288   0.107   1.936  15.247  0.2814  0.4115  1.2117
  196DOPC  C21524289   0.057   2.142  15.213  0.2977 -0.2817 -0.1688
  196DOPC  H15R24290  -0.010   2.124  15.126  1.1635  1.4531 -1.2517
  196DOPC  H15S24291   0.114   2.232  15.179 -0.8083  0.4772 -0.0557
  196DOPC  C21624292  -0.022   2.190  15.341 -0.0768  0.0536  0.2668
  196DOPC  H16R24293  -0.086   2.102  15.365 -0.0702  0.1044  0.4740
  196DOPC  H16S24294  -0.085   2.279  15.316  1.6527  0.7085 -2.0328
  196DOPC  C21724295   0.063   2.249  15.453  0.2187 -0.1939  0.5043
  196DOPC  H17R24296   0.143   2.190  15.501  0.2960  0.3575  1.0630
  196DOPC  H17S24297  -0.013   2.264  15.533  1.4886 -3.0670  2.4244
  196DOPC  C21824298   0.137   2.380  15.399  0.0570 -0.1562 -0.4323
  196DOPC  H18R24299   0.194   2.424  15.484  0.2506 -0.5841 -0.3398
  196DOPC  H18S24300   0.056   2.439  15.351  0.4417 -1.5246 -2.8789
  196DOPC  H18T24301   0.208   2.362  15.317  3.6965  3.9745  1.3758
  196DOPC   C3324302   0.649   2.269  14.178 -0.0961 -0.2811  0.0973
  196DOPC   H3X24303   0.549   2.221  14.169 -0.3779  0.3843 -0.4003
  196DOPC   H3Y24304   0.636   2.378  14.168 -0.5905 -0.3130  0.3929
  196DOPC   C3424305   0.723   2.237  14.308  0.0752  0.5007  0.3438
  196DOPC   H4X24306   0.824   2.282  14.301 -0.2215  1.0786 -0.4228
  196DOPC   H4Y24307   0.721   2.126  14.317  0.7104  0.5445  1.0909
  196DOPC   C3524308   0.652   2.300  14.430 -0.1352 -0.7721 -0.2293
  196DOPC   H5X24309   0.550   2.255  14.433  0.3775 -1.9235  0.8319
  196DOPC   H5Y24310   0.650   2.411  14.434 -0.8811 -0.8102  1.0096
  196DOPC   C3624311   0.723   2.248  14.559  0.3717 -0.0170  0.0584
  196DOPC   H6X24312   0.729   2.138  14.543  0.2866 -0.1069  0.6190
  196DOPC   H6Y24313   0.824   2.291  14.569  0.3951  0.4656 -1.9162
  196DOPC   C3724314   0.649   2.276  14.692  0.6992  0.2976  0.4964
  196DOPC   H7X24315   0.617   2.382  14.686  1.8147  0.5819 -2.2011
  196DOPC   H7Y24316   0.569   2.199  14.695  1.1959 -0.2433  0.1214
  196DOPC   C3824317   0.740   2.255  14.818  0.3355 -0.2006 -0.4121
  196DOPC   H8X24318   0.802   2.165  14.802  0.1542 -0.2643 -0.7788
  196DOPC   H8Y24319   0.671   2.244  14.904 -0.5075 -0.0760 -1.0500
  196DOPC   C3924320   0.838   2.367  14.833  0.5497 -0.9458  0.2019
  196DOPC   H9X24321   0.820   2.448  14.761  2.4420 -1.3976 -0.8447
  196DOPC  C31024322   0.950   2.377  14.910  0.0632 -0.4936  0.1427
  196DOPC  H10X24323   1.001   2.474  14.907 -0.6650 -0.1249 -1.0086
  196DOPC  C31124324   0.990   2.262  14.999 -0.3365  0.1715 -0.7970
  196DOPC  H11X24325   1.079   2.206  14.962 -0.0197  1.8477 -2.7460
  196DOPC  H11Y24326   0.910   2.187  15.013 -2.0301  1.9650 -0.5094
  196DOPC  C31224327   1.027   2.313  15.145 -0.0493 -0.6904  0.3197
  196DOPC  H12X24328   0.954   2.391  15.176  2.3324  1.1019  1.7321
  196DOPC  H12Y24329   1.123   2.368  15.158 -0.0974  0.8925 -4.2526
  196DOPC  C31324330   1.017   2.205  15.246  0.0354  0.5062 -0.7392
  196DOPC  H13X24331   0.911   2.185  15.273  0.0991  0.2817 -0.6506
  196DOPC  H13Y24332   1.055   2.108  15.206  0.9476  1.2338 -1.7090
  196DOPC  C31424333   1.087   2.230  15.378  0.3265  0.2088 -0.2262
  196DOPC  H14X24334   1.195   2.246  15.361  0.3617 -0.7046 -0.8810
  196DOPC  H14Y24335   1.041   2.319  15.427 -2.1093 -2.1188  2.0624
  196DOPC  C31524336   1.079   2.109  15.478 -1.1680  0.0005 -0.3412
  196DOPC  H15X24337   1.102   2.132  15.584 -0.0303 -3.4765  0.3185
  196DOPC  H15Y24338   1.160   2.039  15.447 -0.5754 -0.5805  2.2447
  196DOPC  C31624339   0.945   2.039  15.493 -0.3021 -0.5261 -0.1263
  196DOPC  H16X24340   0.868   2.112  15.526 -0.3911  0.4809 -2.3716
  196DOPC  H16Y24341   0.915   1.981  15.403  0.1458 -0.5306 -0.2770
  196DOPC  C31724342   0.946   1.932  15.603 -0.3283 -0.0900 -0.0270
  196DOPC  H17X24343   0.988   1.837  15.561 -1.1612 -0.6975  0.4745
  196DOPC  H17Y24344   1.014   1.971  15.682  1.6146  0.1781 -1.7353
  196DOPC  C31824345   0.806   1.907  15.654 -0.1043 -0.0152 -0.7570
  196DOPC  H18X24346   0.810   1.839  15.742  1.4371  1.6168  0.4970
  196DOPC  H18Y24347   0.754   2.003  15.676  0.4589  0.0518  0.3691
  196DOPC  H18Z24348   0.750   1.850  15.577 -1.1726 -1.3638  0.9204
  197DOPC     N24349   1.266   7.091  13.247 -0.2408 -0.3869 -0.0319
  197DOPC   C1224350   1.339   7.062  13.382  0.2405 -1.1684 -0.1052
  197DOPC  H12A24351   1.423   7.000  13.353  0.0782 -1.0585 -0.8373
  197DOPC  H12B24352   1.271   7.006  13.444 -0.8730  2.0136  1.7755
  197DOPC   C1324353   1.151   7.188  13.286 -0.1853  0.2623 -0.2085
  197DOPC  H13A24354   1.204   7.275  13.323 -1.9070  1.3881 -0.2788
  197DOPC  H13B24355   1.098   7.215  13.196 -0.7396 -0.7953 -0.2095
  197DOPC  H13C24356   1.087   7.140  13.359 -0.4747 -0.5947 -1.0014
  197DOPC   C1424357   1.210   6.970  13.196 -0.3957  0.3245  0.8751
  197DOPC  H14A24358   1.289   6.896  13.191 -0.2614  0.5344 -2.7262
  197DOPC  H14B24359   1.136   6.932  13.265  1.0290  0.1017  2.3302
  197DOPC  H14C24360   1.166   6.987  13.098  0.9858  0.5466  0.2668
  197DOPC   C1524361   1.358   7.145  13.138 -0.5855  0.1410  0.3596
  197DOPC  H15A24362   1.302   7.173  13.050 -0.3295  1.1255  0.5020
  197DOPC  H15B24363   1.429   7.068  13.110  0.0278  0.1665  1.7443
  197DOPC  H15C24364   1.417   7.227  13.177  0.3432 -0.4962  0.3301
  197DOPC   C1124365   1.400   7.173  13.466  0.1955  0.2571  0.3697
  197DOPC  H11A24366   1.324   7.249  13.495  1.0255  0.7571  1.3237
  197DOPC  H11B24367   1.448   7.140  13.561 -0.7357  1.0735  1.1456
  197DOPC     P24368   1.655   7.194  13.411 -0.2360 -0.2360  0.0897
  197DOPC   O1324369   1.748   7.303  13.375  0.6468  0.1648  0.2674
  197DOPC   O1424370   1.674   7.071  13.332  0.1860  0.0900 -0.8053
  197DOPC   O1224371   1.500   7.239  13.390 -0.7542  0.8191 -0.7320
  197DOPC   O1124372   1.669   7.166  13.566  0.2664  0.4111 -0.4025
  197DOPC    C124373   1.671   7.282  13.648  0.6351 -0.2145 -0.2687
  197DOPC    HA24374   1.571   7.332  13.645  1.0684  0.7017  0.0597
  197DOPC    HB24375   1.737   7.367  13.620 -0.6122  0.7053 -0.4940
  197DOPC    C224376   1.688   7.229  13.797  0.4171 -0.5289 -0.0436
  197DOPC    HS24377   1.675   7.316  13.864 -1.1880  0.0002 -0.9782
  197DOPC   O2124378   1.811   7.179  13.817  0.5009  0.1467  0.0359
  197DOPC   C2124379   1.909   7.261  13.839 -0.4703 -0.2905 -0.2349
  197DOPC   O2224380   1.911   7.382  13.818 -0.5372  0.3012  0.2031
  197DOPC   C2224381   2.021   7.177  13.904  0.1271  0.2087  0.1771
  197DOPC   H2R24382   2.104   7.190  13.831  0.5927 -0.4891  0.5757
  197DOPC   H2S24383   1.997   7.069  13.905 -0.6002  0.3593  1.8676
  197DOPC    C324384   1.593   7.114  13.831 -0.3266 -0.0535  0.2180
  197DOPC    HX24385   1.608   7.031  13.760  0.1218 -0.1609  0.4356
  197DOPC    HY24386   1.493   7.156  13.809  0.2205  0.9998 -0.3579
  197DOPC   O3124387   1.604   7.073  13.968  0.5613  0.2488 -0.4548
  197DOPC   C3124388   1.641   6.941  13.988  0.6286  0.1088 -0.1601
  197DOPC   O3224389   1.648   6.852  13.905  0.3869 -0.0672 -0.7510
  197DOPC   C3224390   1.668   6.923  14.134 -0.2925 -0.0414 -0.1192
  197DOPC   H2X24391   1.727   6.831  14.150 -1.4353 -1.0185 -1.3021
  197DOPC   H2Y24392   1.721   7.010  14.178  1.4251 -1.4263  0.6857
  197DOPC   C2324393   2.056   7.244  14.033  0.2581  0.6931 -0.4286
  197DOPC   H3R24394   2.070   7.354  14.027  2.5475  0.4693 -0.2744
  197DOPC   H3S24395   2.156   7.199  14.055 -0.8252 -1.7681 -0.1915
  197DOPC   C2424396   1.978   7.201  14.158  0.7888 -0.4212  0.3844
  197DOPC   H4R24397   2.045   7.197  14.246  0.5039  1.6380  0.7389
  197DOPC   H4S24398   1.940   7.097  14.148 -1.8425  0.5544 -0.8667
  197DOPC   C2524399   1.861   7.291  14.204  0.1053  0.4824 -0.2542
  197DOPC   H5R24400   1.799   7.246  14.284  1.1806 -0.1757  0.2330
  197DOPC   H5S24401   1.794   7.303  14.116 -2.2089 -0.6763  1.2457
  197DOPC   C2624402   1.891   7.437  14.238 -0.0003 -0.8109  0.3593
  197DOPC   H6R24403   1.920   7.507  14.158  1.5781 -1.0599  0.6876
  197DOPC   H6S24404   1.978   7.433  14.307  2.1327  0.7253 -2.0926
  197DOPC   C2724405   1.774   7.490  14.320  0.0425 -0.0472  0.4918
  197DOPC   H7R24406   1.746   7.427  14.407 -2.3357  1.3579  0.8406
  197DOPC   H7S24407   1.686   7.501  14.252 -0.2711 -0.5297  0.8151
  197DOPC   C2824408   1.795   7.635  14.371  0.6450 -0.3203  0.2021
  197DOPC   H8R24409   1.708   7.693  14.406  1.7041  1.1405  0.4999
  197DOPC   H8S24410   1.828   7.691  14.280 -2.3283  1.3978  0.0590
  197DOPC   C2924411   1.911   7.645  14.466  0.4022  0.5104 -0.2133
  197DOPC   H9R24412   1.997   7.706  14.434  0.1804  2.4258  2.5204
  197DOPC  C21024413   1.915   7.607  14.597  0.3263 -0.0302 -0.4178
  197DOPC  H10R24414   2.006   7.626  14.656 -0.9299  1.9290  1.0546
  197DOPC  C21124415   1.802   7.551  14.676  0.7881 -0.5909 -0.5309
  197DOPC  H11R24416   1.701   7.573  14.637 -0.4504 -4.2467  0.2693
  197DOPC  H11S24417   1.803   7.606  14.772  0.2187 -0.4891 -0.5816
  197DOPC  C21224418   1.803   7.401  14.705 -0.2544  0.0956 -0.3587
  197DOPC  H12R24419   1.900   7.368  14.748 -0.5069  0.2470  0.3477
  197DOPC  H12S24420   1.789   7.344  14.611  1.0165  2.5582 -2.1568
  197DOPC  C21324421   1.692   7.347  14.802  0.1092 -0.5367  0.5417
  197DOPC  H13R24422   1.594   7.354  14.749 -0.2056 -0.2125  1.1663
  197DOPC  H13S24423   1.690   7.419  14.886  0.3556 -0.0639  0.1491
  197DOPC  C21424424   1.713   7.208  14.847  0.1583  0.2283 -0.4742
  197DOPC  H14R24425   1.820   7.199  14.876  0.7674  3.2851 -1.4739
  197DOPC  H14S24426   1.698   7.138  14.761  1.9607 -2.1838  1.0369
  197DOPC  C21524427   1.614   7.183  14.959  0.0160 -0.0061  0.6884
  197DOPC  H15R24428   1.509   7.207  14.932  0.0697  0.2778  0.7274
  197DOPC  H15S24429   1.631   7.250  15.046  2.3343 -0.8962  0.9973
  197DOPC  C21624430   1.610   7.032  15.007 -0.3785 -0.6287 -0.2473
  197DOPC  H16R24431   1.539   6.988  14.934  0.2623  0.2369 -1.4261
  197DOPC  H16S24432   1.565   7.025  15.108  1.0097 -0.7886  0.3831
  197DOPC  C21724433   1.749   6.960  15.003 -0.0014  0.5510 -0.1315
  197DOPC  H17R24434   1.801   6.994  14.912 -0.0101  1.7933  0.3051
  197DOPC  H17S24435   1.728   6.851  15.011 -1.3617  0.7948 -0.0356
  197DOPC  C21824436   1.842   6.988  15.121 -0.6345 -0.6480  0.6327
  197DOPC  H18R24437   1.858   7.098  15.130  1.6052 -0.9141  0.4535
  197DOPC  H18S24438   1.936   6.930  15.112  0.1298  0.7970 -1.5246
  197DOPC  H18T24439   1.792   6.957  15.216 -2.1971 -1.9621 -0.5613
  197DOPC   C3324440   1.538   6.911  14.218 -0.2462  0.7754  0.1281
  197DOPC   H3X24441   1.456   6.865  14.158 -0.7541  1.2832  0.4230
  197DOPC   H3Y24442   1.517   7.013  14.256 -1.6588  0.1457  1.1797
  197DOPC   C3424443   1.555   6.820  14.341 -0.2066 -0.3647 -0.0460
  197DOPC   H4X24444   1.591   6.720  14.307  1.6380  1.1456 -2.8728
  197DOPC   H4Y24445   1.460   6.816  14.398  0.7670  0.5930  1.7240
  197DOPC   C3524446   1.659   6.871  14.443  0.2083 -0.2442  0.4334
  197DOPC   H5X24447   1.607   6.957  14.491 -2.4168 -1.4291 -0.1328
  197DOPC   H5Y24448   1.748   6.906  14.386 -0.9075  2.0642 -0.0124
  197DOPC   C3624449   1.695   6.774  14.548 -0.4619 -0.3230  0.5105
  197DOPC   H6X24450   1.752   6.823  14.631 -0.6371 -3.4653  2.6683
  197DOPC   H6Y24451   1.606   6.732  14.599  0.0497 -0.3857  1.3762
  197DOPC   C3724452   1.784   6.665  14.499 -0.4480 -0.2901  0.0824
  197DOPC   H7X24453   1.735   6.610  14.416 -2.4155 -0.4793  1.3043
  197DOPC   H7Y24454   1.869   6.720  14.451 -0.9997 -0.7011 -1.4174
  197DOPC   C3824455   1.828   6.574  14.613  0.3756 -0.3857 -0.4119
  197DOPC   H8X24456   1.880   6.635  14.690  2.0276 -1.4382 -0.6360
  197DOPC   H8Y24457   1.910   6.506  14.580  1.0764 -0.2178  0.9211
  197DOPC   C3924458   1.721   6.487  14.671 -0.4874  0.4317  0.8672
  197DOPC   H9X24459   1.676   6.415  14.601 -0.2853  0.5872  0.5717
  197DOPC  C31024460   1.668   6.511  14.795 -0.4111 -0.4506  0.1345
  197DOPC  H10X24461   1.591   6.442  14.834 -1.9151  0.4647 -1.1043
  197DOPC  C31124462   1.708   6.611  14.892  0.0197 -0.1120  0.3691
  197DOPC  H11X24463   1.622   6.681  14.881  1.0112  0.9266 -1.0278
  197DOPC  H11Y24464   1.790   6.681  14.865  0.9379 -1.8638 -1.6996
  197DOPC  C31224465   1.723   6.557  15.039 -0.3170 -0.6846  0.2417
  197DOPC  H12X24466   1.785   6.629  15.097 -0.6311 -0.3408  0.1546
  197DOPC  H12Y24467   1.785   6.465  15.046 -2.9528 -2.7210 -1.4920
  197DOPC  C31324468   1.590   6.524  15.109 -0.6143 -0.3536  0.0821
  197DOPC  H13X24469   1.506   6.562  15.047 -0.5729 -1.0109 -0.3845
  197DOPC  H13Y24470   1.571   6.416  15.091  1.5724 -0.5258 -1.7399
  197DOPC  C31424471   1.570   6.564  15.255 -0.6203 -0.4290  1.0015
  197DOPC  H14X24472   1.482   6.509  15.294  0.2213 -1.4931  1.4597
  197DOPC  H14Y24473   1.651   6.521  15.319 -0.5155  0.6360  1.6024
  197DOPC  C31524474   1.549   6.717  15.269 -0.0261 -0.9544 -0.3821
  197DOPC  H15X24475   1.454   6.753  15.223  0.5504 -0.2685 -1.0632
  197DOPC  H15Y24476   1.632   6.771  15.219 -0.2266 -0.1329  0.1623
  197DOPC  C31624477   1.538   6.764  15.417 -0.0126 -0.8010 -0.0650
  197DOPC  H16X24478   1.620   6.733  15.485 -1.2531 -1.0104  1.4036
  197DOPC  H16Y24479   1.543   6.875  15.410  0.2361 -0.9109 -2.4333
  197DOPC  C31724480   1.406   6.716  15.480  0.0652  0.0151 -0.2579
  197DOPC  H17X24481   1.379   6.792  15.557  0.2724  0.4944 -0.6480
  197DOPC  H17Y24482   1.321   6.727  15.409 -1.6707 -2.4427  1.2912
  197DOPC  C31824483   1.395   6.584  15.555  0.3352 -0.1095  0.5955
  197DOPC  H18X24484   1.488   6.568  15.613  0.8651  2.2803  0.5173
  197DOPC  H18Y24485   1.304   6.600  15.618 -0.3755  2.5578 -0.9273
  197DOPC  H18Z24486   1.381   6.500  15.484  0.6260 -0.0780  0.5009
  198DOPC     N24487   6.812   0.367  12.644  0.0665 -0.0555  0.3557
  198DOPC   C1224488   6.779   0.338  12.787 -0.2801 -0.2544 -0.1151
  198DOPC  H12A24489   6.813   0.242  12.824 -0.2879  0.6378  2.3818
  198DOPC  H12B24490   6.671   0.336  12.790 -0.2539 -0.9400  1.0167
  198DOPC   C1324491   6.751   0.496  12.594  0.0450  0.3428  0.2789
  198DOPC  H13A24492   6.784   0.527  12.496  0.0758  2.4973  0.9395
  198DOPC  H13B24493   6.645   0.497  12.575  0.4928  2.0857 -2.8958
  198DOPC  H13C24494   6.773   0.573  12.666 -0.6278 -0.2325  1.1195
  198DOPC   C1424495   6.770   0.261  12.549  0.2607  0.1108  1.0567
  198DOPC  H14A24496   6.810   0.164  12.575 -0.5966 -1.0467 -1.6025
  198DOPC  H14B24497   6.662   0.252  12.555  0.1212  1.0735  0.1158
  198DOPC  H14C24498   6.802   0.280  12.448 -0.7281 -1.2397  0.4576
  198DOPC   C1524499   6.957   0.377  12.633  0.0893 -0.0348 -0.7091
  198DOPC  H15A24500   6.990   0.462  12.692  0.1943  0.0973 -0.9562
  198DOPC  H15B24501   6.990   0.393  12.532  3.1755  2.8900  0.5587
  198DOPC  H15C24502   7.011   0.292  12.672 -1.7597 -0.4564  1.0748
  198DOPC   C1124503   6.830   0.435  12.896  0.7045  0.0615 -0.0328
  198DOPC  H11A24504   6.797   0.537  12.870  3.2924  1.3234  1.3001
  198DOPC  H11B24505   6.779   0.399  12.988 -1.1861  0.2011 -0.9893
  198DOPC     P24506   7.048   0.305  12.971  0.1141  0.0714 -0.2234
  198DOPC   O1324507   7.178   0.347  13.016  0.1744 -0.0093  0.1418
  198DOPC   O1424508   7.052   0.200  12.867 -0.3372 -0.3503 -0.7264
  198DOPC   O1224509   6.971   0.436  12.917  0.6323 -0.0848 -0.1963
  198DOPC   O1124510   6.965   0.258  13.095  0.3153 -0.5832  0.1997
  198DOPC    C124511   6.942   0.340  13.212  0.2764  0.6084 -0.3851
  198DOPC    HA24512   6.854   0.293  13.262 -0.1411  1.4935 -0.2687
  198DOPC    HB24513   6.915   0.446  13.192 -1.2327  0.2087 -0.6436
  198DOPC    C224514   7.050   0.312  13.319  0.6399 -0.4774  0.4811
  198DOPC    HS24515   7.147   0.347  13.276  0.0078  1.5653  0.6507
  198DOPC   O2124516   7.055   0.170  13.345 -0.2630 -0.2915  0.1417
  198DOPC   C2124517   7.149   0.119  13.420 -0.9575  0.0579 -0.2435
  198DOPC   O2224518   7.250   0.180  13.448  0.4935 -0.3816 -0.2681
  198DOPC   C2224519   7.114  -0.020  13.448 -0.5291 -0.4824 -0.3375
  198DOPC   H2R24520   7.113  -0.075  13.351  0.5614 -0.9967 -0.0840
  198DOPC   H2S24521   7.010  -0.014  13.485 -0.4285  0.3742 -0.1821
  198DOPC    C324522   7.025   0.392  13.452  0.7815 -0.2671 -0.3525
  198DOPC    HX24523   7.070   0.492  13.431 -1.1941  1.0010  1.0700
  198DOPC    HY24524   7.094   0.354  13.530 -0.1392 -0.7843  0.2296
  198DOPC   O3124525   6.882   0.404  13.495  0.0575  0.1442 -0.6080
  198DOPC   C3124526   6.849   0.291  13.570 -0.1003 -0.2835 -0.7139
  198DOPC   O3224527   6.931   0.206  13.606  0.6665 -0.3104 -0.4059
  198DOPC   C3224528   6.707   0.300  13.614 -0.4824 -0.1980  1.2705
  198DOPC   H2X24529   6.680   0.403  13.646  0.2923  0.9455 -1.4939
  198DOPC   H2Y24530   6.649   0.291  13.520  1.4220  2.1458 -0.2500
  198DOPC   C2324531   7.218  -0.084  13.550 -0.9596  0.3768  0.8448
  198DOPC   H3R24532   7.321  -0.053  13.520  0.2283 -0.6322  3.5358
  198DOPC   H3S24533   7.218  -0.195  13.537  1.9768  0.3838 -0.0728
  198DOPC   C2424534   7.189  -0.046  13.693 -0.3403  0.2174  0.1508
  198DOPC   H4R24535   7.136   0.052  13.698  0.7721  0.8292  0.1833
  198DOPC   H4S24536   7.276  -0.033  13.760 -0.4631  0.9854  0.1689
  198DOPC   C2524537   7.098  -0.155  13.757 -0.9518 -0.3081 -0.1495
  198DOPC   H5R24538   7.146  -0.254  13.745  0.6703  0.6347 -1.8555
  198DOPC   H5S24539   7.002  -0.144  13.703 -1.6642  2.1169  1.4064
  198DOPC   C2624540   7.072  -0.129  13.910  0.2066  0.4316 -0.3129
  198DOPC   H6R24541   7.021  -0.034  13.937 -2.5003 -1.5095  2.0287
  198DOPC   H6S24542   7.168  -0.140  13.964  0.2644 -1.4181 -0.7310
  198DOPC   C2724543   6.989  -0.241  13.978  0.0491 -0.2051 -0.7943
  198DOPC   H7R24544   7.040  -0.339  13.972 -0.1916 -0.3529 -0.4998
  198DOPC   H7S24545   6.889  -0.245  13.929 -0.4453 -0.1619  0.1673
  198DOPC   C2824546   6.968  -0.213  14.137 -0.5020  0.0687  0.2946
  198DOPC   H8R24547   6.909  -0.119  14.135  1.5260  1.4568 -2.9749
  198DOPC   H8S24548   7.062  -0.181  14.188 -0.1109 -1.4189  0.5531
  198DOPC   C2924549   6.909  -0.325  14.210 -0.5174 -0.2808  0.1251
  198DOPC   H9R24550   6.879  -0.412  14.151 -2.5169 -2.5541  4.0325
  198DOPC  C21024551   6.911  -0.336  14.345  0.1807 -0.0181 -0.0227
  198DOPC  H10R24552   6.858  -0.421  14.389  1.4341 -0.9637 -0.3023
  198DOPC  C21124553   6.968  -0.228  14.439 -0.2820  0.1942  0.2578
  198DOPC  H11R24554   6.956  -0.125  14.399  4.9057  1.1434  0.4066
  198DOPC  H11S24555   7.075  -0.249  14.460  0.1332  0.2732 -1.5736
  198DOPC  C21224556   6.902  -0.225  14.582 -0.2959  0.5034  0.1946
  198DOPC  H12R24557   6.935  -0.311  14.644  0.6971  0.1103 -0.8404
  198DOPC  H12S24558   6.795  -0.250  14.565 -0.0521  0.3325 -1.1580
  198DOPC  C21324559   6.908  -0.086  14.656  0.4157 -0.5047 -0.1896
  198DOPC  H13R24560   6.844  -0.021  14.592 -1.0920 -0.1304  1.6077
  198DOPC  H13S24561   7.014  -0.055  14.668  0.5313 -1.0039  0.1132
  198DOPC  C21424562   6.824  -0.091  14.782 -0.2624 -1.1977  0.0403
  198DOPC  H14R24563   6.873  -0.155  14.858  0.3187  0.4954  1.1570
  198DOPC  H14S24564   6.725  -0.140  14.773  0.3612 -2.9299  1.9689
  198DOPC  C21524565   6.801   0.049  14.843  0.4022 -0.0237 -0.6814
  198DOPC  H15R24566   6.763   0.128  14.775 -1.1292  2.3032  2.5769
  198DOPC  H15S24567   6.898   0.085  14.882 -0.1264 -0.7327  1.4329
  198DOPC  C21624568   6.695   0.040  14.953 -0.0175  0.0201  0.0174
  198DOPC  H16R24569   6.732  -0.034  15.027  0.4049  0.4513  0.2493
  198DOPC  H16S24570   6.612  -0.007  14.897 -1.3953 -1.0045  2.7565
  198DOPC  C21724571   6.663   0.174  15.009  0.4231  0.9115  0.9130
  198DOPC  H17R24572   6.630   0.247  14.932  0.1032 -1.4941 -1.3736
  198DOPC  H17S24573   6.750   0.225  15.057  0.2534  1.6367  0.4555
  198DOPC  C21824574   6.558   0.163  15.120 -0.5419  0.4205 -1.4098
  198DOPC  H18R24575   6.533   0.263  15.161  1.7031 -0.4598  2.6530
  198DOPC  H18S24576   6.593   0.095  15.201 -0.2684  0.8687 -1.1468
  198DOPC  H18T24577   6.461   0.118  15.089 -0.4193  0.1672 -1.4252
  198DOPC   C3324578   6.663   0.192  13.722 -0.9572  0.1782  0.1665
  198DOPC   H3X24579   6.677   0.088  13.686  1.1507  0.7300 -0.7266
  198DOPC   H3Y24580   6.556   0.214  13.744 -0.7215  1.9515 -0.3350
  198DOPC   C3424581   6.727   0.206  13.862 -0.3403 -0.3242 -0.0287
  198DOPC   H4X24582   6.704   0.308  13.900  0.2010  0.2432 -1.1452
  198DOPC   H4Y24583   6.837   0.188  13.867 -0.1501  0.0832 -1.8758
  198DOPC   C3524584   6.681   0.107  13.959 -0.1204  0.4859 -0.3192
  198DOPC   H5X24585   6.701   0.008  13.912 -1.8106 -1.0089  1.8722
  198DOPC   H5Y24586   6.571   0.107  13.976  0.1011 -0.0466  1.2859
  198DOPC   C3624587   6.752   0.122  14.097  0.5783 -0.2158 -0.1566
  198DOPC   H6X24588   6.857   0.085  14.101  1.2474  1.6640  1.1159
  198DOPC   H6Y24589   6.749   0.230  14.122  0.9494 -0.5028  1.2397
  198DOPC   C3724590   6.671   0.045  14.201 -0.4906 -0.5094 -0.0218
  198DOPC   H7X24591   6.563   0.070  14.200 -0.1801  0.8945 -0.8544
  198DOPC   H7Y24592   6.688  -0.062  14.178  0.5343 -0.5284  0.7259
  198DOPC   C3824593   6.738   0.064  14.335 -0.3797  0.6503  0.1021
  198DOPC   H8X24594   6.843   0.030  14.323 -0.0159  1.0855  1.7593
  198DOPC   H8Y24595   6.696  -0.018  14.398  0.8224 -1.0789 -1.2235
  198DOPC   C3924596   6.726   0.201  14.393  0.7033 -0.6803  0.7712
  198DOPC   H9X24597   6.802   0.277  14.369  0.0777 -0.1726  0.3495
  198DOPC  C31024598   6.634   0.228  14.481  0.0741  0.2371 -0.3268
  198DOPC  H10X24599   6.639   0.324  14.535 -1.0043 -1.1652  2.4799
  198DOPC  C31124600   6.534   0.121  14.530 -0.3226 -0.3613 -0.0611
  198DOPC  H11X24601   6.575   0.066  14.617  0.1608  0.0851 -0.0050
  198DOPC  H11Y24602   6.508   0.039  14.460  2.0257  0.9388 -2.6663
  198DOPC  C31224603   6.400   0.182  14.572  0.2884  0.3081  0.3902
  198DOPC  H12X24604   6.327   0.101  14.589  0.0429  0.3185 -0.6042
  198DOPC  H12Y24605   6.355   0.243  14.491 -0.1510 -1.1143 -0.4518
  198DOPC  C31324606   6.407   0.279  14.694  0.3193  0.3800  0.0216
  198DOPC  H13X24607   6.469   0.227  14.770  1.4846 -1.1244 -1.8668
  198DOPC  H13Y24608   6.456   0.373  14.662  0.8155 -0.2822 -1.1979
  198DOPC  C31424609   6.271   0.302  14.765  0.7207  0.6594  1.0625
  198DOPC  H14X24610   6.189   0.339  14.699 -1.1464 -1.3964  2.1048
  198DOPC  H14Y24611   6.236   0.199  14.784  1.8131  0.0681  0.0355
  198DOPC  C31524612   6.296   0.371  14.896 -0.6765 -0.3035 -0.0768
  198DOPC  H15X24613   6.368   0.453  14.879  2.6135 -2.8050  0.6686
  198DOPC  H15Y24614   6.341   0.298  14.966  1.2480 -0.1995 -1.1472
  198DOPC  C31624615   6.172   0.418  14.976  0.5747 -0.1428  0.3182
  198DOPC  H16X24616   6.202   0.447  15.079  1.2322 -0.0796  0.1119
  198DOPC  H16Y24617   6.131   0.512  14.933  0.2894  0.3251  1.5756
  198DOPC  C31724618   6.068   0.305  14.990 -0.2758 -0.1419  0.0757
  198DOPC  H17X24619   6.006   0.298  14.897 -1.2430  0.4760  0.6608
  198DOPC  H17Y24620   6.127   0.211  14.995  1.4108  0.8599 -0.3837
  198DOPC  C31824621   5.982   0.313  15.113 -0.4814  0.2831 -0.3863
  198DOPC  H18X24622   6.046   0.328  15.202  0.6613  0.3202 -1.1900
  198DOPC  H18Y24623   5.902   0.389  15.107 -0.7373  0.0006 -0.5947
  198DOPC  H18Z24624   5.917   0.224  15.130 -1.3815  1.2366  1.4280
  199DOPC     N24625   6.241   0.809  13.094 -0.1023 -0.1649 -0.3025
  199DOPC   C1224626   6.335   0.931  13.083 -0.7883 -0.1083  0.2284
  199DOPC  H12A24627   6.300   1.009  13.149  1.0532 -0.4287  1.6586
  199DOPC  H12B24628   6.321   0.988  12.993 -1.7686 -0.5618  0.0737
  199DOPC   C1324629   6.259   0.742  13.227  0.0142 -0.4990 -0.0538
  199DOPC  H13A24630   6.181   0.672  13.251  0.1455 -1.0401 -1.1433
  199DOPC  H13B24631   6.352   0.688  13.234 -0.9102 -2.1256  0.0165
  199DOPC  H13C24632   6.264   0.812  13.309  2.3346 -0.3284 -0.2481
  199DOPC   C1424633   6.276   0.714  12.987 -0.0257  0.2200 -0.0769
  199DOPC  H14A24634   6.240   0.742  12.889  0.9860  1.8048 -0.0255
  199DOPC  H14B24635   6.383   0.711  12.978  0.1112 -1.3674  1.5076
  199DOPC  H14C24636   6.236   0.617  13.011  0.4688 -0.1454 -0.7217
  199DOPC   C1524637   6.103   0.853  13.072 -0.6960 -0.0176 -0.0995
  199DOPC  H15A24638   6.085   0.902  12.977 -1.8868 -1.3944 -0.6357
  199DOPC  H15B24639   6.069   0.921  13.149 -0.9143 -0.9793  0.6692
  199DOPC  H15C24640   6.025   0.778  13.069 -0.9940  0.2987 -0.4894
  199DOPC   C1124641   6.481   0.919  13.124 -0.9120  0.4164  0.3325
  199DOPC  H11A24642   6.532   1.017  13.111  1.3638 -0.6594  0.5577
  199DOPC  H11B24643   6.493   0.892  13.231  0.7105  2.4607  0.7475
  199DOPC     P24644   6.681   0.757  13.089 -0.1731  0.0325 -0.1858
  199DOPC   O1324645   6.790   0.789  12.996 -0.2000  0.3050 -0.8040
  199DOPC   O1424646   6.656   0.615  13.122 -0.1965 -0.1160 -0.1292
  199DOPC   O1224647   6.553   0.827  13.029  0.6263 -0.5620 -0.3499
  199DOPC   O1124648   6.708   0.829  13.225  0.2545  0.5000 -0.1941
  199DOPC    C124649   6.837   0.887  13.252  0.2782 -0.2605 -0.2771
  199DOPC    HA24650   6.874   0.943  13.163  2.5540 -0.0788  0.7120
  199DOPC    HB24651   6.902   0.804  13.286  0.8949  0.4897  0.3973
  199DOPC    C224652   6.830   0.998  13.358 -0.6295  0.0909 -0.4199
  199DOPC    HS24653   6.930   1.045  13.363 -0.4099 -0.4996  1.3498
  199DOPC   O2124654   6.797   0.933  13.484  0.3792 -0.4157  0.2102
  199DOPC   C2124655   6.895   0.863  13.539  1.1226  0.1165  0.9073
  199DOPC   O2224656   7.015   0.869  13.511  0.2935 -0.4288  0.5932
  199DOPC   C2224657   6.834   0.774  13.648  0.6472  0.3382  0.7173
  199DOPC   H2R24658   6.776   0.691  13.602 -1.5561  1.8988  0.5130
  199DOPC   H2S24659   6.757   0.831  13.703  0.1912 -0.1131  0.5562
  199DOPC    C324660   6.720   1.105  13.333 -0.3245 -0.6939  0.3391
  199DOPC    HX24661   6.621   1.056  13.325 -0.3200 -0.6011 -0.4299
  199DOPC    HY24662   6.736   1.165  13.240  1.2832  0.3389  1.2425
  199DOPC   O3124663   6.726   1.196  13.445 -0.2904  0.6581  0.6556
  199DOPC   C3124664   6.613   1.213  13.511 -0.6287  0.4453 -0.3543
  199DOPC   O3224665   6.506   1.162  13.497 -0.0159  0.3502 -0.1797
  199DOPC   C3224666   6.626   1.330  13.607 -1.1291  0.0187 -0.5598
  199DOPC   H2X24667   6.700   1.404  13.567  0.9891 -0.7043  1.7578
  199DOPC   H2Y24668   6.529   1.384  13.608 -0.0469  2.0571  0.0625
  199DOPC   C2324669   6.950   0.716  13.733  0.3855  0.3432 -0.0871
  199DOPC   H3R24670   6.998   0.795  13.794  0.6474  0.3423 -0.2906
  199DOPC   H3S24671   7.028   0.676  13.664 -1.2971 -1.5965 -0.9925
  199DOPC   C2424672   6.897   0.606  13.826  0.5036 -0.2011  0.3810
  199DOPC   H4R24673   6.975   0.538  13.864  0.4953  0.8083  2.3211
  199DOPC   H4S24674   6.824   0.546  13.768 -0.7422  0.8341  0.8063
  199DOPC   C2524675   6.825   0.668  13.938  0.2032  0.4787  0.4963
  199DOPC   H5R24676   6.721   0.703  13.921  0.3305 -0.1831 -2.2405
  199DOPC   H5S24677   6.881   0.761  13.960  1.8499 -0.5968  1.0381
  199DOPC   C2624678   6.823   0.567  14.051 -0.1538  0.2669 -0.1535
  199DOPC   H6R24679   6.919   0.516  14.076 -0.8341 -2.3802 -2.4595
  199DOPC   H6S24680   6.767   0.478  14.018  1.1421 -1.1831  1.3203
  199DOPC   C2724681   6.755   0.628  14.173 -0.2406  0.1488  0.8551
  199DOPC   H7R24682   6.652   0.661  14.144 -0.0963  0.7902  1.0582
  199DOPC   H7S24683   6.804   0.721  14.208  0.0593  0.0676  0.6494
  199DOPC   C2824684   6.741   0.531  14.291  0.2225 -0.3216  0.2012
  199DOPC   H8R24685   6.841   0.484  14.301  0.6850  0.4648 -0.6353
  199DOPC   H8S24686   6.670   0.449  14.264  0.5919  0.1953 -2.6568
  199DOPC   C2924687   6.710   0.600  14.422  0.0799 -0.7474  0.3258
  199DOPC   H9R24688   6.794   0.664  14.454  0.5826  0.0075 -2.2705
  199DOPC  C21024689   6.588   0.613  14.480 -0.0675 -0.6369 -0.4561
  199DOPC  H10R24690   6.582   0.682  14.567  3.1954 -1.1091  0.2668
  199DOPC  C21124691   6.455   0.568  14.428 -0.3768 -0.1451 -0.6710
  199DOPC  H11R24692   6.380   0.559  14.509 -2.2737  0.3384 -2.2805
  199DOPC  H11S24693   6.470   0.465  14.389 -1.9053 -0.4627 -0.4687
  199DOPC  C21224694   6.385   0.673  14.335  0.2884  0.3789  0.3796
  199DOPC  H12R24695   6.437   0.684  14.237 -0.3202 -1.1796 -0.1467
  199DOPC  H12S24696   6.378   0.775  14.378 -0.1838  0.9210 -0.9546
  199DOPC  C21324697   6.242   0.626  14.306  0.2774  0.1594 -0.3254
  199DOPC  H13R24698   6.199   0.608  14.407 -0.7552 -1.3611 -0.9918
  199DOPC  H13S24699   6.243   0.526  14.256 -0.5702 -0.5861  1.0866
  199DOPC  C21424700   6.137   0.719  14.229  0.2872  0.2613 -0.0062
  199DOPC  H14R24701   6.123   0.801  14.303 -1.2635 -1.2578  1.4766
  199DOPC  H14S24702   6.044   0.663  14.207  0.2725  1.5010 -3.8000
  199DOPC  C21524703   6.184   0.787  14.096 -1.0924  0.0809 -0.0983
  199DOPC  H15R24704   6.294   0.800  14.104 -1.3860  1.7306  2.6734
  199DOPC  H15S24705   6.134   0.886  14.088 -0.3782  0.3276 -2.1999
  199DOPC  C21624706   6.161   0.705  13.967  0.7767  0.1728  0.1278
  199DOPC  H16R24707   6.053   0.683  13.950 -0.6351  4.2996  2.3003
  199DOPC  H16S24708   6.222   0.615  13.988  1.1413  0.1047 -1.1283
  199DOPC  C21724709   6.209   0.780  13.843 -0.1003 -0.4724 -1.1003
  199DOPC  H17R24710   6.318   0.798  13.831 -0.4347  1.9179 -1.0320
  199DOPC  H17S24711   6.165   0.881  13.861  0.0436 -0.6633  0.4357
  199DOPC  C21824712   6.143   0.737  13.718 -0.6023 -0.4386 -0.6588
  199DOPC  H18R24713   6.122   0.628  13.724  0.9438 -0.6913  0.9295
  199DOPC  H18S24714   6.211   0.748  13.631  1.8017  0.7443  1.2717
  199DOPC  H18T24715   6.051   0.794  13.692  0.9178  2.2787 -0.4017
  199DOPC   C3324716   6.669   1.287  13.747 -0.1201  0.1415  0.3306
  199DOPC   H3X24717   6.674   1.383  13.803  0.0421  1.1980 -1.4367
  199DOPC   H3Y24718   6.775   1.252  13.750 -0.7430 -2.1546 -1.6281
  199DOPC   C3424719   6.571   1.186  13.812  0.6688 -0.2738 -0.5956
  199DOPC   H4X24720   6.569   1.102  13.739 -0.7565 -0.1220 -0.7575
  199DOPC   H4Y24721   6.464   1.214  13.810  0.5600 -0.6253 -0.0613
  199DOPC   C3524722   6.613   1.147  13.951 -0.6221  0.6531 -0.0188
  199DOPC   H5X24723   6.570   1.218  14.025 -0.8599 -0.3980  0.8825
  199DOPC   H5Y24724   6.723   1.152  13.966 -0.5718  3.2622 -0.8270
  199DOPC   C3624725   6.559   1.009  14.001 -0.0409 -0.3098 -0.7570
  199DOPC   H6X24726   6.451   1.021  14.024  0.2085  1.9520 -0.5849
  199DOPC   H6Y24727   6.569   0.939  13.915  0.6154  0.9392 -1.7218
  199DOPC   C3724728   6.645   0.958  14.119  0.4892  0.0798 -0.5583
  199DOPC   H7X24729   6.603   0.856  14.129  0.8901  0.0410  1.1503
  199DOPC   H7Y24730   6.753   0.963  14.092  0.2049 -0.5910 -1.8906
  199DOPC   C3824731   6.629   1.048  14.247 -0.2483 -0.2320 -0.2213
  199DOPC   H8X24732   6.525   1.086  14.249  0.5547  2.2434 -1.4200
  199DOPC   H8Y24733   6.696   1.137  14.243  2.1366 -1.9673 -1.0697
  199DOPC   C3924734   6.667   0.960  14.361 -0.0083 -0.0869  0.1548
  199DOPC   H9X24735   6.705   0.860  14.336 -0.4750 -0.5034  1.0461
  199DOPC  C31024736   6.634   0.978  14.493 -0.2540 -0.2936 -0.5514
  199DOPC  H10X24737   6.654   0.897  14.564 -1.8594  1.5928  2.2688
  199DOPC  C31124738   6.548   1.090  14.549  0.4491  0.3826  0.0240
  199DOPC  H11X24739   6.481   1.041  14.623  2.2095  0.7694  1.9565
  199DOPC  H11Y24740   6.492   1.147  14.471 -0.0622 -0.2016 -0.0464
  199DOPC  C31224741   6.633   1.203  14.621  0.3643  0.0785 -0.2835
  199DOPC  H12X24742   6.568   1.261  14.691  0.6359 -0.9486  0.8493
  199DOPC  H12Y24743   6.669   1.270  14.540  0.8629  0.0517 -0.0921
  199DOPC  C31324744   6.761   1.162  14.699 -0.0358  0.0777 -0.0105
  199DOPC  H13X24745   6.740   1.080  14.771  0.8117 -1.4896 -1.4533
  199DOPC  H13Y24746   6.830   1.130  14.618  0.1243  1.1352 -0.3017
  199DOPC  C31424747   6.815   1.275  14.793 -0.0267  0.0121  0.1511
  199DOPC  H14X24748   6.826   1.362  14.725  2.3974  0.3107  0.8338
  199DOPC  H14Y24749   6.738   1.308  14.866  0.4124  3.3472 -0.7383
  199DOPC  C31524750   6.942   1.246  14.872  0.2684  0.5147 -0.0039
  199DOPC  H15X24751   7.028   1.235  14.802  0.5665  1.8256  0.1280
  199DOPC  H15Y24752   6.930   1.159  14.940 -1.7730  1.2918  0.7045
  199DOPC  C31624753   6.976   1.366  14.961 -0.1062  0.2899 -0.6192
  199DOPC  H16X24754   6.964   1.458  14.900 -0.7084  0.4840 -0.2136
  199DOPC  H16Y24755   6.900   1.353  15.040  0.3754 -0.4451 -0.2645
  199DOPC  C31724756   7.112   1.358  15.035 -0.1487 -0.2166 -0.0123
  199DOPC  H17X24757   7.110   1.256  15.079  0.9450 -0.4125 -0.4046
  199DOPC  H17Y24758   7.182   1.357  14.949 -0.5952  0.4376 -0.3910
  199DOPC  C31824759   7.144   1.471  15.127  0.1445 -0.3608 -0.2364
  199DOPC  H18X24760   7.122   1.565  15.071 -1.2163 -0.4221  0.1641
  199DOPC  H18Y24761   7.082   1.475  15.219 -2.7234  0.6902 -2.0802
  199DOPC  H18Z24762   7.250   1.475  15.158  0.4424  0.0347 -1.2665
  200DOPC     N24763   0.681   1.438  13.243 -0.5587  0.0174 -0.2468
  200DOPC   C1224764   0.834   1.461  13.269  0.0590  0.7033 -0.7483
  200DOPC  H12A24765   0.844   1.533  13.349 -2.5923  1.3612 -0.9115
  200DOPC  H12B24766   0.879   1.510  13.184 -0.0391 -0.0818 -1.2614
  200DOPC   C1324767   0.601   1.382  13.360  0.2193 -0.5415  0.1982
  200DOPC  H13A24768   0.613   1.459  13.435 -0.5552  0.8700 -1.0729
  200DOPC  H13B24769   0.499   1.372  13.325  0.8999 -0.0590 -2.1174
  200DOPC  H13C24770   0.634   1.288  13.400 -1.2164  0.1144  3.2503
  200DOPC   C1424771   0.663   1.334  13.136  0.1834 -0.2874 -0.5047
  200DOPC  H14A24772   0.687   1.242  13.187  0.2022  0.6151  1.1628
  200DOPC  H14B24773   0.558   1.328  13.109 -1.0723  2.0540  3.1526
  200DOPC  H14C24774   0.724   1.346  13.048 -1.8142 -1.2329 -2.1065
  200DOPC   C1524775   0.609   1.561  13.195 -0.3830  0.1870 -0.0198
  200DOPC  H15A24776   0.609   1.646  13.263 -0.7317  1.1701 -1.2139
  200DOPC  H15B24777   0.514   1.520  13.167 -0.2748 -0.6916  0.8419
  200DOPC  H15C24778   0.667   1.607  13.116  0.7789  1.0897  1.2898
  200DOPC   C1124779   0.921   1.337  13.299 -0.5373  0.4121  1.1180
  200DOPC  H11A24780   0.932   1.278  13.205 -0.6784  1.7553  0.2219
  200DOPC  H11B24781   1.022   1.375  13.323 -0.5291  1.3503 -0.2618
  200DOPC     P24782   0.937   1.262  13.553  0.1595 -0.1230 -0.1907
  200DOPC   O1324783   1.083   1.228  13.544 -0.8037 -0.7739 -0.4239
  200DOPC   O1424784   0.857   1.178  13.645  0.2716 -0.0153  0.2103
  200DOPC   O1224785   0.865   1.261  13.411  0.1163 -0.2810  0.4864
  200DOPC   O1124786   0.924   1.415  13.583 -0.1470  0.2191  0.2475
  200DOPC    C124787   0.828   1.469  13.674  0.3672  0.1420  0.4180
  200DOPC    HA24788   0.758   1.398  13.723 -1.1616  1.2815 -0.0465
  200DOPC    HB24789   0.758   1.522  13.606  2.9469  2.3040 -0.7456
  200DOPC    C224790   0.888   1.549  13.788  0.3664  0.2213 -0.3174
  200DOPC    HS24791   0.967   1.482  13.828 -3.1436 -3.7686  0.7719
  200DOPC   O2124792   0.795   1.580  13.895  0.1202 -0.4652 -0.3266
  200DOPC   C2124793   0.758   1.484  13.976 -0.7988  0.6685 -0.0003
  200DOPC   O2224794   0.810   1.371  13.976 -0.4530 -0.0733  0.1318
  200DOPC   C2224795   0.651   1.533  14.079  0.1814 -0.4852  0.1679
  200DOPC   H2R24796   0.575   1.589  14.022 -0.9613 -0.9575  1.1897
  200DOPC   H2S24797   0.697   1.602  14.152 -0.4294  0.3682 -0.2492
  200DOPC    C324798   0.961   1.678  13.729  0.5720  0.0610 -0.2022
  200DOPC    HX24799   0.883   1.698  13.652 -0.6837 -2.3078  0.3486
  200DOPC    HY24800   1.051   1.641  13.676  1.1986  1.2401  0.0164
  200DOPC   O3124801   0.977   1.800  13.804  0.0876 -0.5152  0.3745
  200DOPC   C3124802   1.034   1.798  13.922  0.6937  0.1335  0.1203
  200DOPC   O3224803   1.104   1.706  13.965  0.1625  0.4344  0.0762
  200DOPC   C3224804   1.007   1.932  14.000  0.3425  0.4443  0.1615
  200DOPC   H2X24805   1.026   2.017  13.930  0.5937  0.6906  0.5262
  200DOPC   H2Y24806   0.904   1.932  14.041  0.4923  0.1946  0.5397
  200DOPC   C2324807   0.589   1.428  14.164  0.0683 -0.1075 -0.2519
  200DOPC   H3R24808   0.649   1.397  14.252 -1.9309 -2.8715  0.2956
  200DOPC   H3S24809   0.562   1.338  14.104 -0.0700  0.5717 -1.2256
  200DOPC   C2424810   0.452   1.459  14.235  1.0851 -0.0671 -0.1926
  200DOPC   H4R24811   0.373   1.495  14.167  0.4188 -1.0055  0.0751
  200DOPC   H4S24812   0.480   1.535  14.311  0.3074 -1.0525  1.1267
  200DOPC   C2524813   0.401   1.344  14.314 -0.1309 -0.1290 -0.1089
  200DOPC   H5R24814   0.479   1.306  14.384  0.0755 -1.8289 -1.1846
  200DOPC   H5S24815   0.383   1.254  14.251  0.1495 -0.7857  0.7299
  200DOPC   C2624816   0.267   1.384  14.386 -0.3993  0.7987  0.3203
  200DOPC   H6R24817   0.199   1.435  14.314 -0.7545  0.5554  0.4839
  200DOPC   H6S24818   0.293   1.455  14.467  1.1106 -0.8750  1.3751
  200DOPC   C2724819   0.210   1.266  14.465  0.1929 -0.2926  0.3817
  200DOPC   H7R24820   0.296   1.233  14.528  1.0181  0.9680 -0.0411
  200DOPC   H7S24821   0.185   1.192  14.387  0.0901 -2.0665  2.0327
  200DOPC   C2824822   0.106   1.307  14.559 -0.3659  0.3055 -0.7109
  200DOPC   H8R24823   0.123   1.410  14.597 -0.3241 -0.0661  0.2844
  200DOPC   H8S24824   0.122   1.234  14.641  1.1512  0.3587 -0.9279
  200DOPC   C2924825  -0.029   1.300  14.504 -0.0237  0.1726  0.7134
  200DOPC   H9R24826  -0.039   1.320  14.396 -0.3078 -1.4679  0.4180
  200DOPC  C21024827  -0.141   1.297  14.579  0.6674  0.0723  0.2476
  200DOPC  H10R24828  -0.237   1.315  14.528  1.2295  0.4544 -0.7004
  200DOPC  C21124829  -0.156   1.290  14.728 -0.2935  0.6014  0.3360
  200DOPC  H11R24830  -0.230   1.358  14.776  0.5842  0.5029  1.9001
  200DOPC  H11S24831  -0.064   1.307  14.789 -0.1023 -0.6646  0.4363
  200DOPC  C21224832  -0.194   1.146  14.775  0.5919 -0.7172 -1.2119
  200DOPC  H12R24833  -0.103   1.085  14.757  1.4152 -0.1892  0.8404
  200DOPC  H12S24834  -0.285   1.109  14.723  0.0557 -2.0941  0.5901
  200DOPC  C21324835  -0.228   1.136  14.937 -0.2679  0.7235  0.6609
  200DOPC  H13R24836  -0.320   1.199  14.946 -0.7337  0.2432 -0.5275
  200DOPC  H13S24837  -0.143   1.180  14.993  0.0861  1.9550 -0.7726
  200DOPC  C21424838  -0.244   0.989  14.968  0.4835 -0.2832 -0.3303
  200DOPC  H14R24839  -0.200   0.925  14.889  1.4856  0.0046 -0.0279
  200DOPC  H14S24840  -0.352   0.966  14.977  0.4987 -0.3625 -0.3479
  200DOPC  C21524841  -0.177   0.944  15.102 -0.1694 -0.5382  0.2362
  200DOPC  H15R24842  -0.191   1.030  15.171  1.0710 -0.1325  0.0169
  200DOPC  H15S24843  -0.070   0.933  15.076  0.5639  0.3116  2.6300
  200DOPC  C21624844  -0.238   0.814  15.156 -0.1044 -0.2604 -0.4539
  200DOPC  H16R24845  -0.345   0.834  15.179 -0.0098  2.6607 -2.0540
  200DOPC  H16S24846  -0.195   0.772  15.249 -1.7331 -0.7397  0.1309
  200DOPC  C21724847  -0.226   0.705  15.055  0.4074 -0.2393 -0.4059
  200DOPC  H17R24848  -0.124   0.683  15.016  0.7810  0.0682  0.3912
  200DOPC  H17S24849  -0.280   0.744  14.966 -0.3402  1.8312  0.8843
  200DOPC  C21824850  -0.289   0.571  15.098 -0.2474  0.2422 -0.5032
  200DOPC  H18R24851  -0.243   0.527  15.189  0.1680  0.8064 -0.4388
  200DOPC  H18S24852  -0.272   0.488  15.025 -1.4990  0.0835 -0.6389
  200DOPC  H18T24853  -0.392   0.598  15.130  0.8626  1.5397  2.2236
  200DOPC   C3324854   1.102   1.948  14.113 -0.3724 -0.6352 -0.3740
  200DOPC   H3X24855   1.209   1.955  14.081  0.3166  0.2858  1.9017
  200DOPC   H3Y24856   1.103   1.848  14.162 -0.2984 -0.6782 -0.4620
  200DOPC   C3424857   1.070   2.059  14.214 -0.3721  0.2893  0.1242
  200DOPC   H4X24858   0.961   2.059  14.232 -0.7061  0.4130 -1.7026
  200DOPC   H4Y24859   1.096   2.161  14.178  1.2720  0.1007  0.6738
  200DOPC   C3524860   1.149   2.027  14.339  0.9101  0.4299  0.2308
  200DOPC   H5X24861   1.256   2.031  14.308  0.7118  1.8507 -0.3499
  200DOPC   H5Y24862   1.130   1.920  14.362 -0.2155 -0.3157 -3.3717
  200DOPC   C3624863   1.114   2.115  14.461 -0.5333  0.7290  0.1607
  200DOPC   H6X24864   1.135   2.223  14.445  1.8197  0.4806  1.1810
  200DOPC   H6Y24865   1.005   2.105  14.480 -0.4849  0.3402  0.2430
  200DOPC   C3724866   1.167   2.052  14.593 -0.1341 -0.0717  0.0515
  200DOPC   H7X24867   1.192   1.945  14.578 -1.1101 -0.8794  3.5181
  200DOPC   H7Y24868   1.253   2.116  14.623  0.3915 -0.5782 -0.3594
  200DOPC   C3824869   1.060   2.057  14.702 -0.2171  0.1200  0.3184
  200DOPC   H8X24870   0.960   2.025  14.665 -0.5536 -0.3811  1.5913
  200DOPC   H8Y24871   1.045   2.164  14.730  0.1496  0.6859 -1.5140
  200DOPC   C3924872   1.107   1.973  14.818  0.0224  0.0887 -0.2751
  200DOPC   H9X24873   1.207   2.008  14.847  0.5913  1.3076 -3.3899
  200DOPC  C31024874   1.042   1.866  14.871  0.1812 -0.5072 -0.4810
  200DOPC  H10X24875   1.094   1.805  14.947  1.4589  0.0088 -0.9073
  200DOPC  C31124876   0.911   1.810  14.825 -0.1852 -0.2177  0.3511
  200DOPC  H11X24877   0.919   1.699  14.827  1.2442 -0.1641  3.3002
  200DOPC  H11Y24878   0.892   1.844  14.721 -0.1881 -1.0464  0.0770
  200DOPC  C31224879   0.781   1.855  14.891  0.0373  0.0473 -0.2422
  200DOPC  H12X24880   0.704   1.804  14.829  0.5272 -1.0612  0.0463
  200DOPC  H12Y24881   0.768   1.965  14.881  2.5944  0.3376 -1.1358
  200DOPC  C31324882   0.763   1.809  15.039  1.0535  0.5430  0.7992
  200DOPC  H13X24883   0.844   1.854  15.101  0.5998  0.1454  1.6842
  200DOPC  H13Y24884   0.671   1.854  15.082  2.4379  2.3496  2.0632
  200DOPC  C31424885   0.772   1.661  15.069  0.0905 -0.4937 -1.1629
  200DOPC  H14X24886   0.713   1.618  14.984 -1.2354  0.4232 -0.7381
  200DOPC  H14Y24887   0.880   1.637  15.068  0.4924  1.1574 -0.2922
  200DOPC  C31524888   0.715   1.611  15.212  1.4798 -0.6146  0.2729
  200DOPC  H15X24889   0.758   1.677  15.290 -1.8447  0.7353  1.1213
  200DOPC  H15Y24890   0.751   1.507  15.231 -1.3873 -1.3979  1.9831
  200DOPC  C31624891   0.558   1.612  15.204  0.1758 -0.3179  0.2416
  200DOPC  H16X24892   0.518   1.704  15.156 -0.2324  0.1228  1.3814
  200DOPC  H16Y24893   0.518   1.526  15.146 -0.5591 -0.7954  1.4056
  200DOPC  C31724894   0.481   1.610  15.343  0.2861 -0.3075  0.3420
  200DOPC  H17X24895   0.516   1.700  15.399  0.8996 -0.1743 -0.2428
  200DOPC  H17Y24896   0.373   1.613  15.321  0.8722 -0.6396 -3.0740
  200DOPC  C31824897   0.503   1.477  15.424 -0.1119 -0.1205  0.8854
  200DOPC  H18X24898   0.411   1.437  15.471  0.1890 -0.6533  1.0347
  200DOPC  H18Y24899   0.534   1.391  15.361  0.1482  1.3981 -1.1740
  200DOPC  H18Z24900   0.577   1.496  15.505 -0.6176  0.1549  1.2873
  201SOD    SOD24901   5.337   0.267  17.863 -0.0039 -0.1768 -0.1720
  202SOD    SOD24902   7.064   0.340  11.957  0.4098 -0.7737 -0.6275
  203SOD    SOD24903   0.552   4.544  19.356 -0.4315 -0.5040 -0.3773
  204SOD    SOD24904   5.148   3.172  13.049 -0.1227 -0.1033  0.0358
  205SOD    SOD24905   5.662   1.364  17.587 -0.1453 -0.1979 -0.4193
  206SOD    SOD24906   0.396   5.975  11.915  0.1488  0.0069 -0.0441
  207SOD    SOD24907   4.562   0.408  11.201 -0.0418 -0.2045 -0.2347
  208SOD    SOD24908   3.491   5.470  19.642  0.1162  0.1281  0.0111
  209SOD    SOD24909   6.200   3.394  12.200  0.1781 -0.1477  0.4447
  210SOD    SOD24910   1.298   7.059  17.973 -0.2566  0.2887 -0.0517
  211SOD    SOD24911   1.015   3.602  18.670 -0.4713  0.4609  0.0596
  212SOD    SOD24912   6.372   6.142  18.655 -0.1067  0.0335  0.0010
  213SOD    SOD24913   7.515   1.000  11.905 -0.0734  0.4096 -0.2489
  214SOD    SOD24914   0.140   2.980  19.084  0.7331  0.2381 -0.2304
  215SOD    SOD24915   6.169   1.161  19.113  0.2294 -0.2423  0.6961
  216SOD    SOD24916   2.591   6.206  18.187  0.1278 -0.6238 -0.7638
  217SOD    SOD24917   4.729   7.021  13.081  0.1603  0.0432  0.3388
  218SOD    SOD24918   4.636   6.845  18.554 -0.0182  0.1125  0.7320
  219SOD    SOD24919   0.957   2.124  18.108  0.6294 -0.4196 -0.0428
  220SOD    SOD24920   3.010   4.771  11.716  0.4608  0.5600  0.2372
  221SOD    SOD24921   2.776   5.275  12.535  0.2532 -0.2334 -0.3526
  222SOD    SOD24922   2.016   0.377  18.756 -0.3305  0.1589 -0.1739
  223SOD    SOD24923   3.537   2.678  12.615 -0.2426 -0.2035  0.9890
  224SOD    SOD24924   1.676   0.451  11.531 -0.1126 -0.2094 -0.4895
  225SOD    SOD24925   3.348   2.444  11.820 -0.2380 -0.2614 -0.1749
  226SOD    SOD24926   6.447   6.092  17.169  0.0349  0.6592 -0.1461
  227CLA    CLA24927   3.528   1.586  11.428 -0.2230 -0.1302 -0.1136
  228CLA    CLA24928   3.930   3.351  11.844  0.1171 -0.3556  0.1210
  229CLA    CLA24929   3.578   0.638  13.143  0.1522  0.1680 -0.0138
  230CLA    CLA24930   1.492   3.049  18.738  0.0383  0.4082 -0.0174
  231CLA    CLA24931   4.226   3.020  18.230 -0.5505 -0.0629  0.0389
  232CLA    CLA24932   1.016   0.553  18.569 -0.1345 -0.0091  0.0805
  233CLA    CLA24933   5.013   1.726  18.976  0.1681  0.1512 -0.2238
  234CLA    CLA24934   1.376   3.729  19.470  0.0030  0.1792 -0.2351
  235CLA    CLA24935   4.778   3.967  12.347  0.3161 -0.0326 -0.1945
  236CLA    CLA24936   1.865   6.609  18.317 -0.2090 -0.3426  0.4712
  237CLA    CLA24937   6.862   5.163  18.618  0.1978 -0.3452 -0.2911
  238CLA    CLA24938   5.566   1.790  12.592 -0.0226 -0.0762 -0.1936
  239CLA    CLA24939   1.825   0.078  12.508 -0.0016 -0.7053  0.0459
  240CLA    CLA24940   4.378   1.822  18.192 -0.0903  0.0101  0.1065
  241CLA    CLA24941   7.576   4.284  11.720  0.0727 -0.2902  0.3485
  242CLA    CLA24942   7.665   4.821  17.894 -0.1430  0.3838  0.0886
  243CLA    CLA24943   4.308   0.821  12.632  0.2385  0.0585  0.2674
  244CLA    CLA24944   2.852   4.676  11.501  0.1374  0.1170 -0.2445
  245CLA    CLA24945   3.656   1.588  12.564 -0.0572 -0.3197  0.2573
  246CLA    CLA24946   5.276   5.892  18.567 -0.1256  0.5375  0.0169
  247CLA    CLA24947   6.102   5.941  12.403  0.0362  0.1393 -0.1483
  248CLA    CLA24948   7.395   5.456  12.504  0.0732  0.3538 -0.0269
  249CLA    CLA24949   1.008   6.374  12.873  0.0891  0.3968 -0.1258
  250CLA    CLA24950   6.898   7.538  19.366  0.0229  0.1715 -0.1530
  251CLA    CLA24951   2.954   0.350  18.904  0.0607 -0.5552  0.2130
  252CLA    CLA24952   1.855   2.250  12.548  0.6187 -0.2017 -0.3997
  253TIP3   OH224953   2.931   6.906  19.023 -0.3856 -0.1073 -0.6227
  253TIP3    H124954   2.931   6.863  19.109 -0.6078 -0.1995 -0.6695
  253TIP3    H224955   2.968   6.992  19.041 -3.0000  0.9816  0.1424
  254TIP3   OH224956   5.029   6.676  17.575  0.1394  0.0437 -0.3783
  254TIP3    H124957   5.032   6.762  17.533 -1.1646  0.3156  0.0177
  254TIP3    H224958   4.981   6.621  17.513  1.0440 -0.4259 -0.6695
  255TIP3   OH224959   7.535   5.094  17.428 -0.3531  0.0355 -0.1751
  255TIP3    H124960   7.441   5.105  17.419 -1.1117 -4.8420 -1.1614
  255TIP3    H224961   7.549   5.079  17.521 -0.8261 -0.8020 -0.2361
  256TIP3   OH224962   3.711   6.895  19.227  0.5141  0.0400  0.3393
  256TIP3    H124963   3.651   6.834  19.183  1.2425 -0.4690  0.0472
  256TIP3    H224964   3.655   6.941  19.291 -0.3007 -0.0576 -0.2816
  257TIP3   OH224965   3.556   2.184  16.826  0.0057 -0.1171 -0.2088
  257TIP3    H124966   3.487   2.162  16.888  0.2565 -0.5755 -0.0806
  257TIP3    H224967   3.510   2.204  16.745 -0.4467  2.1300  0.5274
  258TIP3   OH224968   6.304   6.444  19.560 -0.0410 -0.5415 -0.5169
  258TIP3    H124969   6.386   6.414  19.522 -0.9834 -2.0563 -1.4860
  258TIP3    H224970   6.245   6.368  19.553 -1.4638  0.4258  0.3296
  259TIP3   OH224971   7.272   6.677  18.970  0.0895  0.0845 -0.1384
  259TIP3    H124972   7.182   6.674  18.937 -0.5581 -2.5688  1.5133
  259TIP3    H224973   7.263   6.659  19.064  2.4124 -2.4380 -0.2734
  260TIP3   OH224974   0.201   4.298  17.974  0.1710  0.6289 -0.5625
  260TIP3    H124975   0.149   4.224  17.943  1.5428 -0.6959  0.1664
  260TIP3    H224976   0.166   4.318  18.060 -1.1504  1.8263 -1.3361
  261TIP3   OH224977   6.349   6.721  19.127  0.4448  0.3862 -0.3191
  261TIP3    H124978   6.259   6.733  19.155  0.4598  2.5959 -1.0368
  261TIP3    H224979   6.397   6.702  19.208 -0.5946 -0.6558  0.0833
  262TIP3   OH224980   0.463   5.698  17.990 -0.5285 -0.4184  0.3592
  262TIP3    H124981   0.513   5.749  17.926 -1.2290 -0.3230 -0.1229
  262TIP3    H224982   0.501   5.722  18.075 -1.4153  1.6300  0.2480
  263TIP3   OH224983   1.190   6.939  18.917  0.2217  0.2706  0.0010
  263TIP3    H124984   1.194   7.035  18.920  0.9353  0.2448  0.1375
  263TIP3    H224985   1.116   6.916  18.972  1.3390  0.6586  1.7570
  264TIP3   OH224986   6.137   0.990  17.622  0.5456 -0.4736 -0.0006
  264TIP3    H124987   6.189   0.918  17.584  0.2282 -0.4840 -0.4261
  264TIP3    H224988   6.069   0.946  17.673  0.6237 -0.4695  0.1076
  265TIP3   OH224989   2.082   0.935  18.458  0.3384  0.3710 -0.3575
  265TIP3    H124990   2.005   0.897  18.416 -0.6730 -0.3552  2.0238
  265TIP3    H224991   2.098   1.016  18.409 -2.7252  1.2291 -0.1316
  266TIP3   OH224992   6.693   2.429  18.704 -0.4609 -0.3625 -0.0472
  266TIP3    H124993   6.680   2.375  18.782  2.0481  0.9100  1.3733
  266TIP3    H224994   6.741   2.373  18.644  1.4265 -0.1003  1.1102
  267TIP3   OH224995   0.292   5.745  19.239 -0.0639  0.4894 -0.4451
  267TIP3    H124996   0.354   5.815  19.256 -1.0224  1.5231 -1.1258
  267TIP3    H224997   0.237   5.742  19.317  1.6212 -1.3606  0.7867
  268TIP3   OH224998   2.397   3.562  18.708 -0.4397 -0.3337 -0.7195
  268TIP3    H124999   2.492   3.564  18.722 -0.5938  1.5750  0.4547
  268TIP3    H225000   2.364   3.508  18.779 -0.3744  0.9252  0.3166
  269TIP3   OH225001   5.002   6.622  19.139 -0.2319 -0.1853 -0.2762
  269TIP3    H125002   4.955   6.555  19.089 -1.8662  0.2668  0.5964
  269TIP3    H225003   4.996   6.594  19.230  2.1394 -0.6493 -0.2025
  270TIP3   OH225004   3.945   7.146  18.181 -0.3487  0.5755  0.0636
  270TIP3    H125005   3.892   7.081  18.135  2.1378  0.1138 -2.3597
  270TIP3    H225006   3.996   7.095  18.244  0.5333  0.3582 -0.8156
  271TIP3   OH225007   5.721   1.960  19.653  0.6753  0.5684  0.0485
  271TIP3    H125008   5.679   2.039  19.617 -0.2089  0.6685  1.2364
  271TIP3    H225009   5.648   1.909  19.689  0.9956 -1.6519 -2.1927
  272TIP3   OH225010   4.795   2.309  17.660 -0.1770  0.0392 -0.2152
  272TIP3    H125011   4.718   2.366  17.667 -0.3085 -0.2936  1.5161
  272TIP3    H225012   4.758   2.220  17.653  0.0252 -0.1674  1.1126
  273TIP3   OH225013   3.740   7.276  18.242  0.1680 -0.3251 -0.1112
  273TIP3    H125014   3.832   7.251  18.237  0.2571  0.0167 -0.2040
  273TIP3    H225015   3.700   7.235  18.165  0.3516 -0.0200 -0.3692
  274TIP3   OH225016   5.857   5.459  18.119 -0.0976 -0.2589 -0.3985
  274TIP3    H125017   5.781   5.516  18.134  0.9176  1.5361 -1.6276
  274TIP3    H225018   5.830   5.400  18.049 -0.6308 -0.1892 -0.2501
  275TIP3   OH225019   1.894   6.341  17.875 -0.1341  0.0927 -0.8389
  275TIP3    H125020   1.944   6.299  17.945  1.9735  3.0382 -0.3667
  275TIP3    H225021   1.852   6.416  17.917 -0.8480  0.5392 -2.2807
  276TIP3   OH225022   3.655   3.272  17.488 -0.2138 -0.0393 -0.2415
  276TIP3    H125023   3.614   3.346  17.532 -1.0159 -0.9858  0.6690
  276TIP3    H225024   3.664   3.205  17.556  0.9353 -0.6194 -0.9228
  277TIP3   OH225025   0.845   3.851  17.693 -0.1608 -0.3783 -0.1171
  277TIP3    H125026   0.752   3.869  17.681 -0.4507 -2.3203 -1.3495
  277TIP3    H225027   0.861   3.865  17.786 -1.8425 -0.6570  0.2429
  278TIP3   OH225028   4.506   4.092  19.248 -0.2758 -0.6557  0.1832
  278TIP3    H125029   4.474   4.093  19.338 -0.9886 -0.5316 -0.0703
  278TIP3    H225030   4.430   4.112  19.194 -0.2422 -2.3090 -0.5623
  279TIP3   OH225031   7.624   4.056  18.511  0.2470  0.2269  0.0877
  279TIP3    H125032   7.588   4.144  18.518  2.3586  1.0876  0.5822
  279TIP3    H225033   7.639   4.028  18.602 -2.1089 -1.4459  0.0599
  280TIP3   OH225034   0.819   2.405  18.569 -0.2116 -0.6238 -0.2023
  280TIP3    H125035   0.725   2.421  18.561 -0.1399 -0.0105  0.1140
  280TIP3    H225036   0.843   2.445  18.653  0.1915 -1.4491  0.0855
  281TIP3   OH225037   5.837   0.118  19.690 -0.0723 -0.2845  0.5118
  281TIP3    H125038   5.771   0.164  19.639 -0.1468  1.5341  2.1237
  281TIP3    H225039   5.917   0.171  19.679  0.6865 -1.5031 -0.0446
  282TIP3   OH225040   7.002   0.639  18.894 -0.2275  0.1996 -0.5637
  282TIP3    H125041   7.059   0.573  18.933  0.4482  0.9470 -0.2406
  282TIP3    H225042   6.957   0.680  18.968  0.9203  1.4969 -0.5322
  283TIP3   OH225043   0.470   7.062  17.536 -0.2059  0.3594  0.0966
  283TIP3    H125044   0.490   7.006  17.461 -0.8404 -1.0253  0.9231
  283TIP3    H225045   0.377   7.082  17.526 -0.2442  0.3346  0.4102
  284TIP3   OH225046   4.626   6.969  12.674  0.0304 -0.0103 -0.2198
  284TIP3    H125047   4.620   6.878  12.705 -0.5947  0.2478  0.4516
  284TIP3    H225048   4.544   7.009  12.702  1.5269  1.5852  2.2512
  285TIP3   OH225049   1.955   5.291  11.206  0.2905  0.2497 -0.5034
  285TIP3    H125050   1.861   5.292  11.224  0.6024  1.7475  1.3773
  285TIP3    H225051   1.976   5.380  11.180  1.2274 -0.0188 -0.7347
  286TIP3   OH225052   3.263   5.431  10.953  0.0891 -0.0022 -0.3298
  286TIP3    H125053   3.286   5.519  10.922 -2.1400  0.9199  0.4219
  286TIP3    H225054   3.183   5.409  10.905 -0.4403 -0.7912  0.8728
  287TIP3   OH225055   5.034   0.651  11.449  0.3588 -0.6651 -0.3124
  287TIP3    H125056   4.949   0.684  11.419  0.7045  0.1776 -0.4001
  287TIP3    H225057   5.084   0.635  11.369  0.4671 -0.6595 -0.2457
  288TIP3   OH225058   5.929   4.249  12.971 -0.1150 -0.0875 -0.0353
  288TIP3    H125059   5.902   4.170  12.925  2.5447 -0.7020 -0.7093
  288TIP3    H225060   5.903   4.233  13.062 -0.6377 -1.2246 -0.3612
  289TIP3   OH225061   1.835   6.886  11.604  0.1689  0.5389  0.3194
  289TIP3    H125062   1.909   6.832  11.630 -1.3264 -0.9488  1.7917
  289TIP3    H225063   1.826   6.871  11.510  2.1820  1.4058 -0.0650
  290TIP3   OH225064   3.433   7.033  12.040  0.0735  0.0818  0.3295
  290TIP3    H125065   3.521   7.001  12.062 -0.4614 -0.6317  1.5338
  290TIP3    H225066   3.383   6.953  12.022 -0.8661  0.3182  1.7692
  291TIP3   OH225067   0.205   0.571  12.594 -0.6398 -0.2846  0.0636
  291TIP3    H125068   0.275   0.636  12.603 -0.2235 -0.4560 -1.6362
  291TIP3    H225069   0.126   0.618  12.619 -0.0014  0.0335  1.6284
  292TIP3   OH225070   3.606   3.842  12.983  0.3328  0.0249 -0.2005
  292TIP3    H125071   3.657   3.821  12.905  0.3529 -0.8809  0.0520
  292TIP3    H225072   3.578   3.933  12.969  3.4212  1.1813  0.4313
  293TIP3   OH225073   0.247   6.359  11.525 -0.2200  0.5042  0.3686
  293TIP3    H125074   0.186   6.286  11.529 -0.3784  0.6799  1.2247
  293TIP3    H225075   0.250   6.382  11.432 -2.1081  1.0363  0.3967
  294TIP3   OH225076   7.423   7.530  13.303  0.2811 -0.3002 -0.4359
  294TIP3    H125077   7.456   7.443  13.280 -0.3943 -0.5310 -0.5384
  294TIP3    H225078   7.466   7.550  13.387 -0.6740 -1.3642  0.3327
  295TIP3   OH225079   1.944   4.898  13.253 -0.2575 -0.4093  0.2965
  295TIP3    H125080   1.937   4.844  13.332 -0.0893 -0.7690  0.0703
  295TIP3    H225081   1.982   4.980  13.284 -2.3013  0.3447  0.9834
  296TIP3   OH225082   6.451   0.197  12.692  0.3792  0.2913 -0.2510
  296TIP3    H125083   6.378   0.222  12.748  1.2555  1.6833  0.3393
  296TIP3    H225084   6.524   0.181  12.752  1.1178  0.9978 -0.9277
  297TIP3   OH225085   5.715   6.207  11.225 -0.2809  0.1830  0.0800
  297TIP3    H125086   5.717   6.286  11.278  1.6771 -0.1761  0.6400
  297TIP3    H225087   5.672   6.233  11.144 -2.5531  0.9757  1.4516
  298TIP3   OH225088   5.822   5.832  12.993  0.4096  0.4646 -0.0332
  298TIP3    H125089   5.782   5.919  12.997 -1.0306 -0.0256 -2.0799
  298TIP3    H225090   5.759   5.775  13.038  1.4035  0.4548  1.4037
  299TIP3   OH225091   0.691   3.526  13.503 -0.1602 -0.5556 -0.0781
  299TIP3    H125092   0.728   3.504  13.418 -1.1747  0.5662 -0.8449
  299TIP3    H225093   0.627   3.595  13.484  1.4199  1.6032  1.9204
  300TIP3   OH225094   0.270   1.577  11.447 -0.1012 -0.1777  0.3303
  300TIP3    H125095   0.291   1.488  11.421 -0.2344 -0.2966  0.6367
  300TIP3    H225096   0.239   1.570  11.537  0.3376  0.2339  0.5192
  301TIP3   OH225097   3.973   4.722  11.169 -0.4172  0.2071 -0.0256
  301TIP3    H125098   4.025   4.653  11.129  1.8496  1.0135  1.3258
  301TIP3    H225099   3.962   4.694  11.260 -3.1174 -0.3143 -0.4530
  302TIP3   OH225100   4.459   4.539  11.391  0.2108  0.1511 -0.2561
  302TIP3    H125101   4.393   4.502  11.332  0.1229  1.7788 -1.2305
  302TIP3    H225102   4.523   4.469  11.403 -0.9017 -0.9352 -0.5314
  303TIP3   OH225103   6.548   5.949  12.218  0.3444  0.0145  0.1651
  303TIP3    H125104   6.505   6.012  12.277  0.4915 -0.5477  0.8836
  303TIP3    H225105   6.634   5.934  12.258  0.6657  0.0486 -0.5019
  304TIP3   OH225106   5.587   4.104  11.545 -0.3718 -0.1644 -0.3340
  304TIP3    H125107   5.673   4.112  11.504 -0.4481 -2.6087 -1.1857
  304TIP3    H225108   5.537   4.179  11.513 -0.2848 -1.6146 -4.5579
  305TIP3   OH225109   2.173   2.411  11.247 -0.2481  0.3332  0.2166
  305TIP3    H125110   2.094   2.458  11.274 -0.2729  0.2827  0.2337
  305TIP3    H225111   2.195   2.448  11.161  0.8104  1.6777  1.0435
  306TIP3   OH225112   1.405   6.205  12.111  0.0321 -0.3283  0.0130
  306TIP3    H125113   1.452   6.259  12.047 -0.4205  0.4392  0.3232
  306TIP3    H225114   1.388   6.264  12.185 -0.7127 -0.8122  0.2386
  307TIP3   OH225115   6.279   1.140  13.323 -0.3577  0.0438 -0.2492
  307TIP3    H125116   6.365   1.180  13.309 -0.1823 -0.3871 -0.4265
  307TIP3    H225117   6.294   1.077  13.394 -0.9521  1.2922  1.0387
  308TIP3   OH225118   1.750   4.988  11.413 -0.4930 -0.1333  0.1266
  308TIP3    H125119   1.731   5.025  11.327  0.5851 -0.5112 -0.2818
  308TIP3    H225120   1.676   5.016  11.467  0.8032  3.7127  0.2074
  309TIP3   OH225121   3.994   7.333  12.192  0.3417  0.0764  0.3099
  309TIP3    H125122   4.017   7.406  12.134 -0.5489  0.3835  0.3387
  309TIP3    H225123   3.952   7.269  12.134 -0.6689  0.4400  0.6212
  310TIP3   OH225124   2.290   6.393  12.848 -0.0822  0.2179  0.2983
  310TIP3    H125125   2.244   6.388  12.765  1.1829  1.7722 -0.5553
  310TIP3    H225126   2.356   6.323  12.844  0.2512  0.5523 -0.2060
  311TIP3   OH225127   0.429   6.048  12.601 -0.1969 -0.7719 -0.1482
  311TIP3    H125128   0.407   5.991  12.527 -0.5907  0.8625 -1.3520
  311TIP3    H225129   0.370   6.020  12.671  0.2483 -2.4229 -0.3882
  312TIP3   OH225130   1.705   7.573  10.862  0.6740 -0.7791 -0.4793
  312TIP3    H125131   1.788   7.590  10.907  0.2680  0.4266 -0.1542
  312TIP3    H225132   1.730   7.557  10.771  1.0851  2.7809 -1.1441
  313TIP3   OH225133   4.401   5.246  11.507 -0.6476  0.4403 -0.0801
  313TIP3    H125134   4.348   5.200  11.442  0.3070 -1.8548  0.6698
  313TIP3    H225135   4.339   5.303  11.552 -1.9093 -0.1461 -1.0194
  314TIP3   OH225136   0.259   5.215  12.291  0.0327  0.1782 -0.0816
  314TIP3    H125137   0.245   5.131  12.334  1.9350  0.9663  2.2770
  314TIP3    H225138   0.196   5.215  12.219 -2.0002 -2.0399  1.5345
  315TIP3   OH225139   1.005   5.575  12.215  0.2327 -0.3434  0.6930
  315TIP3    H125140   1.085   5.552  12.263  1.0130  1.0314  0.1187
  315TIP3    H225141   0.958   5.633  12.274  0.3139 -0.0993  0.5213
  316TIP3   OH225142   4.062   3.653  13.574  0.0667 -0.2478  0.5533
  316TIP3    H125143   4.109   3.577  13.606 -1.3703 -2.3492 -1.9529
  316TIP3    H225144   4.042   3.633  13.483 -2.1222  2.2831  0.3387
  317TIP3   OH225145   0.588   4.264  11.783 -0.0724  0.2360  0.1326
  317TIP3    H125146   0.580   4.172  11.805 -1.4806  0.0737 -0.9101
  317TIP3    H225147   0.516   4.307  11.830  0.2029  0.7127  0.1294
  318TIP3   OH225148   7.341   3.753  12.109  0.7422 -0.6759  0.1648
  318TIP3    H125149   7.366   3.814  12.178 -0.4719  1.3620 -1.0989
  318TIP3    H225150   7.401   3.771  12.036 -0.4245 -0.0567 -0.6742
  319TIP3   OH225151   3.203   7.156  12.935  0.1510  0.2261 -0.4066
  319TIP3    H125152   3.133   7.113  12.886  0.3826  2.2489 -2.6564
  319TIP3    H225153   3.282   7.140  12.883  0.7911  0.6935  0.3991
  320TIP3   OH225154   2.289   4.899  11.439 -0.0709  0.2693  0.0315
  320TIP3    H125155   2.212   4.850  11.411  0.0553  0.2159 -0.2200
  320TIP3    H225156   2.345   4.904  11.361  0.4746 -0.2571  0.3728
  321TIP3   OH225157   2.618   1.562  12.218  0.6158 -0.0606 -0.7198
  321TIP3    H125158   2.574   1.521  12.144  0.4650  1.0521 -1.2591
  321TIP3    H225159   2.682   1.497  12.246 -0.0920 -0.9493 -1.1009
  322TIP3   OH225160   3.117   3.941  13.005 -0.3455  0.0479  0.8237
  322TIP3    H125161   3.199   3.989  13.016  0.5538 -0.5382 -2.2637
  322TIP3    H225162   3.066   3.995  12.944 -0.1264 -1.8267 -1.1552
  323TIP3   OH225163   5.940   1.392  19.721  0.0627  0.4516 -0.6010
  323TIP3    H125164   6.033   1.389  19.695 -0.0067  1.0095 -0.9482
  323TIP3    H225165   5.909   1.476  19.685 -0.1832  0.9979  0.8191
  324TIP3   OH225166   0.887   1.879  18.906 -0.0373 -0.8509  0.1404
  324TIP3    H125167   0.918   1.811  18.847 -0.4717 -0.3153 -0.7205
  324TIP3    H225168   0.964   1.901  18.959  0.9141 -0.0435 -1.4890
  325TIP3   OH225169   2.340   7.383  17.669 -0.4657 -0.2083  0.6286
  325TIP3    H125170   2.323   7.440  17.745 -3.0547  1.5299 -1.0792
  325TIP3    H225171   2.435   7.370  17.670  0.1678  3.3185  1.7541
  326TIP3   OH225172   1.839   6.614  17.574 -0.7206 -0.1819  0.2510
  326TIP3    H125173   1.821   6.562  17.496 -3.1546  2.0869 -0.8482
  326TIP3    H225174   1.932   6.638  17.565 -0.3355 -1.8585 -0.6804
  327TIP3   OH225175   4.719   3.697  16.858 -0.1857 -0.4247 -0.0273
  327TIP3    H125176   4.665   3.621  16.840 -0.0911 -0.9508  1.6700
  327TIP3    H225177   4.698   3.720  16.949  0.6329  0.8575 -0.1329
  328TIP3   OH225178   0.200   1.221  18.241 -0.3975  0.2305  0.0557
  328TIP3    H125179   0.170   1.131  18.227  0.3717  0.1351 -1.0948
  328TIP3    H225180   0.126   1.275  18.215 -0.6254 -0.0519  0.1118
  329TIP3   OH225181   1.136   6.015  18.534 -0.0791 -0.2151  0.2803
  329TIP3    H125182   1.189   6.026  18.455  0.2519 -0.7664  0.4212
  329TIP3    H225183   1.172   5.937  18.577 -2.7360 -2.3426 -1.0486
  330TIP3   OH225184   2.739   0.638  18.346  0.2129  0.6839  0.2859
  330TIP3    H125185   2.714   0.705  18.411 -1.6665 -0.7081  1.0919
  330TIP3    H225186   2.656   0.607  18.311  1.0193 -1.2371 -0.0449
  331TIP3   OH225187   1.460   3.349  18.745 -0.2888 -0.4404 -0.5268
  331TIP3    H125188   1.500   3.382  18.665 -0.9008 -0.0485 -0.6754
  331TIP3    H225189   1.482   3.256  18.745 -1.4189 -0.7428 -1.8582
  332TIP3   OH225190   3.432   3.596  18.483  0.2776  0.1029  1.0765
  332TIP3    H125191   3.449   3.529  18.416 -2.4473 -1.5526  1.8717
  332TIP3    H225192   3.349   3.635  18.457 -0.6990 -0.3625  3.2448
  333TIP3   OH225193   3.932   2.063  19.026 -0.3394  0.2994 -0.1809
  333TIP3    H125194   3.978   2.081  19.108 -1.2446  1.6193  0.0746
  333TIP3    H225195   3.928   2.148  18.982  0.4076 -0.4500 -1.7548
  334TIP3   OH225196   1.153   3.053  19.706  0.2293 -1.7013 -0.0035
  334TIP3    H125197   1.086   3.086  19.646  0.1943 -1.0396  0.3900
  334TIP3    H225198   1.113   3.061  19.792  0.5447 -1.9846  0.1684
  335TIP3   OH225199   0.093   3.579  18.042  0.1519 -0.0933 -0.1648
  335TIP3    H125200   0.048   3.496  18.059 -1.2553  0.3430 -1.5261
  335TIP3    H225201   0.090   3.626  18.125  0.7716 -1.2928  0.5644
  336TIP3   OH225202   5.254   5.622  18.333 -0.1808  0.5986  0.2734
  336TIP3    H125203   5.170   5.664  18.351 -1.3601 -1.9496  1.2107
  336TIP3    H225204   5.297   5.617  18.419  0.4301  0.8242 -0.0083
  337TIP3   OH225205   6.442   5.366  19.201 -0.4633  0.1163 -0.2832
  337TIP3    H125206   6.348   5.355  19.194 -0.5551  1.0081 -0.7177
  337TIP3    H225207   6.475   5.283  19.235 -1.3276 -0.4314 -0.7702
  338TIP3   OH225208   1.159   6.535  19.384 -0.5698 -0.6379  0.0174
  338TIP3    H125209   1.130   6.612  19.433  1.1253  1.0801 -1.4697
  338TIP3    H225210   1.080   6.500  19.344 -1.4710 -0.0762  1.2614
  339TIP3   OH225211   7.409   4.771  17.118 -0.5057  0.3729 -0.5066
  339TIP3    H125212   7.330   4.802  17.073 -0.2942  0.4188 -0.8467
  339TIP3    H225213   7.481   4.799  17.061 -0.1631  1.4329  0.4132
  340TIP3   OH225214   3.080   2.419  17.957 -0.4473 -0.4630  0.5526
  340TIP3    H125215   3.157   2.476  17.960  0.2744 -1.2974 -1.0394
  340TIP3    H225216   3.019   2.458  18.021  1.2929  0.1683  1.8985
  341TIP3   OH225217   1.106   3.572  17.907 -0.3529  0.2267  0.3403
  341TIP3    H125218   1.114   3.523  17.825 -1.3739 -0.7350  0.7968
  341TIP3    H225219   1.012   3.570  17.927 -0.2796  1.4833  0.9212
  342TIP3   OH225220   3.017   7.101  18.539 -0.1601 -0.3452  0.3123
  342TIP3    H125221   3.098   7.058  18.513 -0.0535 -0.5964  1.0265
  342TIP3    H225222   3.037   7.142  18.623 -1.3847 -2.3999  1.7048
  343TIP3   OH225223   0.163   2.072  18.355  0.0760  0.1546 -0.4602
  343TIP3    H125224   0.205   2.130  18.292 -0.7155  2.3095  0.8682
  343TIP3    H225225   0.194   2.103  18.440 -1.4802 -0.4579  0.3702
  344TIP3   OH225226   5.166   3.224  19.153  0.1870 -0.8169 -0.5316
  344TIP3    H125227   5.211   3.304  19.179  0.1346 -1.4432  1.7026
  344TIP3    H225228   5.116   3.248  19.075  1.5482  0.8335 -0.9448
  345TIP3   OH225229   4.461   1.346  17.007  0.2563 -0.0748 -0.0376
  345TIP3    H125230   4.367   1.331  16.999  0.0134  1.5883 -0.6074
  345TIP3    H225231   4.478   1.343  17.102  0.1247 -2.8838 -0.0280
  346TIP3   OH225232   6.100   3.476  18.623  0.1544 -0.7302 -0.3616
  346TIP3    H125233   6.123   3.504  18.534  0.2088  1.0582  0.1862
  346TIP3    H225234   6.159   3.403  18.641 -0.2199 -1.4872 -1.9762
  347TIP3   OH225235   4.805   0.247  18.723 -0.3937 -0.4484 -0.1989
  347TIP3    H125236   4.768   0.300  18.793 -1.3036 -0.1787 -0.8766
  347TIP3    H225237   4.893   0.283  18.710 -1.0552  1.0285 -0.7681
  348TIP3   OH225238   4.539   2.435  17.695 -0.5385  0.2925  0.3605
  348TIP3    H125239   4.471   2.368  17.706 -0.2448 -0.4655 -1.8349
  348TIP3    H225240   4.490   2.515  17.674 -0.8800  0.7690  2.7373
  349TIP3   OH225241   4.083   0.667  17.515  0.3811 -0.5912  0.2414
  349TIP3    H125242   4.156   0.671  17.577 -0.5936  0.0698  1.4021
  349TIP3    H225243   4.113   0.718  17.439  0.7851  0.4861  1.0909
  350TIP3   OH225244   1.698   1.882  19.110  0.6472 -0.1415  0.2681
  350TIP3    H125245   1.782   1.895  19.066  0.1168 -2.3227 -1.6488
  350TIP3    H225246   1.642   1.952  19.077  1.1152  0.0334 -0.1693
  351TIP3   OH225247   3.161   2.381  18.482 -0.1371 -0.0434  0.0012
  351TIP3    H125248   3.176   2.422  18.397 -3.5141  0.4941 -0.5086
  351TIP3    H225249   3.196   2.444  18.545 -0.0029  0.8517 -0.9293
  352TIP3   OH225250   1.148   7.326  17.123 -0.2654  0.0506  0.5519
  352TIP3    H125251   1.063   7.293  17.092 -1.3533  1.5790  1.7278
  352TIP3    H225252   1.148   7.306  17.217  1.0887 -0.7130  0.4158
  353TIP3   OH225253   6.165   5.437  18.170 -0.0293 -0.5003 -0.3373
  353TIP3    H125254   6.233   5.380  18.207  1.6004 -1.2955 -4.1069
  353TIP3    H225255   6.099   5.376  18.137 -1.7586  0.2098  1.6254
  354TIP3   OH225256   5.028   5.287  17.782 -0.1165  0.1338  0.3915
  354TIP3    H125257   5.096   5.234  17.740 -1.6803 -0.6092 -1.2994
  354TIP3    H225258   4.964   5.223  17.813 -1.3443  0.9209 -0.4354
  355TIP3   OH225259   4.135   2.565  19.976 -0.4177 -0.1351 -0.3655
  355TIP3    H125260   4.082   2.627  19.926 -0.9843 -0.8012 -0.6056
  355TIP3    H225261   4.125   2.482  19.930  0.8694 -0.2688 -0.4259
  356TIP3   OH225262   4.639   5.497  18.236 -0.2370  0.2370  0.0858
  356TIP3    H125263   4.669   5.562  18.173 -0.5702 -0.4996 -0.8618
  356TIP3    H225264   4.594   5.431  18.183 -1.3085  0.0357  1.1882
  357TIP3   OH225265   6.643   1.339  18.290 -0.1994 -0.2725 -0.6871
  357TIP3    H125266   6.676   1.298  18.370 -2.3053 -1.1920 -0.2138
  357TIP3    H225267   6.643   1.269  18.225  0.2972  0.1316 -1.1243
  358TIP3   OH225268   3.816   4.380  18.885 -0.1695 -0.1869 -0.2760
  358TIP3    H125269   3.808   4.448  18.952 -0.5350 -0.6747  0.1826
  358TIP3    H225270   3.728   4.346  18.876 -0.0436 -0.3875 -0.7330
  359TIP3   OH225271   2.514   6.598  18.741 -0.1232 -0.3970  0.2418
  359TIP3    H125272   2.424   6.565  18.732 -0.5901  0.9544 -0.1766
  359TIP3    H225273   2.528   6.651  18.664  1.1122 -0.7185  0.2335
  360TIP3   OH225274   2.262   5.140  18.731 -0.0691  0.1568  0.1152
  360TIP3    H125275   2.311   5.082  18.789  2.4083 -0.2847 -2.1762
  360TIP3    H225276   2.301   5.227  18.747 -1.4021  0.5964  1.1165
  361TIP3   OH225277   3.444   4.120  19.822  0.0710 -0.1543  0.3736
  361TIP3    H125278   3.427   4.056  19.891  2.1864 -0.0776  1.0372
  361TIP3    H225279   3.531   4.097  19.789 -0.3662  0.5920 -1.4237
  362TIP3   OH225280   2.388   1.750  19.748 -0.6393 -0.2029 -0.3304
  362TIP3    H125281   2.437   1.677  19.786  1.0326  0.6257 -0.8110
  362TIP3    H225282   2.369   1.722  19.659  0.6500  0.2094 -0.7553
  363TIP3   OH225283   2.784   5.948  17.868 -0.2754 -0.3677 -0.7398
  363TIP3    H125284   2.764   5.985  17.782 -1.4643 -0.3886 -0.4868
  363TIP3    H225285   2.744   6.009  17.930  0.3126 -0.5159 -0.1988
  364TIP3   OH225286   1.552   3.103  17.820 -0.0853 -0.1807 -0.2089
  364TIP3    H125287   1.630   3.141  17.859 -1.1954 -0.5724  2.7172
  364TIP3    H225288   1.543   3.146  17.735  3.8820 -0.9753 -1.2435
  365TIP3   OH225289   2.244   1.054  19.730  0.4164 -0.4006  0.1885
  365TIP3    H125290   2.165   1.010  19.698  1.0986 -0.8866 -0.8608
  365TIP3    H225291   2.211   1.134  19.771 -0.4630  0.9656 -2.8910
  366TIP3   OH225292   5.577   3.999  17.131  0.2354  0.2814  0.2835
  366TIP3    H125293   5.640   3.994  17.059  1.7590 -4.7666  1.5799
  366TIP3    H225294   5.630   4.024  17.207 -0.1189 -0.1345  0.6732
  367TIP3   OH225295   6.775   3.034  18.369  0.3918 -0.4435 -0.2781
  367TIP3    H125296   6.851   3.017  18.313 -0.6791 -0.7697 -1.6584
  367TIP3    H225297   6.700   3.029  18.311 -0.5853  1.6748  0.6887
  368TIP3   OH225298   4.675   5.197  17.564  0.5982  0.1529  0.0551
  368TIP3    H125299   4.726   5.271  17.597  0.5681  0.3510 -0.3393
  368TIP3    H225300   4.610   5.237  17.505  0.2290 -0.1309  0.2615
  369TIP3   OH225301   5.791   5.316  19.633  0.2221  0.0569  0.0889
  369TIP3    H125302   5.790   5.403  19.674 -1.3306 -0.5775  1.5274
  369TIP3    H225303   5.869   5.274  19.669 -0.1036  0.1787  0.9737
  370TIP3   OH225304   4.708   1.393  18.939 -0.4514  0.4920  0.1178
  370TIP3    H125305   4.617   1.413  18.914 -1.2275 -0.2703  2.1138
  370TIP3    H225306   4.729   1.458  19.006 -0.3345 -0.6546  1.2313
  371TIP3   OH225307   4.002   0.866  17.719 -0.2662 -0.4077 -0.3539
  371TIP3    H125308   3.979   0.920  17.644 -0.2778 -0.6327 -0.5115
  371TIP3    H225309   4.033   0.784  17.682 -0.0799 -0.4454 -0.1170
  372TIP3   OH225310   2.238   3.289  19.137 -0.0105 -0.2055  0.2839
  372TIP3    H125311   2.279   3.209  19.170  0.0378  0.3446  1.6000
  372TIP3    H225312   2.203   3.332  19.215 -0.8802  0.5838 -0.5257
  373TIP3   OH225313   2.091   4.483  19.125  0.4898  0.1075 -0.2073
  373TIP3    H125314   2.105   4.394  19.094 -3.0367 -0.9333  0.7257
  373TIP3    H225315   2.026   4.520  19.066  0.9441  1.6091  0.1879
  374TIP3   OH225316   6.386   5.372  18.320 -0.2597 -0.0876 -0.3207
  374TIP3    H125317   6.334   5.414  18.388 -0.2331 -1.3074  0.4928
  374TIP3    H225318   6.453   5.324  18.368 -0.4733 -1.2883 -1.1784
  375TIP3   OH225319   4.378   2.852  19.256 -0.6821 -0.1489  0.2001
  375TIP3    H125320   4.442   2.920  19.277 -1.0940  0.4660 -0.4971
  375TIP3    H225321   4.311   2.860  19.325  0.5401 -1.5947  1.6550
  376TIP3   OH225322   3.542   4.044  19.497 -0.4402  0.5216 -0.0757
  376TIP3    H125323   3.590   4.000  19.567 -0.9864  0.6162  0.3619
  376TIP3    H225324   3.491   3.975  19.455 -0.8182  0.6263  0.2094
  377TIP3   OH225325   2.938   0.269  17.112 -0.0855 -0.2356  0.2314
  377TIP3    H125326   2.972   0.192  17.157 -1.1783 -0.8488  0.0431
  377TIP3    H225327   2.903   0.236  17.030  0.3268  0.6225 -0.3062
  378TIP3   OH225328   0.450   3.923  19.684 -0.3336 -0.8999  0.2336
  378TIP3    H125329   0.445   3.867  19.607  0.1696 -0.5603 -0.0499
  378TIP3    H225330   0.542   3.919  19.711 -0.3544 -0.4359  0.3824
  379TIP3   OH225331   0.322   4.956  18.845 -0.0831  0.2682 -0.5447
  379TIP3    H125332   0.300   4.991  18.759  1.2533  0.0156 -1.0133
  379TIP3    H225333   0.401   4.903  18.831  1.5391  2.0506  1.1888
  380TIP3   OH225334   2.445   2.574  17.602 -0.3973  0.5570  0.4782
  380TIP3    H125335   2.397   2.540  17.677 -0.9658 -0.1826 -0.1969
  380TIP3    H225336   2.435   2.506  17.535  0.0296  1.2355 -0.2890
  381TIP3   OH225337   7.080   2.408  17.572 -0.4252 -0.2274  0.0155
  381TIP3    H125338   7.007   2.348  17.588 -1.2191  0.7462  0.1403
  381TIP3    H225339   7.059   2.486  17.624  0.7377  0.0586  0.1038
  382TIP3   OH225340   2.679   5.500  18.776  0.0690 -0.2814  0.0623
  382TIP3    H125341   2.644   5.496  18.687  0.3137 -0.3358 -0.0307
  382TIP3    H225342   2.742   5.572  18.774 -3.2588  3.0373  1.3581
  383TIP3   OH225343   6.717   0.954  19.018  0.2138  0.1102  0.1145
  383TIP3    H125344   6.702   0.918  18.931 -1.7368  0.9476  0.0433
  383TIP3    H225345   6.694   1.047  19.009  2.1736  0.7438  1.0096
  384TIP3   OH225346   0.583   3.884  19.362 -0.2306 -0.2656  0.1016
  384TIP3    H125347   0.659   3.851  19.410 -0.8286 -2.1208 -0.1540
  384TIP3    H225348   0.609   3.880  19.270 -0.5790 -0.7736  0.0221
  385TIP3   OH225349   2.728   1.372  18.741 -0.0783  0.3013  0.1570
  385TIP3    H125350   2.642   1.358  18.781  0.0405  1.5223  0.8967
  385TIP3    H225351   2.770   1.286  18.743 -0.9174 -0.1076  0.6679
  386TIP3   OH225352   4.804   1.216  17.083  0.1610 -0.8381  0.1122
  386TIP3    H125353   4.830   1.242  17.171  0.5288 -0.7782 -0.0116
  386TIP3    H225354   4.813   1.120  17.084  0.9785 -0.7694 -0.1144
  387TIP3   OH225355   2.795   6.025  17.576 -0.6070  0.4413 -0.3662
  387TIP3    H125356   2.805   5.938  17.537 -1.1536  0.0440  0.3625
  387TIP3    H225357   2.812   6.085  17.503  1.8570 -0.2137 -0.4218
  388TIP3   OH225358   1.662   2.559  19.616  0.0735  0.4463  0.3626
  388TIP3    H125359   1.659   2.496  19.544  0.6179  0.0444  0.6784
  388TIP3    H225360   1.591   2.532  19.675  0.6784 -0.2559  0.7922
  389TIP3   OH225361   2.699   5.927  18.472 -0.5132 -0.9825  0.2808
  389TIP3    H125362   2.729   5.842  18.439 -0.5292 -0.9414  0.1609
  389TIP3    H225363   2.696   5.983  18.395 -2.2298 -1.3511  0.0145
  390TIP3   OH225364   4.191   1.601  19.524 -0.2450  0.0800  0.0564
  390TIP3    H125365   4.137   1.655  19.467 -0.0581  1.0632  0.7846
  390TIP3    H225366   4.226   1.662  19.589  0.8130 -0.7378  0.2888
  391TIP3   OH225367   1.837   4.184  18.947  0.2873  0.3441  0.8177
  391TIP3    H125368   1.847   4.139  18.863  2.3841  2.1033  0.0222
  391TIP3    H225369   1.819   4.275  18.924 -1.5476  0.4361  2.3584
  392TIP3   OH225370   7.499   4.291  18.523  0.0286 -0.0495 -0.6506
  392TIP3    H125371   7.492   4.384  18.505 -0.2942 -0.1607 -1.1105
  392TIP3    H225372   7.446   4.277  18.601 -1.2113 -0.1109 -1.4841
  393TIP3   OH225373   4.357   7.061  18.741 -0.5215 -0.0641 -0.0099
  393TIP3    H125374   4.438   7.082  18.695 -1.1641 -2.6826 -2.6178
  393TIP3    H225375   4.310   7.145  18.747  0.0841  0.6508 -3.2969
  394TIP3   OH225376   3.452   4.007  16.975  0.1471  0.1000 -0.4236
  394TIP3    H125377   3.386   3.971  17.034  0.0263  0.0609 -0.5830
  394TIP3    H225378   3.424   4.097  16.959 -1.3919 -0.7072 -2.6629
  395TIP3   OH225379   1.416   6.804  19.891 -0.2309  0.3901 -0.1836
  395TIP3    H125380   1.494   6.806  19.946  0.3321  0.1527 -0.9406
  395TIP3    H225381   1.356   6.745  19.935 -0.0168  0.6507  0.4601
  396TIP3   OH225382   0.016   6.616  19.693 -1.0578  0.5192  0.1825
  396TIP3    H125383  -0.039   6.604  19.616 -0.9316 -1.1394  0.3151
  396TIP3    H225384   0.033   6.527  19.725  1.4011  0.9799  0.3495
  397TIP3   OH225385   6.727   1.747  18.170 -0.2227  0.4123 -0.2532
  397TIP3    H125386   6.736   1.741  18.265 -0.5929  0.7796 -0.1893
  397TIP3    H225387   6.658   1.684  18.149  0.8565 -0.7330 -0.4641
  398TIP3   OH225388   3.257   5.494  17.958 -0.4751  0.2938  0.2332
  398TIP3    H125389   3.303   5.418  17.921  0.7051  1.1044 -0.0311
  398TIP3    H225390   3.282   5.567  17.901  0.3753  1.3315  1.8468
  399TIP3   OH225391   6.629   5.212  18.414 -0.2041  0.5705  0.0171
  399TIP3    H125392   6.674   5.202  18.498  0.7613  1.9383 -0.3104
  399TIP3    H225393   6.693   5.182  18.349 -0.4798  0.6911 -0.3119
  400TIP3   OH225394   3.035   7.174  19.067  0.1237 -0.1814 -0.1098
  400TIP3    H125395   2.970   7.229  19.110 -0.3711 -1.6347  1.0915
  400TIP3    H225396   3.112   7.179  19.124 -0.5469 -2.1433  1.0562
  401TIP3   OH225397   0.688   6.478  17.155  0.2175  0.1775 -0.1442
  401TIP3    H125398   0.779   6.501  17.175 -0.1443  0.9854  0.6625
  401TIP3    H225399   0.636   6.547  17.198 -0.7588 -0.0666 -0.9017
  402TIP3   OH225400   6.319   4.479  18.228 -0.1457  0.1244 -0.0846
  402TIP3    H125401   6.295   4.408  18.287 -0.8330 -0.4061 -0.9741
  402TIP3    H225402   6.317   4.439  18.141  0.7044  0.9225 -0.4832
  403TIP3   OH225403   4.763   5.289  19.853  0.3879 -0.1196 -0.1774
  403TIP3    H125404   4.681   5.294  19.802  0.4275  0.6778 -0.1831
  403TIP3    H225405   4.734   5.291  19.944  0.2994 -1.8327 -0.1359
  404TIP3   OH225406   4.798   2.055  19.139  0.0671  0.1611 -0.6317
  404TIP3    H125407   4.711   2.075  19.173  0.1836 -0.5738  0.1410
  404TIP3    H225408   4.839   2.002  19.208  0.2097 -1.6678 -2.0569
  405TIP3   OH225409   2.582   0.292  19.331 -0.4473 -0.2327 -0.3992
  405TIP3    H125410   2.588   0.232  19.256 -2.8405  1.7096 -2.3188
  405TIP3    H225411   2.574   0.234  19.407 -1.4206 -2.3896 -2.0139
  406TIP3   OH225412   3.426   2.516  17.518 -0.5779 -0.1276 -0.8912
  406TIP3    H125413   3.432   2.494  17.425  1.6542  1.1321 -1.1129
  406TIP3    H225414   3.497   2.579  17.533 -0.1148 -1.1482  1.9145
  407TIP3   OH225415   1.359   7.507  17.976 -0.2917 -0.4153 -0.0055
  407TIP3    H125416   1.433   7.457  18.010  1.4309  0.8884 -1.6739
  407TIP3    H225417   1.334   7.461  17.896  1.9726  1.7962 -2.1230
  408TIP3   OH225418   2.162   1.627  18.061  0.3711 -0.0017 -0.9303
  408TIP3    H125419   2.250   1.624  18.099  0.1627 -0.6304 -0.4889
  408TIP3    H225420   2.155   1.548  18.008  0.2230  0.2656 -1.3180
  409TIP3   OH225421   5.189   4.323  18.322  0.1565  0.5300 -0.4853
  409TIP3    H125422   5.216   4.261  18.254  2.2433  1.2146 -0.3527
  409TIP3    H225423   5.143   4.268  18.387 -0.0673 -0.4671 -1.4520
  410TIP3   OH225424   3.590   3.118  17.276  0.1616  0.7326  0.2809
  410TIP3    H125425   3.508   3.166  17.271 -0.0126  0.3345 -1.1300
  410TIP3    H225426   3.632   3.151  17.355 -1.3492  0.9333  1.0434
  411TIP3   OH225427   1.872   3.461  19.292 -0.0240  0.2836 -0.4031
  411TIP3    H125428   1.840   3.387  19.242  2.6608 -2.3691  1.4137
  411TIP3    H225429   1.823   3.459  19.374  0.0187  0.5624 -0.3678
  412TIP3   OH225430   1.821   4.955  18.711  0.2613  0.2735  0.2486
  412TIP3    H125431   1.783   5.024  18.765  1.1378  0.2549  0.9173
  412TIP3    H225432   1.871   5.002  18.644  1.6150  0.3336  1.2454
  413TIP3   OH225433   4.437   4.625  19.235 -0.5308  0.1871  0.1577
  413TIP3    H125434   4.402   4.707  19.271 -0.4258  0.1363  0.3766
  413TIP3    H225435   4.525   4.648  19.204 -1.3921  0.7570 -2.0372
  414TIP3   OH225436   6.126   0.844  18.038 -0.4014  0.4579  0.0851
  414TIP3    H125437   6.050   0.809  18.084 -0.3600 -0.0333 -0.2245
  414TIP3    H225438   6.185   0.770  18.028 -0.3946  0.5718 -0.7417
  415TIP3   OH225439   4.673   3.074  17.534  0.1444  0.2194 -0.1382
  415TIP3    H125440   4.606   3.018  17.495 -0.3142 -1.8804  3.2606
  415TIP3    H225441   4.625   3.154  17.559 -0.2790  0.1698 -0.7663
  416TIP3   OH225442   3.772   0.730  18.694 -0.0729  0.1370 -0.2334
  416TIP3    H125443   3.764   0.676  18.616 -1.0799 -0.4437  0.2412
  416TIP3    H225444   3.716   0.806  18.676  0.7447  0.6604 -0.5983
  417TIP3   OH225445   1.234   0.546  18.782  0.1898  0.3066 -0.0669
  417TIP3    H125446   1.311   0.593  18.749 -0.1704 -0.8259 -2.8627
  417TIP3    H225447   1.173   0.547  18.708 -1.4050 -1.1058  1.1636
  418TIP3   OH225448   2.778   5.311  18.344  0.3210  0.1354  0.5579
  418TIP3    H125449   2.752   5.224  18.314 -1.6699  0.8481  0.0394
  418TIP3    H225450   2.816   5.353  18.266  0.7302 -0.0564  0.6524
  419TIP3   OH225451   5.567   6.968  19.730  0.0012 -0.1052 -1.0136
  419TIP3    H125452   5.519   7.027  19.787  0.4257 -0.8497  0.1468
  419TIP3    H225453   5.634   7.022  19.689  0.7728  0.1281  0.4920
  420TIP3   OH225454   0.804   4.958  18.648  0.0053 -0.1571  0.1399
  420TIP3    H125455   0.894   4.983  18.628 -0.3209  0.2655 -0.8177
  420TIP3    H225456   0.779   4.899  18.577 -0.7872  0.4696 -0.1118
  421TIP3   OH225457   6.070   5.520  17.376  0.8685  0.4687 -0.4643
  421TIP3    H125458   6.088   5.436  17.334  0.2095 -1.2057  2.3413
  421TIP3    H225459   6.004   5.561  17.320  1.8852 -0.4127 -2.4006
  422TIP3   OH225460   3.490   1.529  18.517  0.0935 -0.0711  0.3020
  422TIP3    H125461   3.485   1.623  18.504 -0.6046 -0.1670 -0.1545
  422TIP3    H225462   3.537   1.497  18.439 -0.8999 -0.2492 -0.2309
  423TIP3   OH225463   6.860   2.310  18.520 -0.0574 -0.4835 -0.3521
  423TIP3    H125464   6.943   2.358  18.519 -0.7045  0.7566  0.6484
  423TIP3    H225465   6.885   2.218  18.527  1.2478 -0.1003  0.4694
  424TIP3   OH225466   5.068   0.630  17.281 -0.0385 -0.4775 -0.2650
  424TIP3    H125467   5.145   0.587  17.319  1.5500 -1.1488 -3.8206
  424TIP3    H225468   5.013   0.558  17.251  0.1618 -0.0649 -1.7041
  425TIP3   OH225469   6.841   3.867  18.358 -0.4334 -0.2812 -0.0932
  425TIP3    H125470   6.817   3.958  18.341 -0.9404 -0.5774 -1.0426
  425TIP3    H225471   6.796   3.845  18.440 -0.3703  0.2950  0.0958
  426TIP3   OH225472   1.073   7.183  19.455  0.1150  0.0431  0.2109
  426TIP3    H125473   1.098   7.194  19.363  1.2495  0.0224  0.5020
  426TIP3    H225474   1.040   7.268  19.481  0.1229  0.1501 -0.1187
  427TIP3   OH225475   4.179   3.195  18.474 -0.0542 -0.0482 -0.0817
  427TIP3    H125476   4.205   3.136  18.403 -2.3951 -0.8291 -0.4038
  427TIP3    H225477   4.140   3.270  18.430 -1.1613 -0.3549  0.3259
  428TIP3   OH225478   2.111   4.769  18.403 -0.6844  0.1849  0.8462
  428TIP3    H125479   2.195   4.727  18.423 -0.4002  0.1666 -0.3533
  428TIP3    H225480   2.097   4.829  18.477  0.4644  0.3165  0.9774
  429TIP3   OH225481   6.624   1.757  17.820 -0.2459 -0.1696 -0.1053
  429TIP3    H125482   6.551   1.787  17.874  0.0991  0.7745 -0.1524
  429TIP3    H225483   6.674   1.836  17.799 -1.2412 -0.1987 -3.1673
  430TIP3   OH225484   7.352   0.403  19.374  0.2073 -0.2436 -0.4178
  430TIP3    H125485   7.388   0.427  19.288 -0.9800 -0.2070 -0.9176
  430TIP3    H225486   7.258   0.398  19.360  0.0381 -0.6928  0.7872
  431TIP3   OH225487   6.099   4.192  18.694  0.1609  0.2758 -0.5640
  431TIP3    H125488   6.044   4.126  18.737 -0.0287  0.7952  0.0022
  431TIP3    H225489   6.188   4.170  18.723 -0.0939  1.4964  1.3406
  432TIP3   OH225490   6.877   3.708  18.836 -0.7071 -0.0141  0.3783
  432TIP3    H125491   6.853   3.621  18.805 -0.4428 -0.2841  0.9217
  432TIP3    H225492   6.968   3.719  18.807  0.2318 -1.0706  2.6915
  433TIP3   OH225493   5.446   1.908  17.497 -0.8792 -0.1101  0.1437
  433TIP3    H125494   5.508   1.892  17.569 -0.5243  0.3891 -0.0461
  433TIP3    H225495   5.384   1.835  17.502  0.9699 -1.8546 -1.0044
  434TIP3   OH225496   4.195   7.443  19.141  0.3745  0.2103  0.1415
  434TIP3    H125497   4.106   7.421  19.116  0.9923 -2.8727  0.2544
  434TIP3    H225498   4.250   7.402  19.075  1.7809  2.3807 -0.1600
  435TIP3   OH225499   2.644   6.670  17.964 -0.1856 -0.0395  0.5615
  435TIP3    H125500   2.708   6.602  17.984  0.1448  0.2061  0.3396
  435TIP3    H225501   2.575   6.658  18.030  0.1048 -0.2808  0.8208
  436TIP3   OH225502   6.190   1.333  19.318  0.9051  0.2066  0.2352
  436TIP3    H125503   6.153   1.402  19.262  1.7634  0.5439  0.0630
  436TIP3    H225504   6.178   1.366  19.407  0.9796  0.4080  0.1706
  437TIP3   OH225505   3.219   1.328  18.781 -0.2913 -0.3832  0.1136
  437TIP3    H125506   3.183   1.340  18.693  1.8702  0.1243 -0.7725
  437TIP3    H225507   3.257   1.240  18.780 -1.2747 -0.8291  0.9446
  438TIP3   OH225508   1.669   6.055  18.043  0.5364 -0.3365  0.3196
  438TIP3    H125509   1.650   6.062  18.137  0.2974 -1.6174  0.3987
  438TIP3    H225510   1.633   6.135  18.005  1.5363  0.6864  1.4306
  439TIP3   OH225511   6.985   1.593  19.036  0.0858 -0.7206  0.3286
  439TIP3    H125512   7.049   1.660  19.012 -0.3596 -0.4745 -0.2009
  439TIP3    H225513   7.036   1.528  19.084  0.1076  1.1473  3.0542
  440TIP3   OH225514   4.487   6.733  18.699  0.2032  0.2493  0.7438
  440TIP3    H125515   4.471   6.640  18.713 -1.4453  0.2349 -0.8837
  440TIP3    H225516   4.415   6.777  18.745 -0.7952  0.5304 -1.0139
  441TIP3   OH225517   7.244   6.745  18.563  0.0182 -0.3171  0.6947
  441TIP3    H125518   7.297   6.813  18.521  1.7182 -0.3710  2.5978
  441TIP3    H225519   7.248   6.766  18.656 -1.2298 -1.8093  1.1193
  442TIP3   OH225520   3.468   3.863  19.235  0.1355  0.2272  0.7529
  442TIP3    H125521   3.387   3.828  19.198  0.2313  1.6413 -0.9228
  442TIP3    H225522   3.476   3.820  19.320 -2.4820  0.1932  1.0723
  443TIP3   OH225523   5.591   5.491  17.851 -0.1223  0.2134  0.0632
  443TIP3    H125524   5.626   5.549  17.783  1.9905 -2.0632 -0.9687
  443TIP3    H225525   5.656   5.420  17.857  0.2820  0.6607  5.1130
  444TIP3   OH225526   3.064   5.111  18.921 -0.3379 -0.2490  0.0959
  444TIP3    H125527   3.010   5.066  18.857  0.0162 -1.2207  0.4596
  444TIP3    H225528   3.069   5.050  18.995 -0.3979  0.6696  0.8811
  445TIP3   OH225529   1.633   6.048  19.640  0.4602  0.2908 -0.4617
  445TIP3    H125530   1.640   6.140  19.613 -0.7412  0.2536 -0.9172
  445TIP3    H225531   1.724   6.022  19.656  0.7365  1.9158  0.9042
  446TIP3   OH225532   5.451   0.755  17.150  0.1642  0.1157  0.2398
  446TIP3    H125533   5.454   0.707  17.233  0.8145  0.0955  0.2129
  446TIP3    H225534   5.540   0.749  17.116  0.1715  1.0680  0.0699
  447TIP3   OH225535   5.227   0.318  19.403  0.3206  0.3624  0.5812
  447TIP3    H125536   5.309   0.322  19.452  0.0900 -1.0604  1.1369
  447TIP3    H225537   5.194   0.408  19.404  2.0044  1.0339  0.0807
  448TIP3   OH225538   6.610   1.964  18.315 -0.2703 -0.5323  0.1217
  448TIP3    H125539   6.583   1.882  18.356 -1.7234 -0.5474 -0.7940
  448TIP3    H225540   6.689   1.940  18.266 -0.9570 -1.5335 -0.5464
  449TIP3   OH225541   4.736   1.904  19.609  0.2224 -0.2420  0.5411
  449TIP3    H125542   4.736   1.881  19.516 -2.0555  1.1191  0.1376
  449TIP3    H225543   4.811   1.962  19.620  1.3155 -1.4818 -0.1085
  450TIP3   OH225544   4.953   2.866  19.499  0.0198  0.1947  0.1925
  450TIP3    H125545   4.994   2.933  19.444 -1.1444  1.6597  1.0266
  450TIP3    H225546   4.975   2.891  19.589  0.3525 -1.1079  0.4969
  451TIP3   OH225547   3.867   6.367  18.363  0.4543  1.4079 -0.2842
  451TIP3    H125548   3.931   6.297  18.354 -0.9230  0.1265 -0.5544
  451TIP3    H225549   3.865   6.387  18.457  1.4845  1.7083 -0.3222
  452TIP3   OH225550   3.250   3.815  17.405 -0.0530 -0.0932  0.2483
  452TIP3    H125551   3.173   3.764  17.430  0.8494 -2.1821 -0.9340
  452TIP3    H225552   3.301   3.824  17.485  0.6163 -2.7039  0.2106
  453TIP3   OH225553   1.957   4.026  19.162 -0.5639 -0.0772 -0.1760
  453TIP3    H125554   1.923   4.093  19.102 -1.6693  0.2038  0.7366
  453TIP3    H225555   2.047   4.054  19.180 -0.0826 -0.3306 -1.9038
  454TIP3   OH225556   4.218   4.481  19.151  0.3031  0.1064  0.3516
  454TIP3    H125557   4.296   4.527  19.182  0.4259 -0.4558  0.9024
  454TIP3    H225558   4.148   4.545  19.158  0.8972  0.9517 -1.1449
  455TIP3   OH225559   4.471   6.397  17.367 -0.3566  0.4121 -0.1795
  455TIP3    H125560   4.377   6.379  17.376 -0.2656  0.6295  1.4702
  455TIP3    H225561   4.509   6.312  17.342 -1.0623  0.4963 -1.6457
  456TIP3   OH225562   3.935   0.549  17.176 -1.0059  0.1046 -0.8661
  456TIP3    H125563   3.868   0.589  17.230 -0.5796  1.3191 -1.2113
  456TIP3    H225564   4.017   0.561  17.225 -0.9997 -1.3332 -0.4590
  457TIP3   OH225565   3.862   1.795  19.700  0.2149  0.2251  0.1807
  457TIP3    H125566   3.929   1.864  19.696  0.4610  0.0462  1.0050
  457TIP3    H225567   3.896   1.733  19.765 -0.9284  0.3245  0.9004
  458TIP3   OH225568   6.340   6.600  18.209 -0.1261 -0.5509  0.3299
  458TIP3    H125569   6.293   6.597  18.125 -0.7200 -1.2191  0.6852
  458TIP3    H225570   6.360   6.509  18.229  0.3120 -0.3648  0.7572
  459TIP3   OH225571   7.574   6.981  18.598  0.2169 -0.3131  0.2649
  459TIP3    H125572   7.539   6.899  18.633  0.0684  1.0292  3.7546
  459TIP3    H225573   7.629   7.015  18.669  1.6949  1.7861 -1.7371
  460TIP3   OH225574   5.764   6.295  19.657  0.2775  0.2700 -0.8765
  460TIP3    H125575   5.686   6.255  19.618 -1.0372  0.4150  1.3758
  460TIP3    H225576   5.730   6.367  19.710  2.1950  1.7003 -1.4704
  461TIP3   OH225577   3.799   1.445  17.596 -0.7741 -0.7065 -0.1445
  461TIP3    H125578   3.780   1.513  17.532 -2.7122 -0.5397  0.5461
  461TIP3    H225579   3.855   1.383  17.550 -1.6384 -0.2901 -1.8119
  462TIP3   OH225580   0.723   7.540  18.483  0.1514  0.1818  0.2193
  462TIP3    H125581   0.657   7.482  18.445 -0.9693  1.6182 -0.0720
  462TIP3    H225582   0.802   7.485  18.489 -0.6943 -1.1815 -0.6222
  463TIP3   OH225583   4.034   4.326  18.403 -0.6176  0.2243  0.5616
  463TIP3    H125584   3.941   4.317  18.424 -1.0931  3.5020  0.3413
  463TIP3    H225585   4.075   4.354  18.485 -0.3241  1.3991  0.0267
  464TIP3   OH225586   4.994   4.690  18.508 -0.1971 -0.2237  0.4602
  464TIP3    H125587   5.073   4.648  18.476 -0.9413 -1.9690  0.8208
  464TIP3    H225588   4.927   4.621  18.508 -1.5798  1.0535  0.6987
  465TIP3   OH225589   2.973   3.290  19.333  0.3160  0.2686 -0.0686
  465TIP3    H125590   2.907   3.348  19.295 -0.5224 -1.8512 -2.1235
  465TIP3    H225591   3.022   3.258  19.257  0.6259 -1.7830  0.9250
  466TIP3   OH225592   3.570   6.132  18.583  0.4120  0.4788  0.1922
  466TIP3    H125593   3.483   6.153  18.616  0.4727 -1.6984  1.9202
  466TIP3    H225594   3.622   6.114  18.661  1.2926 -2.2496 -0.9051
  467TIP3   OH225595   3.294   0.435  17.845 -0.2462 -0.9331 -0.6845
  467TIP3    H125596   3.289   0.401  17.756 -2.0983 -0.3899 -0.8288
  467TIP3    H225597   3.310   0.529  17.834  1.5659 -1.1609 -0.3567
  468TIP3   OH225598   3.403   6.593  18.079 -0.4652  0.0155  0.2382
  468TIP3    H125599   3.383   6.503  18.052 -0.1540 -0.2447  0.8582
  468TIP3    H225600   3.371   6.598  18.169  2.1972 -0.4190  1.2784
  469TIP3   OH225601   3.392   4.523  18.946  0.4673  0.1700 -0.1219
  469TIP3    H125602   3.323   4.511  19.011 -0.4298  0.3002 -1.0160
  469TIP3    H225603   3.422   4.613  18.959 -2.4047  1.6252 -2.3153
  470TIP3   OH225604   1.719   1.456  18.236 -0.1906  0.1502  0.2187
  470TIP3    H125605   1.648   1.518  18.219 -1.5992 -1.4188  0.1471
  470TIP3    H225606   1.723   1.402  18.157  1.5450  0.6044 -0.0408
  471TIP3   OH225607   1.442   7.216  17.531 -0.2749  0.2606  0.4265
  471TIP3    H125608   1.492   7.268  17.468 -0.4289 -0.8426 -0.6517
  471TIP3    H225609   1.476   7.127  17.521 -0.8737 -0.0808  1.3265
  472TIP3   OH225610   3.559   7.430  19.597  0.1660 -0.2928 -0.0384
  472TIP3    H125611   3.488   7.446  19.536 -0.3925 -0.0807  0.6470
  472TIP3    H225612   3.606   7.513  19.602  1.0497 -0.6914 -1.1994
  473TIP3   OH225613   0.462   4.409  19.528 -0.1589  0.2931 -0.0110
  473TIP3    H125614   0.370   4.430  19.546 -0.3201  0.0528 -0.5379
  473TIP3    H225615   0.472   4.319  19.559 -0.4032 -0.0765 -0.9875
  474TIP3   OH225616   0.227   7.565  19.022 -0.1780 -0.5507 -0.1870
  474TIP3    H125617   0.156   7.628  19.036  0.5337 -0.1227  1.6573
  474TIP3    H225618   0.233   7.557  18.927 -0.2772  2.1705 -0.4878
  475TIP3   OH225619   5.121   7.627  17.845 -0.7502 -0.2683  0.1350
  475TIP3    H125620   5.133   7.693  17.777 -1.1745 -2.7021 -2.4889
  475TIP3    H225621   5.186   7.559  17.825 -1.3555 -1.3875  1.7523
  476TIP3   OH225622   4.731   1.176  18.014 -0.2873 -0.1066 -0.5640
  476TIP3    H125623   4.710   1.266  18.038 -0.1700 -0.3436  0.4348
  476TIP3    H225624   4.762   1.135  18.094  1.0494 -0.6480 -1.3188
  477TIP3   OH225625   7.334   0.971  17.903 -0.4157  0.6476  0.1289
  477TIP3    H125626   7.288   1.049  17.933  0.2489  1.3292 -0.5742
  477TIP3    H225627   7.402   1.004  17.844 -1.5842 -0.5918 -2.0789
  478TIP3   OH225628   1.385   4.378  18.399 -0.1136  0.1448 -0.2891
  478TIP3    H125629   1.460   4.428  18.430 -1.2574  1.2638  0.7770
  478TIP3    H225630   1.368   4.413  18.311 -0.1698  0.8066 -0.0231
  479TIP3   OH225631   3.799   2.824  19.637  0.1474  0.4606  0.0746
  479TIP3    H125632   3.801   2.915  19.667  1.1287  0.1856  0.9185
  479TIP3    H225633   3.816   2.830  19.543  0.8028  1.1237  0.2204
  480TIP3   OH225634   2.212   5.942  19.408 -0.5646 -0.8520 -0.3172
  480TIP3    H125635   2.177   6.029  19.391 -2.2666 -0.9970  2.0254
  480TIP3    H225636   2.307   5.953  19.407 -0.6975  1.6413  2.4572
  481TIP3   OH225637   1.908   0.053  17.247  0.5176  0.0616 -0.0689
  481TIP3    H125638   1.823   0.010  17.255  0.2389  0.4407 -0.9285
  481TIP3    H225639   1.965  -0.014  17.208  1.1203 -0.8056  2.1235
  482TIP3   OH225640   6.545   7.080  17.296  0.3101 -0.1296 -0.8987
  482TIP3    H125641   6.581   7.124  17.372 -0.9578  0.0004 -0.3545
  482TIP3    H225642   6.582   7.126  17.221 -1.2084  2.1091 -0.3571
  483TIP3   OH225643   5.755   0.613  17.573 -0.0507  0.0738  0.1990
  483TIP3    H125644   5.787   0.692  17.529  0.8365 -1.0231 -1.2186
  483TIP3    H225645   5.833   0.577  17.616 -0.5123  0.1118  1.0886
  484TIP3   OH225646   1.311   6.243  17.254 -0.1130 -0.0534  0.5650
  484TIP3    H125647   1.246   6.314  17.252 -0.9893 -0.7353 -2.7948
  484TIP3    H225648   1.265   6.168  17.214  2.6730 -0.5649 -1.9814
  485TIP3   OH225649   3.870   6.471  19.745 -0.7779  0.2383 -0.1181
  485TIP3    H125650   3.816   6.536  19.790 -0.3688  0.9591 -0.6408
  485TIP3    H225651   3.879   6.505  19.656 -1.0599 -0.8483 -0.5788
  486TIP3   OH225652   2.035   0.117  18.162  0.1596  0.0848 -0.4932
  486TIP3    H125653   1.989   0.034  18.152  1.0814 -0.3392 -1.4497
  486TIP3    H225654   2.069   0.136  18.074  2.0195  0.2348  0.2139
  487TIP3   OH225655   6.999   3.083  18.905 -0.1466 -0.5230 -0.1215
  487TIP3    H125656   6.953   3.165  18.926  3.6537  1.6554  0.5536
  487TIP3    H225657   6.994   3.032  18.986  0.8002  0.8528  0.8553
  488TIP3   OH225658   2.348   7.300  19.686 -0.2266 -0.5805  0.5762
  488TIP3    H125659   2.437   7.299  19.650 -0.8988 -0.4022 -1.2002
  488TIP3    H225660   2.352   7.365  19.756  0.6261  0.7872 -0.6735
  489TIP3   OH225661   2.469   1.843  19.025  0.4633 -0.4222  0.4781
  489TIP3    H125662   2.445   1.915  18.966 -1.3825 -0.8090  0.6895
  489TIP3    H225663   2.495   1.772  18.966  0.4484 -0.1916  0.1907
  490TIP3   OH225664   7.440   3.137  19.743 -0.1010  0.8740 -0.1198
  490TIP3    H125665   7.532   3.111  19.753 -0.1906  0.4471 -0.3522
  490TIP3    H225666   7.391   3.057  19.763 -0.4749  1.3894  1.0841
  491TIP3   OH225667   2.545   4.658  19.269 -0.3120  0.4703  0.0384
  491TIP3    H125668   2.480   4.612  19.217 -1.4533  0.5979  1.2998
  491TIP3    H225669   2.496   4.695  19.342  0.6964  3.0217 -0.4826
  492TIP3   OH225670   7.148   0.646  19.272  0.0084  0.0951  0.0222
  492TIP3    H125671   7.188   0.654  19.358  0.4397 -0.2095 -0.1486
  492TIP3    H225672   7.216   0.676  19.211  0.5405 -1.8482 -0.3964
  493TIP3   OH225673   6.493   1.586  18.081  0.0400  0.2237 -0.0552
  493TIP3    H125674   6.497   1.544  17.996 -0.2402 -0.1494  0.1143
  493TIP3    H225675   6.490   1.514  18.144 -0.5532  0.4897  0.2338
  494TIP3   OH225676   5.646   6.077  17.413 -0.3093 -0.5113 -0.2657
  494TIP3    H125677   5.604   6.076  17.326 -1.3872  0.8478  0.1989
  494TIP3    H225678   5.705   6.152  17.409  0.1745 -0.8806 -0.0574
  495TIP3   OH225679   0.607   1.275  18.017  0.0279  0.4668  0.5071
  495TIP3    H125680   0.592   1.187  18.052 -3.0717  0.2556 -1.0170
  495TIP3    H225681   0.575   1.334  18.086 -2.0475  0.1780 -0.1295
  496TIP3   OH225682   3.505   1.025  18.195 -0.0781 -0.3538 -0.5280
  496TIP3    H125683   3.557   0.946  18.205  2.2452  1.2305  0.7923
  496TIP3    H225684   3.485   1.053  18.284 -1.3238  0.2630 -0.9737
  497TIP3   OH225685   4.723   7.407  19.819 -0.3001 -0.0346  0.1443
  497TIP3    H125686   4.674   7.325  19.817  0.0508 -0.3378  1.9963
  497TIP3    H225687   4.807   7.384  19.859  0.6318  0.8428 -1.2351
  498TIP3   OH225688   2.362   7.583  17.873 -0.2564  0.0728  0.1389
  498TIP3    H125689   2.378   7.549  17.961 -0.8297 -2.2876 -0.6023
  498TIP3    H225690   2.447   7.613  17.843 -0.3557  2.8114  2.1473
  499TIP3   OH225691   1.650   3.955  17.748  0.4291  0.1155 -0.5774
  499TIP3    H125692   1.674   3.980  17.837  3.5443 -0.3717 -1.1484
  499TIP3    H225693   1.635   3.861  17.753  0.1631  0.1633 -0.4830
  500TIP3   OH225694   4.335   1.771  18.914  0.0548  0.2958  0.7449
  500TIP3    H125695   4.302   1.861  18.909 -2.4969 -0.4585  2.1406
  500TIP3    H225696   4.371   1.763  19.003  1.4265  0.2579  0.2086
  501TIP3   OH225697   5.575   4.552  19.090  0.0708  0.5262  0.3961
  501TIP3    H125698   5.544   4.524  19.004  1.1573  1.9908 -0.5134
  501TIP3    H225699   5.626   4.477  19.122 -1.4762 -0.5695  0.4260
  502TIP3   OH225700   6.120   5.058  17.470  0.5100  0.0494 -0.2713
  502TIP3    H125701   6.049   5.008  17.511  0.6285  1.1774  1.4118
  502TIP3    H225702   6.193   4.995  17.466 -0.3435 -0.9128 -1.3887
  503TIP3   OH225703   0.747   0.761  17.352 -0.2884 -0.4702  0.0949
  503TIP3    H125704   0.766   0.804  17.435 -1.3098 -0.4520  0.3254
  503TIP3    H225705   0.765   0.668  17.368  0.4938 -0.3382  0.0288
  504TIP3   OH225706   2.455   1.323  19.116  0.3421  0.2029  0.0309
  504TIP3    H125707   2.549   1.320  19.104  0.7365  0.6918  2.5318
  504TIP3    H225708   2.428   1.232  19.122  0.9148  0.0840  0.9277
  505TIP3   OH225709   5.600   6.394  18.764  0.0613  0.6217  0.2476
  505TIP3    H125710   5.521   6.401  18.818 -0.9321  1.9604 -1.3016
  505TIP3    H225711   5.568   6.362  18.679  1.6389 -1.8083  0.4573
  506TIP3   OH225712   6.858   7.124  18.123 -0.0550 -0.1663  0.2529
  506TIP3    H125713   6.902   7.204  18.095 -2.2782  0.6818 -0.9968
  506TIP3    H225714   6.808   7.096  18.047  2.1069 -3.9155 -0.0556
  507TIP3   OH225715   3.775   0.127  18.624  0.1938 -0.3510 -0.4802
  507TIP3    H125716   3.682   0.150  18.626  0.3295  0.6933 -2.8055
  507TIP3    H225717   3.784   0.058  18.689 -1.7952  0.9027  1.2558
  508TIP3   OH225718   5.615   6.875  19.365 -0.9185 -0.5303  0.4064
  508TIP3    H125719   5.570   6.790  19.357 -0.9820 -0.4717  0.1553
  508TIP3    H225720   5.624   6.907  19.275  1.9617 -1.7331  0.1620
  509TIP3   OH225721   3.261   1.647  17.555 -0.2095  0.3286 -0.5554
  509TIP3    H125722   3.173   1.654  17.518 -0.2855  1.1559 -0.2405
  509TIP3    H225723   3.304   1.579  17.503 -0.7826  0.4697 -1.2240
  510TIP3   OH225724   2.224   1.792  18.368  0.0789  0.0672  0.7776
  510TIP3    H125725   2.270   1.721  18.323 -0.1517  1.2855 -1.4952
  510TIP3    H225726   2.152   1.748  18.413 -0.1044 -1.1561 -0.6171
  511TIP3   OH225727   0.737   2.149  18.213 -0.0473  0.5013  0.0121
  511TIP3    H125728   0.681   2.198  18.154 -0.7718  0.2437  0.4630
  511TIP3    H225729   0.687   2.069  18.232 -0.0557  0.7942  1.3331
  512TIP3   OH225730   0.341   4.948  17.790 -0.1252 -0.2543 -0.1104
  512TIP3    H125731   0.267   5.006  17.772 -0.9852 -1.1985  0.2641
  512TIP3    H225732   0.408   4.974  17.727  0.0651  2.0614  0.9414
  513TIP3   OH225733   2.600   6.750  18.460 -0.4376 -0.1493  0.3773
  513TIP3    H125734   2.638   6.837  18.448 -1.1842  0.0947 -0.3646
  513TIP3    H225735   2.671   6.697  18.496  0.6836  0.2410 -1.1313
  514TIP3   OH225736   7.025   3.769  19.283 -0.4040  0.3302  0.4142
  514TIP3    H125737   7.077   3.698  19.319 -0.3765  0.7980  1.3201
  514TIP3    H225738   6.947   3.773  19.339 -0.7765  0.5109 -0.1049
  515TIP3   OH225739   0.428   1.658  18.196 -0.1942 -0.3904 -0.0742
  515TIP3    H125740   0.450   1.569  18.225 -1.5432 -0.7876 -0.2075
  515TIP3    H225741   0.355   1.684  18.252 -0.2771  0.3597 -0.5222
  516TIP3   OH225742   5.224   2.397  18.966  0.4544  0.0531  0.4586
  516TIP3    H125743   5.137   2.430  18.942 -1.0502 -1.5756  3.1482
  516TIP3    H225744   5.207   2.334  19.035  3.7652 -1.0898  0.3899
  517TIP3   OH225745   1.020   5.142  18.356  0.0262  0.7056 -0.1222
  517TIP3    H125746   1.101   5.091  18.367  1.1609  2.3138 -0.6258
  517TIP3    H225747   1.042   5.208  18.290 -1.8676  0.8945 -0.6104
  518TIP3   OH225748   7.485   2.109  18.806 -0.2869  0.0608 -0.4444
  518TIP3    H125749   7.451   2.196  18.783  0.6980  0.7639  0.6724
  518TIP3    H225750   7.444   2.089  18.890 -0.3038 -0.4575 -0.5708
  519TIP3   OH225751   0.866   0.132  19.056 -0.0000 -0.8845  0.0780
  519TIP3    H125752   0.803   0.201  19.077 -0.5656 -0.4581 -2.6204
  519TIP3    H225753   0.813   0.057  19.029  0.6380 -1.7328  1.0979
  520TIP3   OH225754   7.379   3.527  18.468 -0.5607 -0.1969 -0.2607
  520TIP3    H125755   7.288   3.558  18.473 -0.2619  1.0489 -1.7184
  520TIP3    H225756   7.372   3.432  18.465 -1.9166 -0.1004 -1.4772
  521TIP3   OH225757   1.239   5.740  17.121  0.0060 -0.1881 -0.3016
  521TIP3    H125758   1.239   5.659  17.172 -0.4108 -0.6676 -1.0343
  521TIP3    H225759   1.223   5.711  17.031  2.8703  0.4171 -1.0837
  522TIP3   OH225760   7.031   5.093  17.785 -1.1049  0.4361 -0.1469
  522TIP3    H125761   7.016   5.115  17.693 -1.5788  1.7017  0.1959
  522TIP3    H225762   6.946   5.109  17.827 -0.5083  1.3818  0.7544
  523TIP3   OH225763   5.289   3.966  17.388  0.5897 -0.2361 -0.0995
  523TIP3    H125764   5.325   3.909  17.320 -1.9734 -0.8883 -1.0420
  523TIP3    H225765   5.236   4.030  17.340  0.1770  0.4224  1.1846
  524TIP3   OH225766   5.249   3.738  18.919 -0.6021 -0.4408  0.0735
  524TIP3    H125767   5.170   3.782  18.948 -1.3361 -1.6263 -0.0604
  524TIP3    H225768   5.224   3.692  18.840 -0.0751 -1.6945  0.6045
  525TIP3   OH225769   6.946   3.544  17.165  0.1827  0.2380 -0.2990
  525TIP3    H125770   7.024   3.599  17.161  0.0839  0.4102  0.0970
  525TIP3    H225771   6.888   3.580  17.098  0.3957  0.1826 -0.5134
  526TIP3   OH225772   4.253   6.890  18.175 -0.7683  0.3258  0.4547
  526TIP3    H125773   4.210   6.809  18.146 -0.1354  0.0048  0.3835
  526TIP3    H225774   4.300   6.865  18.255  0.0572  0.4182  0.0178
  527TIP3   OH225775   6.849   2.693  18.090  0.7234  0.0894  0.0752
  527TIP3    H125776   6.939   2.673  18.119  0.5139  0.4641  1.0146
  527TIP3    H225777   6.814   2.608  18.062  0.7597 -0.4036  1.4557
  528TIP3   OH225778   0.610   0.818  18.729 -0.3246  0.3330 -0.0902
  528TIP3    H125779   0.563   0.818  18.812 -1.6906 -0.9359 -0.8172
  528TIP3    H225780   0.701   0.800  18.752 -0.4180  1.3862  1.2231
  529TIP3   OH225781   3.955   4.616  18.733 -0.5563  0.1642  0.1809
  529TIP3    H125782   3.877   4.561  18.744 -0.4405  0.2825  1.7803
  529TIP3    H225783   3.972   4.652  18.820  0.1965  1.6466 -0.5379
  530TIP3   OH225784   3.000   4.931  17.922  0.0259  0.0205  0.5865
  530TIP3    H125785   3.072   4.992  17.932  0.2862 -0.3802  1.1846
  530TIP3    H225786   3.033   4.864  17.861  0.0646 -0.0209  0.6529
  531TIP3   OH225787   5.077   3.403  18.838  0.1914  0.0487 -0.0087
  531TIP3    H125788   5.096   3.489  18.799  0.1336  0.8002  1.5710
  531TIP3    H225789   5.022   3.359  18.772 -1.1499  1.8535 -0.1858
  532TIP3   OH225790   3.206   5.842  18.629 -0.0888 -0.2798 -0.5901
  532TIP3    H125791   3.182   5.799  18.548 -0.0592 -0.2221 -0.6291
  532TIP3    H225792   3.146   5.806  18.695  0.5227 -1.0432 -0.4415
  533TIP3   OH225793   3.667   4.494  17.664 -0.9339 -0.2274 -0.1503
  533TIP3    H125794   3.698   4.576  17.627  3.2059 -1.2830  0.5176
  533TIP3    H225795   3.668   4.433  17.590 -1.5151 -0.2835 -0.1173
  534TIP3   OH225796   6.485   2.133  18.507  0.0502  0.2280 -0.0433
  534TIP3    H125797   6.490   2.217  18.461 -0.8635 -0.1460 -0.8587
  534TIP3    H225798   6.499   2.068  18.438 -1.2375 -0.3462  0.2147
  535TIP3   OH225799   6.949   2.298  18.905  0.4251 -0.0918  0.2431
  535TIP3    H125800   6.923   2.376  18.854  0.7997  0.4029  0.7998
  535TIP3    H225801   7.023   2.328  18.957  0.2988 -0.7083  0.7844
  536TIP3   OH225802   2.686   7.483  19.285 -0.3997  0.1519 -0.1385
  536TIP3    H125803   2.709   7.562  19.335 -2.3141  0.7086 -0.0504
  536TIP3    H225804   2.641   7.517  19.208 -2.1019 -0.8577  0.3658
  537TIP3   OH225805   1.205   0.905  18.993  0.1528 -0.0691 -0.1743
  537TIP3    H125806   1.190   0.987  19.041 -0.6246 -0.8402  0.9663
  537TIP3    H225807   1.219   0.932  18.903  1.8842  1.4680  0.4844
  538TIP3   OH225808   4.569   2.997  18.950  0.2559 -0.3846  0.6275
  538TIP3    H125809   4.598   3.064  19.011 -2.3876  0.6157  0.9380
  538TIP3    H225810   4.583   2.915  18.996 -0.4885  0.2735  2.0901
  539TIP3   OH225811   6.715   2.941  19.157 -0.4901  0.1706 -0.4213
  539TIP3    H125812   6.670   2.971  19.077 -1.5254 -2.3370 -0.8830
  539TIP3    H225813   6.776   2.874  19.126  0.2166  0.2613  0.7459
  540TIP3   OH225814   6.010   5.710  17.575  0.0458 -0.4443  0.5451
  540TIP3    H125815   6.040   5.659  17.501  0.4803 -0.4896  0.7488
  540TIP3    H225816   5.920   5.735  17.553  0.3579  0.0139 -0.2380
  541TIP3   OH225817   1.387   5.957  19.194 -0.0752  0.5677 -0.5321
  541TIP3    H125818   1.421   5.927  19.278  1.0384  0.0788 -1.1376
  541TIP3    H225819   1.412   6.050  19.190  1.6446  0.1150 -1.1532
  542TIP3   OH225820   3.240   6.318  17.243 -0.1424  0.1313  0.3274
  542TIP3    H125821   3.210   6.267  17.318  0.8380  0.7445  1.1671
  542TIP3    H225822   3.180   6.393  17.239 -0.4717 -0.1383  0.2227
  543TIP3   OH225823   4.938   4.028  16.951 -0.6457 -0.3663  0.6630
  543TIP3    H125824   4.916   4.121  16.950 -0.1314 -0.2186 -2.0592
  543TIP3    H225825   5.032   4.026  16.969 -0.6058 -0.3616  0.4476
  544TIP3   OH225826   4.109   0.202  18.568  0.2605  0.3241  0.3032
  544TIP3    H125827   4.179   0.138  18.571 -0.3370 -0.3822 -0.4325
  544TIP3    H225828   4.092   0.224  18.660  0.3231 -0.7453  0.5772
  545TIP3   OH225829   0.498   1.543  19.044  0.0698  0.2615  0.4055
  545TIP3    H125830   0.426   1.517  18.986 -0.2500 -0.1328  0.9703
  545TIP3    H225831   0.473   1.509  19.130  1.6463 -1.2031  0.3362
  546TIP3   OH225832   0.438   2.912  17.903 -0.5810  0.0656 -0.4599
  546TIP3    H125833   0.439   3.007  17.915 -0.5553  0.0535 -0.3643
  546TIP3    H225834   0.355   2.894  17.858 -0.5924  0.1314 -0.4653
  547TIP3   OH225835   5.252   4.253  18.911  0.2258 -0.3434  0.3621
  547TIP3    H125836   5.275   4.280  19.000 -0.2646 -1.0130  0.7001
  547TIP3    H225837   5.252   4.335  18.860  2.7400 -0.2186  0.4499
  548TIP3   OH225838   3.912   4.898  18.400  0.4744  0.6484 -0.2704
  548TIP3    H125839   3.845   4.864  18.341 -0.4533  0.3291  0.9177
  548TIP3    H225840   3.976   4.940  18.343 -1.0688  1.5393 -1.4117
  549TIP3   OH225841   4.534   2.831  17.675 -0.1232  0.2870 -0.1593
  549TIP3    H125842   4.511   2.868  17.761  0.2380 -0.0877  0.1031
  549TIP3    H225843   4.466   2.766  17.658 -0.0331  0.1551 -0.0200
  550TIP3   OH225844   0.616   2.358  17.954  0.2781 -0.0223 -0.0827
  550TIP3    H125845   0.554   2.420  17.994  0.2437 -0.8890  1.2690
  550TIP3    H225846   0.561   2.301  17.900  0.6037  2.8274 -3.8148
  551TIP3   OH225847   6.198   1.035  19.937  0.3546 -0.0939 -0.7724
  551TIP3    H125848   6.160   1.001  20.018 -1.1734  0.9758 -1.0061
  551TIP3    H225849   6.271   1.091  19.967 -0.8440  1.1389 -0.0440
  552TIP3   OH225850   7.171   3.696  17.079 -0.0208  0.2212 -0.0952
  552TIP3    H125851   7.156   3.766  17.015 -0.5000  0.6418  0.4622
  552TIP3    H225852   7.263   3.705  17.102  0.3387 -0.3739 -1.2204
  553TIP3   OH225853   2.362   4.335  19.623 -0.2235  0.4206  0.3334
  553TIP3    H125854   2.414   4.331  19.542 -2.5842  0.8679 -1.3323
  553TIP3    H225855   2.377   4.423  19.657  1.1327  0.0831  0.6804
  554TIP3   OH225856   4.806   5.170  17.290  0.1161 -0.1018  0.5570
  554TIP3    H125857   4.715   5.194  17.271  0.3828  0.3943 -0.1286
  554TIP3    H225858   4.814   5.081  17.256 -0.1788 -0.2290  0.8177
  555TIP3   OH225859   5.485   1.493  17.049  0.2490  0.2506  0.3723
  555TIP3    H125860   5.573   1.480  17.012  1.2068  2.4407  1.6266
  555TIP3    H225861   5.443   1.555  16.989  0.4266  0.9427  0.9474
  556TIP3   OH225862   3.340   1.064  18.854  0.4248  0.0408  0.0298
  556TIP3    H125863   3.390   1.042  18.932  1.4953  0.5553 -0.4948
  556TIP3    H225864   3.345   0.985  18.799 -0.9640 -0.5995  0.7709
  557TIP3   OH225865   4.622   7.186  19.523  0.3806  0.3243 -0.0960
  557TIP3    H125866   4.689   7.255  19.522  0.0540  0.6442  0.0127
  557TIP3    H225867   4.587   7.185  19.434 -0.2650  0.9441  0.1385
  558TIP3   OH225868   4.298   6.599  17.886 -0.1758 -0.0735 -0.3352
  558TIP3    H125869   4.251   6.633  17.962  0.2584 -0.9970  0.3611
  558TIP3    H225870   4.276   6.506  17.884 -0.0462 -0.0942 -1.2490
  559TIP3   OH225871   0.048   7.641  19.621  0.1871 -0.1773 -0.0955
  559TIP3    H125872  -0.043   7.623  19.598  0.2982 -1.2682  0.2714
  559TIP3    H225873   0.043   7.710  19.687 -0.1622  2.6338 -2.8166
  560TIP3   OH225874   1.184   2.316  18.375  0.0051 -0.5679  0.1058
  560TIP3    H125875   1.232   2.279  18.301  0.9659 -0.0474  0.4549
  560TIP3    H225876   1.107   2.357  18.336 -1.1703 -2.9437 -0.3069
  561TIP3   OH225877   1.021   6.285  18.544  0.3507 -0.3275  1.2706
  561TIP3    H125878   1.097   6.342  18.548  1.0884 -0.9108 -1.8006
  561TIP3    H225879   1.057   6.198  18.523 -1.1147 -0.5698 -0.4709
  562TIP3   OH225880   3.782   7.669  18.355  0.3774 -0.0829  0.2475
  562TIP3    H125881   3.867   7.677  18.312  0.9410 -0.2937  1.2709
  562TIP3    H225882   3.800   7.615  18.432 -0.7630 -0.4205  0.2944
  563TIP3   OH225883   1.134   6.775  19.526 -0.4462  0.2623  0.3197
  563TIP3    H125884   1.170   6.863  19.535  0.6591 -0.1240 -0.1292
  563TIP3    H225885   1.142   6.736  19.613  1.4221 -0.2353 -0.0223
  564TIP3   OH225886   2.430   5.974  17.372  0.1372  0.1846  0.5698
  564TIP3    H125887   2.442   5.915  17.298 -0.4163  0.1350  0.5146
  564TIP3    H225888   2.514   6.017  17.382  0.3276 -0.0811  0.1480
  565TIP3   OH225889   4.648   1.245  17.482  0.0464 -0.2679 -0.0495
  565TIP3    H125890   4.663   1.164  17.433 -1.0429 -0.6863  0.2930
  565TIP3    H225891   4.703   1.236  17.560  3.1724  1.1377 -1.8433
  566TIP3   OH225892   6.311   0.893  19.533 -0.0810 -0.2076  0.6193
  566TIP3    H125893   6.235   0.944  19.505  0.4685  0.7663  0.8514
  566TIP3    H225894   6.326   0.830  19.463 -2.1269 -1.5716  1.3149
  567TIP3   OH225895   2.878   0.377  18.594 -0.7756  0.1660 -0.2150
  567TIP3    H125896   2.894   0.387  18.687 -1.2528  0.1308 -0.1261
  567TIP3    H225897   2.963   0.352  18.557 -0.5730  0.2484  0.1984
  568TIP3   OH225898   4.702   6.394  19.760  1.0531 -0.1401 -0.5129
  568TIP3    H125899   4.670   6.334  19.692 -0.8329  1.0300 -0.7402
  568TIP3    H225900   4.733   6.337  19.830 -2.3975 -1.5111  0.0848
  569TIP3   OH225901   4.761   0.854  19.464  0.3493  0.0330  0.3350
  569TIP3    H125902   4.673   0.887  19.444  0.2963  0.1766  0.8014
  569TIP3    H225903   4.760   0.838  19.558  1.3737  1.7391  0.6761
  570TIP3   OH225904   0.008   1.639  19.254 -0.1240  0.2446  0.0866
  570TIP3    H125905   0.030   1.552  19.287 -2.4441  0.0536  1.3457
  570TIP3    H225906  -0.003   1.693  19.332  0.5827  1.5110 -0.6573
  571TIP3   OH225907   5.900   4.592  19.206  0.2310 -0.7834  0.4519
  571TIP3    H125908   5.867   4.508  19.237 -0.9040 -0.3034  0.6105
  571TIP3    H225909   5.822   4.644  19.191  0.9051  0.1443  0.0535
  572TIP3   OH225910   6.965   1.720  17.321  0.0392 -0.0192 -0.1767
  572TIP3    H125911   7.053   1.684  17.330  0.2997  0.6486  0.0529
  572TIP3    H225912   6.907   1.648  17.341  0.5496 -0.2421  0.5306
  573TIP3   OH225913   0.209   2.568  18.519  0.1052  0.3094  0.1173
  573TIP3    H125914   0.161   2.489  18.495  1.5706 -0.9358  1.0933
  573TIP3    H225915   0.208   2.568  18.615 -0.0630  1.6067  0.1306
  574TIP3   OH225916   0.171   0.390  17.730 -0.4027 -0.2294 -0.5648
  574TIP3    H125917   0.080   0.384  17.760  0.4049 -2.7306  1.7571
  574TIP3    H225918   0.220   0.416  17.808  0.9133  1.3911 -1.8557
  575TIP3   OH225919   1.802   0.234  17.473  0.2070 -0.0054 -0.1577
  575TIP3    H125920   1.708   0.220  17.486 -0.0560 -0.6317 -2.3218
  575TIP3    H225921   1.820   0.194  17.388  2.1073  1.5566 -0.5500
  576TIP3   OH225922   4.608   3.297  19.943  0.0574  0.2587 -0.5795
  576TIP3    H125923   4.624   3.353  19.866 -0.9038 -1.4768 -2.1355
  576TIP3    H225924   4.514   3.301  19.956 -0.1712 -1.6182 -1.3015
  577TIP3   OH225925   5.767   2.958  18.848 -0.0537  0.1135  0.4897
  577TIP3    H125926   5.825   2.882  18.840  1.0382  0.8758  0.8726
  577TIP3    H225927   5.814   3.017  18.907 -1.0006  0.9809  0.3918
  578TIP3   OH225928   5.977   6.992  18.146 -0.2542 -0.0197  0.3284
  578TIP3    H125929   5.901   6.946  18.184  0.0715 -1.4423 -0.6577
  578TIP3    H225930   6.052   6.943  18.178  0.1909  0.6042  0.2529
  579TIP3   OH225931   5.731   3.800  18.885  0.2708 -0.3376  0.0916
  579TIP3    H125932   5.659   3.802  18.823  1.3552 -1.1408 -1.2466
  579TIP3    H225933   5.757   3.708  18.889  0.5519 -0.2285  1.3658
  580TIP3   OH225934   6.452   5.016  17.652  0.9390 -0.4573 -0.1058
  580TIP3    H125935   6.471   5.061  17.569  0.0392 -0.1016 -0.1286
  580TIP3    H225936   6.386   4.951  17.629  0.0326  0.2423  0.4947
  581TIP3   OH225937   1.915   1.546  19.587 -0.2737  0.2924 -0.3968
  581TIP3    H125938   2.000   1.573  19.622 -0.4468 -2.3891  2.4640
  581TIP3    H225939   1.852   1.576  19.652 -1.1031 -1.0288 -0.5666
  582TIP3   OH225940   5.471   2.268  18.356  0.1114  0.3682  0.3812
  582TIP3    H125941   5.445   2.353  18.320  0.7384  0.2684 -0.3322
  582TIP3    H225942   5.522   2.290  18.435  1.8229  0.7485 -0.7833
  583TIP3   OH225943   2.235   7.257  19.345 -0.6432 -0.3928  0.0043
  583TIP3    H125944   2.204   7.167  19.346  0.5406 -0.8573 -1.0425
  583TIP3    H225945   2.210   7.290  19.259 -1.2590  0.3542  0.4650
  584TIP3   OH225946   0.350   4.093  17.830  0.2452 -0.0317 -0.3347
  584TIP3    H125947   0.335   4.166  17.890  0.3968 -0.3357  0.0821
  584TIP3    H225948   0.429   4.050  17.864  0.0268 -0.5223 -0.4413
  585TIP3   OH225949   5.787   5.876  19.750 -0.0082  0.4861  0.3531
  585TIP3    H125950   5.703   5.919  19.769  0.5350  1.0746  1.5513
  585TIP3    H225951   5.853   5.944  19.767  0.8132 -0.4836  1.2122
  586TIP3   OH225952   3.413   2.412  17.955 -0.0439 -0.2957 -0.0167
  586TIP3    H125953   3.505   2.435  17.936  0.1453 -1.6854 -0.9201
  586TIP3    H225954   3.374   2.397  17.869 -1.6712  2.0922  0.2143
  587TIP3   OH225955   7.587   5.198  19.026 -0.0973  0.7122  0.6346
  587TIP3    H125956   7.655   5.221  18.963 -0.4978 -1.2371 -0.6098
  587TIP3    H225957   7.547   5.282  19.050  0.1395  1.5634 -1.6667
  588TIP3   OH225958   4.445   4.170  19.543  0.3343  0.4023  0.1509
  588TIP3    H125959   4.440   4.264  19.557  1.2057  0.5692 -0.5999
  588TIP3    H225960   4.357   4.138  19.564 -0.5249  1.6258 -1.3940
  589TIP3   OH225961   3.112   4.100  18.500 -0.0862  0.1535 -0.0649
  589TIP3    H125962   3.193   4.067  18.461  1.6774  0.2404  3.1583
  589TIP3    H225963   3.060   4.022  18.517  1.4783 -0.5225  2.0926
  590TIP3   OH225964   6.698   4.189  18.816 -0.3006  0.1603 -0.0333
  590TIP3    H125965   6.658   4.161  18.734  0.4131 -0.1799 -0.2737
  590TIP3    H225966   6.634   4.166  18.883 -1.1012  0.8695 -0.5263
  591TIP3   OH225967   4.295   1.842  18.509  0.3177 -0.3414  0.3975
  591TIP3    H125968   4.332   1.924  18.543  0.2595 -0.6544  1.2291
  591TIP3    H225969   4.322   1.841  18.417  0.8128  0.3330  0.5215
  592TIP3   OH225970   3.996   4.921  17.954 -0.1101  0.1452 -0.0199
  592TIP3    H125971   3.954   4.836  17.955  1.4154 -0.6377  0.8431
  592TIP3    H225972   4.040   4.925  17.869  0.4395 -0.2701  0.2373
  593TIP3   OH225973   6.107   5.328  19.600  0.3942  0.0938  0.2735
  593TIP3    H125974   6.056   5.405  19.575 -0.3552  0.1418  1.8283
  593TIP3    H225975   6.193   5.362  19.623  0.2605  0.3832  0.3531
  594TIP3   OH225976   4.481   5.364  19.816  0.4734 -0.4879  0.9334
  594TIP3    H125977   4.393   5.363  19.852  0.1847 -1.1635  0.2476
  594TIP3    H225978   4.468   5.361  19.721  1.1889  1.8600  0.6988
  595TIP3   OH225979   6.251   6.929  17.725  0.1571  0.2489 -0.2551
  595TIP3    H125980   6.235   7.024  17.722  0.9955  0.4118  0.2597
  595TIP3    H225981   6.178   6.895  17.777  0.3522  0.7349  0.3516
  596TIP3   OH225982   7.479   4.970  19.510  0.2204 -0.0977 -0.1884
  596TIP3    H125983   7.470   5.034  19.439 -0.3333  1.4618  1.2394
  596TIP3    H225984   7.414   4.903  19.489  1.3631 -0.6915 -2.1465
  597TIP3   OH225985   2.125   2.754  17.767  0.7072 -0.1255  0.4422
  597TIP3    H125986   2.189   2.689  17.795  0.7498 -0.7912 -1.1255
  597TIP3    H225987   2.153   2.780  17.679 -1.6534 -1.1465 -0.7178
  598TIP3   OH225988   7.387   3.300  18.198  0.6526 -0.3116  0.7729
  598TIP3    H125989   7.416   3.391  18.198 -1.6137  0.4901  1.6107
  598TIP3    H225990   7.423   3.263  18.278  0.1337  0.3978  1.3454
  599TIP3   OH225991   1.881   6.679  19.404  0.1583  0.4392 -0.0381
  599TIP3    H125992   1.890   6.649  19.494 -1.2534  1.0323  0.3285
  599TIP3    H225993   1.835   6.608  19.359 -1.6065  1.2484  0.4064
  600TIP3   OH225994   3.339   3.454  18.693  0.0455 -0.2330  0.1208
  600TIP3    H125995   3.357   3.507  18.615  1.7812 -0.4379  0.3405
  600TIP3    H225996   3.363   3.365  18.667  2.1438 -0.0740  1.3105
  601TIP3   OH225997   3.483   0.182  18.657  0.3576  0.4359 -0.0299
  601TIP3    H125998   3.437   0.098  18.650  1.0419 -0.1721  2.0956
  601TIP3    H225999   3.460   0.229  18.576 -0.0276 -1.7778 -1.2763
  602TIP3   OH226000   0.048   4.589  18.539 -0.4373 -0.6178  0.1377
  602TIP3    H126001   0.053   4.605  18.444 -2.6932 -0.4685 -0.0114
  602TIP3    H226002   0.066   4.674  18.579  1.3606 -0.8526 -0.0739
  603TIP3   OH226003   7.190   7.472  18.783 -0.1194  0.4041  0.7236
  603TIP3    H126004   7.106   7.456  18.742 -1.0187  1.5175  2.0325
  603TIP3    H226005   7.204   7.397  18.841 -0.7513  0.7352  1.3152
  604TIP3   OH226006   0.753   3.554  19.009  0.0888  0.1519 -0.2178
  604TIP3    H126007   0.830   3.592  19.050  0.2328 -1.9256  1.6176
  604TIP3    H226008   0.747   3.597  18.924  0.3015  4.0428  1.5389
  605TIP3   OH226009   6.217   4.482  18.488 -0.3718 -0.1580  0.4378
  605TIP3    H126010   6.229   4.563  18.437  1.3930  0.5846  1.9064
  605TIP3    H226011   6.179   4.512  18.571  2.4687 -0.4201  1.9422
  606TIP3   OH226012   4.733   7.017  17.794  0.6086 -0.5994 -0.2012
  606TIP3    H126013   4.729   6.967  17.876 -0.3526 -0.8861 -0.4092
  606TIP3    H226014   4.708   6.954  17.726 -1.4207  0.3271 -0.3878
  607TIP3   OH226015   3.213   2.184  17.939  0.6690 -0.4537 -0.0180
  607TIP3    H126016   3.206   2.193  17.844 -0.2219 -0.7478  0.0120
  607TIP3    H226017   3.181   2.267  17.974 -0.7089 -0.9806  0.0557
  608TIP3   OH226018   2.528   0.720  17.610 -0.3310  0.1979 -0.0586
  608TIP3    H126019   2.597   0.654  17.610  1.3766  1.9070 -0.6102
  608TIP3    H226020   2.448   0.671  17.629  0.8828 -1.9888 -0.3099
  609TIP3   OH226021   1.329   7.677  17.618 -0.0556  0.3964 -0.0516
  609TIP3    H126022   1.342   7.598  17.671 -2.4553 -1.0175 -1.3943
  609TIP3    H226023   1.252   7.719  17.657 -0.6762  0.3686 -1.2173
  610TIP3   OH226024   3.112   4.095  18.778 -0.1873  0.3961 -0.5636
  610TIP3    H126025   3.092   4.178  18.823  1.9024  0.5447  0.1715
  610TIP3    H226026   3.114   4.119  18.685  0.4472  1.1915 -0.3579
  611TIP3   OH226027   4.098   3.231  19.259 -0.2357  0.0700 -0.2355
  611TIP3    H126028   4.095   3.265  19.349 -2.5532  0.6313 -0.4524
  611TIP3    H226029   4.092   3.309  19.204 -1.7060 -0.4037 -0.7953
  612TIP3   OH226030   0.052   1.848  18.023 -0.1173  0.1113  0.3615
  612TIP3    H126031   0.018   1.856  18.113 -0.5223 -1.4295  0.3708
  612TIP3    H226032  -0.009   1.789  17.980 -1.4263  2.8044 -1.7532
  613TIP3   OH226033   3.176   3.593  17.703 -0.0247 -0.1857 -0.0306
  613TIP3    H126034   3.134   3.617  17.621 -1.7575 -1.3795  0.4605
  613TIP3    H226035   3.198   3.500  17.693 -1.3715 -0.6794  1.2700
  614TIP3   OH226036   2.098   6.682  17.554  0.1590  0.6069 -0.3947
  614TIP3    H126037   2.116   6.710  17.464  3.6382 -1.1576 -0.4372
  614TIP3    H226038   2.169   6.721  17.606  0.0654 -0.9555  1.0027
  615TIP3   OH226039   2.845   0.058  18.977 -0.6243  0.4476  0.0920
  615TIP3    H126040   2.895  -0.017  18.945 -1.8851 -0.3940  0.0327
  615TIP3    H226041   2.876   0.131  18.925  0.3476 -0.1045 -0.1228
  616TIP3   OH226042   0.278   3.059  19.767  0.0360 -0.3571 -0.1690
  616TIP3    H126043   0.328   3.112  19.830 -1.0526  0.1007  0.3412
  616TIP3    H226044   0.319   2.973  19.770  1.8459  0.4325 -1.0147
  617TIP3   OH226045   1.253   2.961  19.055  0.0868 -0.1116 -0.0330
  617TIP3    H126046   1.318   3.017  19.098  0.2701 -0.7099  0.4794
  617TIP3    H226047   1.217   3.016  18.985  2.2042 -0.2188 -1.3199
  618TIP3   OH226048   5.658   4.068  16.555 -0.1369 -0.3038  0.3930
  618TIP3    H126049   5.680   3.986  16.600  1.4152 -0.9889 -1.4877
  618TIP3    H226050   5.575   4.050  16.512 -0.1734 -0.6401  0.6015
  619TIP3   OH226051   5.084   3.213  19.785  0.1483  0.1070  0.0111
  619TIP3    H126052   5.034   3.262  19.850 -1.0088 -0.0835 -0.7022
  619TIP3    H226053   5.164   3.264  19.772 -1.0009  1.8059 -0.6792
  620TIP3   OH226054   1.958   3.606  18.630  0.0188  0.0025  0.3859
  620TIP3    H126055   2.016   3.530  18.629  0.5272  0.2674  3.0081
  620TIP3    H226056   1.906   3.598  18.550 -0.6972 -3.6792  1.0511
  621TIP3   OH226057   7.565   5.531  19.434  0.1084 -0.5026  0.0155
  621TIP3    H126058   7.497   5.464  19.430 -1.1782  0.7192  0.5552
  621TIP3    H226059   7.518   5.612  19.454  1.6882  0.4543  0.0414
  622TIP3   OH226060   6.411   0.415  18.556  0.3534  0.0149 -0.0987
  622TIP3    H126061   6.467   0.359  18.503 -1.0375 -1.0691 -0.4873
  622TIP3    H226062   6.375   0.479  18.494  1.5810  1.0992  0.2598
  623TIP3   OH226063   5.499   3.754  19.109  0.0042  0.2961  0.8245
  623TIP3    H126064   5.416   3.752  19.062 -0.1976  2.4035  0.9799
  623TIP3    H226065   5.566   3.754  19.041 -0.2238  1.1223  0.5853
  624TIP3   OH226066   3.320   7.424  17.736 -0.3069  0.0951  0.1472
  624TIP3    H126067   3.298   7.469  17.654  0.8357 -0.9530 -0.7709
  624TIP3    H226068   3.416   7.428  17.741 -0.3455 -0.0225  1.3488
  625TIP3   OH226069   1.058   5.469  19.515  0.2199  0.1921  0.4454
  625TIP3    H126070   1.100   5.525  19.580  1.8526  1.7003 -1.7717
  625TIP3    H226071   0.990   5.524  19.476  0.8036  0.1462 -0.6880
  626TIP3   OH226072   3.110   6.832  18.011  0.1817  0.0544 -0.3980
  626TIP3    H126073   3.067   6.839  17.926 -0.6662 -0.9945 -0.0645
  626TIP3    H226074   3.159   6.750  18.007 -0.3279 -0.2968  0.3196
  627TIP3   OH226075   6.007   3.038  17.788 -0.1030  0.2993 -0.1451
  627TIP3    H126076   6.069   2.998  17.849  0.0162 -0.0854 -0.5121
  627TIP3    H226077   5.962   3.105  17.839 -0.4055 -0.4052  0.5222
  628TIP3   OH226078   6.057   5.205  18.469 -0.2091  0.3443  0.9251
  628TIP3    H126079   6.137   5.257  18.459  1.2676 -1.5112  2.3095
  628TIP3    H226080   5.995   5.264  18.512  0.8670  1.4268  1.0524
  629TIP3   OH226081   4.794   4.135  18.928 -0.3243  0.4259  0.7223
  629TIP3    H126082   4.762   4.147  19.017 -2.4548  0.8762 -0.0465
  629TIP3    H226083   4.760   4.050  18.901 -1.1076  0.9981 -0.1812
  630TIP3   OH226084   1.204   1.812  19.167 -0.5504  0.2732  0.1818
  630TIP3    H126085   1.149   1.879  19.127  0.0180 -0.3842 -1.8400
  630TIP3    H226086   1.279   1.859  19.202 -0.1649  0.7028 -1.1992
  631TIP3   OH226087   7.357   0.013  18.792 -0.0458  0.9223 -0.5852
  631TIP3    H126088   7.437  -0.030  18.763 -1.0211 -1.5090  0.1161
  631TIP3    H226089   7.288  -0.051  18.777 -1.4193  1.7434  1.6214
  632TIP3   OH226090   3.778   7.619  19.283  0.1790  0.2926  0.9147
  632TIP3    H126091   3.809   7.541  19.330  1.3508  0.4291  0.4229
  632TIP3    H226092   3.683   7.617  19.292  0.3403  0.3305  3.3259
  633TIP3   OH226093   0.272   0.807  18.141 -0.4437 -0.0187  0.4465
  633TIP3    H126094   0.333   0.746  18.183 -1.0126  0.0887  1.4656
  633TIP3    H226095   0.315   0.832  18.059  1.2100  0.5991  1.4626
  634TIP3   OH226096   2.828   5.782  17.398  0.0090  0.6437  0.4348
  634TIP3    H126097   2.896   5.748  17.340  0.1019  1.4263  0.0710
  634TIP3    H226098   2.813   5.712  17.461  0.7719  0.2533  0.1962
  635TIP3   OH226099   5.337   7.581  18.819 -0.2326 -0.0731 -0.3302
  635TIP3    H126100   5.305   7.547  18.903 -2.3890  2.1425 -0.1729
  635TIP3    H226101   5.433   7.583  18.830 -0.4881  1.3839  2.6171
  636TIP3   OH226102   1.120   5.242  19.011 -0.2310 -0.1431 -0.0244
  636TIP3    H126103   1.084   5.158  19.037  0.2523 -0.2329  0.3590
  636TIP3    H226104   1.085   5.304  19.075 -1.0299  0.0508 -0.6256
  637TIP3   OH226105   4.453   5.671  18.390 -0.5472 -0.3777 -0.2974
  637TIP3    H126106   4.361   5.659  18.414 -0.8944 -0.7552 -1.6973
  637TIP3    H226107   4.475   5.592  18.341 -0.2711  0.7860 -2.1790
  638TIP3   OH226108   0.158   3.408  19.705  0.2580 -0.1781 -0.3960
  638TIP3    H126109   0.109   3.490  19.706 -1.0800 -0.9449  0.4959
  638TIP3    H226110   0.247   3.433  19.730 -0.3067  0.9027  0.6265
  639TIP3   OH226111   3.283   1.090  18.377 -0.1005  0.5755  0.4849
  639TIP3    H126112   3.234   1.129  18.449 -0.2170  0.3598  0.5249
  639TIP3    H226113   3.323   1.164  18.332 -0.3669  0.7434  0.5243
  640TIP3   OH226114   2.367   5.622  18.005  0.2675  0.3587  0.3848
  640TIP3    H126115   2.365   5.700  17.950 -1.0949  2.7355  3.4821
  640TIP3    H226116   2.460   5.612  18.028  0.7188 -0.1359 -1.4925
  641TIP3   OH226117   0.110   7.263  18.435  0.1713  0.0708  0.0015
  641TIP3    H126118   0.095   7.221  18.350 -0.3100 -0.4905  0.3599
  641TIP3    H226119   0.130   7.354  18.413 -1.3899  0.2945 -0.6586
  642TIP3   OH226120   3.085   7.494  18.512 -0.1990  0.0107 -0.2061
  642TIP3    H126121   3.120   7.558  18.450  0.8676 -0.8057 -0.4777
  642TIP3    H226122   3.155   7.481  18.576 -1.6501  1.6104  1.8344
  643TIP3   OH226123   3.872   6.697  18.967  0.4600  0.6839 -0.1210
  643TIP3    H126124   3.922   6.748  19.031 -0.4738 -1.0964  2.1660
  643TIP3    H226125   3.855   6.614  19.011  0.3561 -0.9380 -3.0077
  644TIP3   OH226126   5.543   3.926  19.311  0.2928 -0.5568  0.1076
  644TIP3    H126127   5.534   3.857  19.245  2.7102  0.4556 -1.3932
  644TIP3    H226128   5.462   3.920  19.362 -0.4828 -3.1364 -1.2399
  645TIP3   OH226129   1.040   1.247  17.678 -0.6453 -0.3636  0.1001
  645TIP3    H126130   1.069   1.325  17.726 -0.7881 -0.3069  0.0970
  645TIP3    H226131   0.995   1.194  17.743 -0.8491 -0.2811  0.0279
  646TIP3   OH226132   6.879   2.949  18.605 -0.1516 -0.4100 -0.7424
  646TIP3    H126133   6.828   2.984  18.678 -0.1974  0.2044 -1.0630
  646TIP3    H226134   6.839   2.988  18.528 -0.2862 -1.2794 -1.1260
  647TIP3   OH226135   1.203   2.739  19.416  0.0112 -0.0929 -0.0962
  647TIP3    H126136   1.175   2.709  19.502  0.8539  0.9721  0.5867
  647TIP3    H226137   1.299   2.741  19.421  0.0403  1.4272 -0.5165
  648TIP3   OH226138   5.453   7.107  17.994 -0.2209 -0.0426 -0.0716
  648TIP3    H126139   5.467   7.081  18.085  0.3331 -0.2258 -0.2030
  648TIP3    H226140   5.374   7.060  17.967  1.0247 -2.0239 -0.4563
  649TIP3   OH226141   0.969   6.969  17.646  0.3973 -0.0180 -0.2481
  649TIP3    H126142   0.960   6.921  17.563  1.3292  0.7758 -0.8367
  649TIP3    H226143   0.892   7.025  17.649 -0.6273 -1.3866  0.3753
  650TIP3   OH226144   7.588   4.263  19.136 -0.3730 -0.0443 -0.5177
  650TIP3    H126145   7.612   4.204  19.208  2.2135 -0.0131 -1.2547
  650TIP3    H226146   7.500   4.235  19.110 -0.4967 -1.4509  1.2270
  651TIP3   OH226147   6.546   0.610  19.878  0.6574  0.1403  0.4406
  651TIP3    H126148   6.529   0.581  19.788 -0.6785 -0.4846  0.8658
  651TIP3    H226149   6.567   0.530  19.926  1.4645  0.4841  0.6763
  652TIP3   OH226150   6.286   6.858  19.379 -0.1979  0.2099 -0.1758
  652TIP3    H126151   6.357   6.795  19.391  0.4358  1.2830  2.3468
  652TIP3    H226152   6.209   6.814  19.415  0.0029  0.4026  0.5134
  653TIP3   OH226153   3.353   3.609  19.762 -0.3375  0.3243  0.4364
  653TIP3    H126154   3.338   3.660  19.841  2.1547  0.7326  0.7138
  653TIP3    H226155   3.359   3.518  19.792 -0.2197  0.3881  0.6063
  654TIP3   OH226156   1.476   2.384  18.450  0.2940  0.8148 -0.0830
  654TIP3    H126157   1.382   2.375  18.433  0.1868 -1.2430  1.1899
  654TIP3    H226158   1.517   2.380  18.364 -0.6600 -0.7669 -0.4992
  655TIP3   OH226159   0.911   3.531  19.310 -0.1144 -0.4446  0.4142
  655TIP3    H126160   0.850   3.459  19.326  0.0248 -0.4229  1.0883
  655TIP3    H226161   0.958   3.505  19.231 -0.7879 -0.5972  0.0553
  656TIP3   OH226162   2.294   4.891  19.220 -0.1047  0.1764 -0.2452
  656TIP3    H126163   2.344   4.836  19.281  0.0782 -1.4149 -1.7350
  656TIP3    H226164   2.334   4.977  19.226  1.7739 -0.6617 -0.2009
  657TIP3   OH226165   2.638   2.448  19.368 -0.4478  0.3498 -0.1929
  657TIP3    H126166   2.571   2.511  19.393 -0.6717  1.5789 -3.4293
  657TIP3    H226167   2.592   2.364  19.365 -1.0133  0.6059  0.7177
  658TIP3   OH226168   1.952   2.558  19.668 -0.5980 -0.1012 -0.0684
  658TIP3    H126169   1.886   2.602  19.614  0.3232  1.5109  0.0449
  658TIP3    H226170   2.020   2.625  19.682 -0.0698 -0.9553  1.7865
  659TIP3   OH226171   2.824   3.767  18.943  0.0950 -0.8580  0.3229
  659TIP3    H126172   2.799   3.781  18.852 -0.1357 -0.8370  0.3896
  659TIP3    H226173   2.748   3.723  18.982 -0.1140 -0.1816  0.6951
  660TIP3   OH226174   4.611   1.170  18.675 -0.4425  0.2594  0.0936
  660TIP3    H126175   4.577   1.258  18.688  1.2174  1.0169 -0.5217
  660TIP3    H226176   4.603   1.155  18.581  2.6771  1.2624 -0.4275
  661TIP3   OH226177   0.779   7.115  19.331  0.2401 -0.4718  0.6151
  661TIP3    H126178   0.753   7.045  19.271 -0.2167  0.3850 -0.2178
  661TIP3    H226179   0.873   7.102  19.344  0.3555 -0.6428 -0.3513
  662TIP3   OH226180   0.903   5.128  17.985  0.0591 -0.5921  0.8011
  662TIP3    H126181   0.940   5.066  18.048  0.3512  0.3232  1.5564
  662TIP3    H226182   0.838   5.177  18.036  0.1550  0.0206  0.3448
  663TIP3   OH226183   4.325   2.859  18.587 -0.0947 -0.4766  0.1447
  663TIP3    H126184   4.347   2.823  18.673 -1.3235  0.2220  0.7850
  663TIP3    H226185   4.319   2.953  18.601  0.0379 -0.3216 -0.7885
  664TIP3   OH226186   6.927   4.879  16.925  0.3120 -0.0368 -0.4173
  664TIP3    H126187   6.838   4.856  16.954  0.4931 -0.7938 -0.4572
  664TIP3    H226188   6.926   4.866  16.831  0.3197  0.4789 -0.4961
  665TIP3   OH226189   0.631   4.449  17.230  0.5181 -0.0544  0.4183
  665TIP3    H126190   0.644   4.526  17.176 -0.5396  1.5474  2.2818
  665TIP3    H226191   0.561   4.400  17.186 -3.1243  3.1456  1.9650
  666TIP3   OH226192   1.528   2.092  19.977 -0.1258 -0.4230 -0.1852
  666TIP3    H126193   1.440   2.129  19.968  0.2913  0.3505 -1.2404
  666TIP3    H226194   1.514   1.997  19.968 -0.8924 -0.3384  0.0186
  667TIP3   OH226195   4.096   0.160  17.724 -0.2135  0.1177 -0.3935
  667TIP3    H126196   4.009   0.131  17.696 -0.1032 -0.4839 -0.1409
  667TIP3    H226197   4.079   0.231  17.787 -0.7517 -2.5845  2.7915
  668TIP3   OH226198   0.945   6.606  17.230  0.0946 -0.2128  0.0699
  668TIP3    H126199   0.914   6.693  17.203  0.8510  1.1284  3.0916
  668TIP3    H226200   1.040   6.616  17.236  0.5193 -2.1338 -2.0891
  669TIP3   OH226201   5.298   6.334  17.710  0.1697  0.1717  0.2933
  669TIP3    H126202   5.359   6.281  17.660  0.6452 -0.0995  1.1482
  669TIP3    H226203   5.335   6.422  17.709 -0.1147  0.2872 -0.3024
  670TIP3   OH226204   6.157   3.032  16.641  0.0303  0.3830 -0.4530
  670TIP3    H126205   6.135   3.080  16.561 -0.4361  0.2657 -0.3977
  670TIP3    H226206   6.242   3.067  16.668  0.4798  0.0142 -1.3322
  671TIP3   OH226207   0.330   3.555  17.892 -0.1532  0.0495  0.1781
  671TIP3    H126208   0.251   3.570  17.944  0.2162 -0.8602  1.0393
  671TIP3    H226209   0.320   3.466  17.859  0.2534  0.1295 -0.1622
  672TIP3   OH226210   3.386   0.392  18.472  0.4165  0.0628 -0.1479
  672TIP3    H126211   3.370   0.486  18.463  0.9722  0.3627  1.6721
  672TIP3    H226212   3.299   0.353  18.472  0.1067  0.7223  0.3895
  673TIP3   OH226213   0.505   0.471  18.807 -0.5396 -0.7670  0.0194
  673TIP3    H126214   0.593   0.451  18.839 -0.4285  1.4043  1.2137
  673TIP3    H226215   0.516   0.489  18.714  0.0751 -1.6314 -0.0773
  674TIP3   OH226216   5.430   3.187  18.049 -0.7008  0.1630 -0.4842
  674TIP3    H126217   5.507   3.135  18.073 -1.3159 -1.2213 -1.3489
  674TIP3    H226218   5.467   3.267  18.011  0.4023 -1.0745 -2.2177
  675TIP3   OH226219   6.658   1.183  19.354 -0.4571  0.7612  0.6263
  675TIP3    H126220   6.666   1.205  19.447  0.0493  0.2767  0.7039
  675TIP3    H226221   6.627   1.093  19.353  0.7836  0.3186  0.3429
  676TIP3   OH226222   6.363   5.615  18.190 -0.3395  0.7867 -0.4038
  676TIP3    H126223   6.268   5.608  18.181 -0.3151  0.9332 -0.7827
  676TIP3    H226224   6.390   5.529  18.220 -1.0794  1.8744  4.1255
  677TIP3   OH226225   6.469   3.145  19.584  0.1416 -0.3820  0.5636
  677TIP3    H126226   6.490   3.132  19.492 -1.9208 -2.3482  0.2838
  677TIP3    H226227   6.464   3.241  19.595 -0.8674 -0.1294 -1.6970
  678TIP3   OH226228   6.114   5.064  19.511 -0.0271  0.2400 -0.5510
  678TIP3    H126229   6.138   5.151  19.542 -1.2055  1.0487 -1.7948
  678TIP3    H226230   6.036   5.041  19.561 -0.2965  0.3354 -0.9250
  679TIP3   OH226231   3.521   3.878  18.475  0.1187 -0.1666  0.1180
  679TIP3    H126232   3.524   3.797  18.526 -0.3846 -0.5886 -0.4997
  679TIP3    H226233   3.604   3.880  18.428  0.3736 -0.0319  0.5756
  680TIP3   OH226234   7.583   0.046  18.439  0.0272 -0.1267  0.4139
  680TIP3    H126235   7.510  -0.017  18.439  0.1869 -0.3123  0.6380
  680TIP3    H226236   7.591   0.073  18.347  0.2850 -0.8196  0.2239
  681TIP3   OH226237   0.514   1.261  18.847 -0.2307 -0.2163  0.3767
  681TIP3    H126238   0.527   1.228  18.758 -1.8983 -0.1767  0.1005
  681TIP3    H226239   0.602   1.259  18.885  0.4862 -0.4360 -1.1872
  682TIP3   OH226240   6.114   6.892  18.513 -0.6198  0.1814  0.0444
  682TIP3    H126241   6.037   6.948  18.510 -0.7859 -0.0435  0.1294
  682TIP3    H226242   6.156   6.913  18.597  1.3523  2.8846 -1.4216
  683TIP3   OH226243   7.527   1.108  19.005  0.0807 -0.0936 -0.2622
  683TIP3    H126244   7.502   1.027  18.960 -0.6802  0.6389 -1.1774
  683TIP3    H226245   7.588   1.079  19.073  0.3538 -1.3556 -1.0142
  684TIP3   OH226246   5.257   1.749  18.049  0.3857 -0.2470 -0.2212
  684TIP3    H126247   5.202   1.725  18.123  0.4916 -1.9884 -0.6590
  684TIP3    H226248   5.323   1.808  18.086 -0.1664 -0.2810  0.8577
  685TIP3   OH226249   1.182   5.995  18.059 -0.3694  0.0696 -0.2826
  685TIP3    H126250   1.153   6.062  17.998 -0.5093  1.0691  0.8551
  685TIP3    H226251   1.257   5.954  18.016 -1.6554 -0.5996 -1.9856
  686TIP3   OH226252   4.831   7.651  18.832 -0.1188 -0.3607 -0.2375
  686TIP3    H126253   4.836   7.741  18.800  0.6116 -0.7276 -1.1831
  686TIP3    H226254   4.859   7.657  18.924  0.2335  0.3269 -0.3832
  687TIP3   OH226255   2.665   6.487  18.947 -0.6552 -0.0614 -0.0607
  687TIP3    H126256   2.607   6.528  18.882 -0.9222  0.4508  0.4874
  687TIP3    H226257   2.740   6.545  18.952 -1.1034  0.4632  0.8315
  688TIP3   OH226258   7.608   2.721  18.651 -0.0515 -0.1153  0.0461
  688TIP3    H126259   7.696   2.745  18.681  0.0110  0.3729 -0.5148
  688TIP3    H226260   7.553   2.794  18.680 -0.3434 -0.5707  0.6862
  689TIP3   OH226261   2.378   5.900  18.622  0.2733 -0.7408 -0.1379
  689TIP3    H126262   2.417   5.908  18.534 -1.5296 -0.4037 -0.9481
  689TIP3    H226263   2.365   5.990  18.651  0.8882 -0.8520  0.5066
  690TIP3   OH226264   2.980   4.337  18.415 -0.0728  0.7108 -0.3139
  690TIP3    H126265   3.062   4.384  18.430 -0.6502  1.9180 -0.8181
  690TIP3    H226266   3.006   4.245  18.409  0.8184  0.5764  3.1232
  691TIP3   OH226267   0.035   6.739  17.059 -0.2229  0.0747  0.1349
  691TIP3    H126268   0.028   6.698  16.973  0.5609 -2.2912  1.1315
  691TIP3    H226269  -0.015   6.682  17.118  0.0129  1.1418  1.4279
  692TIP3   OH226270   0.014   6.516  17.906 -0.4502 -0.0742  0.3234
  692TIP3    H126271   0.002   6.548  17.995  0.8680  1.6666 -0.0733
  692TIP3    H226272   0.109   6.517  17.892 -0.3696 -3.3663 -0.0774
  693TIP3   OH226273   3.171   4.593  19.103 -0.1892 -0.0546 -0.4659
  693TIP3    H126274   3.127   4.676  19.086 -1.4037 -0.3703  0.9477
  693TIP3    H226275   3.104   4.537  19.141  0.9135 -1.2930 -0.2428
  694TIP3   OH226276   4.739   3.043  19.984 -0.6216 -0.1448  0.0725
  694TIP3    H126277   4.705   3.131  19.967 -2.7861 -0.5968  1.5962
  694TIP3    H226278   4.734   3.034  20.079 -0.0004 -1.7648 -0.0191
  695TIP3   OH226279   6.254   6.444  19.054  0.2698 -0.5885  0.3947
  695TIP3    H126280   6.284   6.531  19.081 -1.1608  0.3265 -0.8001
  695TIP3    H226281   6.186   6.421  19.117 -1.0307  0.2612 -0.6444
  696TIP3   OH226282   5.927   7.416  18.884  0.3191  0.3492 -0.6166
  696TIP3    H126283   5.915   7.506  18.915 -0.8307 -0.1125  0.3696
  696TIP3    H226284   5.999   7.381  18.937 -0.7369 -0.0012  0.6472
  697TIP3   OH226285   0.460   7.378  18.471 -0.4605  0.2266  0.0744
  697TIP3    H126286   0.503   7.350  18.552  0.8932  1.0503 -0.3040
  697TIP3    H226287   0.409   7.455  18.496  2.3946  2.4434 -0.2747
  698TIP3   OH226288   1.680   4.626  19.637  0.1412  0.1680 -0.2225
  698TIP3    H126289   1.597   4.578  19.647  0.3862  0.0987  2.1030
  698TIP3    H226290   1.747   4.557  19.640  0.3428  0.3357 -0.8308
  699TIP3   OH226291   0.452   1.061  18.393 -0.4770 -0.2073 -0.1950
  699TIP3    H126292   0.500   1.059  18.476  0.6146 -0.7279 -0.8121
  699TIP3    H226293   0.388   0.991  18.400 -0.3713 -0.2669  0.2044
  700TIP3   OH226294   0.150   3.774  19.008 -0.8432 -0.2305  0.1412
  700TIP3    H126295   0.058   3.785  19.032 -0.7865  0.1452  0.1988
  700TIP3    H226296   0.191   3.857  19.033 -0.4116 -0.5414  0.4857
  701TIP3   OH226297   6.011   3.395  18.261  0.1798 -0.0143 -0.6247
  701TIP3    H126298   5.946   3.337  18.300  0.3949 -0.8745 -1.5179
  701TIP3    H226299   5.983   3.483  18.287 -1.5342 -0.3295 -1.2395
  702TIP3   OH226300   6.267   5.967  18.192 -0.1049  0.3006  1.1165
  702TIP3    H126301   6.172   5.966  18.185 -0.1348 -1.8905  1.1596
  702TIP3    H226302   6.289   5.888  18.242  1.8358 -1.1614 -1.6810
  703TIP3   OH226303   0.366   0.425  18.444  0.1256 -0.1963 -0.3080
  703TIP3    H126304   0.383   0.519  18.436 -0.5874 -0.0166  0.2488
  703TIP3    H226305   0.448   0.384  18.414  0.9038  0.6098  0.6340
  704TIP3   OH226306   0.733   3.896  19.675  0.7471  0.2179 -0.2994
  704TIP3    H126307   0.783   3.959  19.727 -0.1817  0.7131  0.0170
  704TIP3    H226308   0.799   3.843  19.630  1.5463  2.0260 -1.3207
  705TIP3   OH226309   0.086   2.423  18.285  0.0103  0.0037 -0.4422
  705TIP3    H126310   0.029   2.360  18.240  0.9880 -1.0894 -0.1873
  705TIP3    H226311   0.164   2.428  18.230 -0.3388  1.5785 -0.8485
  706TIP3   OH226312   4.780   3.225  18.906 -0.0999 -0.1454  0.0054
  706TIP3    H126313   4.846   3.166  18.869 -0.7495 -1.3995  0.7776
  706TIP3    H226314   4.718   3.239  18.834  0.0269 -0.4598 -0.1693
  707TIP3   OH226315   1.849   5.101  17.677  0.2709 -0.3638  0.2795
  707TIP3    H126316   1.931   5.131  17.638 -0.0386 -1.6007 -1.4258
  707TIP3    H226317   1.877   5.046  17.750  0.8789  1.0612  1.1702
  708TIP3   OH226318   0.376   0.144  17.888 -0.2961 -0.1312  0.2292
  708TIP3    H126319   0.340   0.205  17.952  0.1731  0.0463  0.3269
  708TIP3    H226320   0.445   0.194  17.844 -1.2053  0.0445 -1.0362
  709TIP3   OH226321   6.874   1.164  19.659 -0.3107  0.2803 -0.0153
  709TIP3    H126322   6.790   1.149  19.704 -0.3373  1.1453  0.2612
  709TIP3    H226323   6.890   1.084  19.610  0.3699 -1.2902  2.5710
  710TIP3   OH226324   1.672   1.882  18.121  0.2749  0.4306  0.1338
  710TIP3    H126325   1.751   1.857  18.073 -1.1744 -2.5762 -0.9736
  710TIP3    H226326   1.673   1.826  18.199 -0.8415  0.1701 -0.0219
  711TIP3   OH226327   3.750   1.090  18.792  0.1180 -0.1479  0.4163
  711TIP3    H126328   3.678   1.112  18.852  0.1589  2.4544 -0.3593
  711TIP3    H226329   3.748   1.160  18.726  3.0391 -0.2493  0.0998
  712TIP3   OH226330   2.774   6.630  18.625 -0.0567  0.1499  0.1405
  712TIP3    H126331   2.760   6.565  18.694 -0.7327 -0.4825 -0.5678
  712TIP3    H226332   2.823   6.700  18.667  3.1031 -1.9560  0.3198
  713TIP3   OH226333   3.915   7.403  19.094  0.1636 -0.1430 -0.1737
  713TIP3    H126334   3.892   7.463  19.165 -0.0706  1.4508 -1.5470
  713TIP3    H226335   3.860   7.326  19.110  0.2798  0.0804  1.4859
  714TIP3   OH226336   4.507   1.652  19.142 -0.0234  0.1702  0.2103
  714TIP3    H126337   4.470   1.582  19.195 -1.1851 -0.5548 -1.4828
  714TIP3    H226338   4.596   1.623  19.123  0.5170  0.5757  1.9151
  715TIP3   OH226339   4.760   0.787  19.721 -0.1416  0.1115  0.1147
  715TIP3    H126340   4.710   0.858  19.762  1.2287 -0.6964  3.4785
  715TIP3    H226341   4.733   0.708  19.769  0.8792 -1.1059 -1.2347
  716TIP3   OH226342   3.119   6.480  19.069  0.4892  0.0018 -0.2096
  716TIP3    H126343   3.099   6.396  19.027 -0.2529  0.9420 -1.8476
  716TIP3    H226344   3.041   6.533  19.054  1.5118  1.4770 -0.5090
  717TIP3   OH226345   3.695   2.283  18.161  0.2224 -0.7848  0.1003
  717TIP3    H126346   3.700   2.225  18.085  1.1323 -1.4756  0.6685
  717TIP3    H226347   3.601   2.298  18.174  0.0690 -0.4369 -1.3121
  718TIP3   OH226348   6.698   3.288  18.493  0.2323 -0.5535  0.0064
  718TIP3    H126349   6.733   3.211  18.448 -0.2700  0.3308 -2.0383
  718TIP3    H226350   6.653   3.337  18.424 -0.7929  0.7965  1.5683
  719TIP3   OH226351   2.531   0.215  18.739 -0.1926 -0.2056 -0.2297
  719TIP3    H126352   2.497   0.287  18.686  0.0147  0.1432  0.1044
  719TIP3    H226353   2.579   0.258  18.810 -0.4257 -0.6652  0.2133
  720TIP3   OH226354   4.493   0.337  18.202 -0.5686 -0.4321 -0.3364
  720TIP3    H126355   4.455   0.411  18.154 -1.0317 -1.1206 -1.0470
  720TIP3    H226356   4.419   0.302  18.252 -0.1839  0.0243  0.5784
  721TIP3   OH226357   1.527   2.840  17.879 -0.0097 -0.4728  0.1872
  721TIP3    H126358   1.486   2.824  17.794 -0.5561  1.8853 -0.0548
  721TIP3    H226359   1.565   2.928  17.871  2.4032 -1.3092  1.4668
  722TIP3   OH226360   1.926   5.932  18.901  0.5505 -0.0220 -0.1532
  722TIP3    H126361   1.998   5.877  18.872  0.4010  0.7011 -2.0567
  722TIP3    H226362   1.851   5.903  18.848 -0.0390  0.5906  0.3283
  723TIP3   OH226363   1.130   7.463  18.412 -0.2106 -0.8806 -0.3082
  723TIP3    H126364   1.092   7.536  18.462  0.1727 -1.0601  0.2682
  723TIP3    H226365   1.207   7.502  18.370 -1.4043 -0.3215 -2.1031
  724TIP3   OH226366   7.238   3.408  19.347 -0.1245 -0.0106 -0.0730
  724TIP3    H126367   7.323   3.443  19.320 -0.4148 -0.2882 -1.4213
  724TIP3    H226368   7.193   3.388  19.265 -1.6042  0.3717  0.6203
  725TIP3   OH226369   2.064   6.845  18.052 -0.1663 -0.9027  0.3355
  725TIP3    H126370   1.981   6.845  18.005  0.2591 -1.8592 -0.4278
  725TIP3    H226371   2.129   6.873  17.988  0.4711 -2.5631  0.2007
  726TIP3   OH226372   1.786   0.267  18.283  0.0077  0.2169  0.4503
  726TIP3    H126373   1.821   0.348  18.245  0.9398  0.5529  1.9552
  726TIP3    H226374   1.835   0.197  18.240 -0.0959  0.4919 -0.1258
  727TIP3   OH226375   4.518   6.646  17.212 -0.1196 -0.3055 -0.2312
  727TIP3    H126376   4.467   6.617  17.137 -0.2467 -0.8218  0.0501
  727TIP3    H226377   4.513   6.574  17.275  2.3585 -1.1336 -0.8643
  728TIP3   OH226378   2.365   6.901  18.707 -0.2990 -0.4014 -0.1963
  728TIP3    H126379   2.311   6.880  18.631  0.4923 -2.4272 -0.2578
  728TIP3    H226380   2.349   6.829  18.768 -0.2339  0.7187  1.2076
  729TIP3   OH226381   4.859   4.201  18.659  0.2297 -0.0389 -0.2082
  729TIP3    H126382   4.846   4.178  18.751  1.0780 -1.6111 -0.4454
  729TIP3    H226383   4.809   4.134  18.610 -1.8724  1.9036 -0.9215
  730TIP3   OH226384   3.575   2.296  18.821 -0.1684  0.1922 -0.3477
  730TIP3    H126385   3.586   2.230  18.889 -2.5033  0.7319  0.6499
  730TIP3    H226386   3.532   2.250  18.749  0.3075  0.1271 -0.5984
  731TIP3   OH226387   6.510   0.355  17.884  0.2337 -0.3044 -0.2982
  731TIP3    H126388   6.526   0.323  17.973 -1.5643 -2.8265 -0.7762
  731TIP3    H226389   6.597   0.377  17.850  0.8916  1.6265  2.3188
  732TIP3   OH226390   7.553   6.724  17.345  0.0125  0.0222 -0.0733
  732TIP3    H126391   7.564   6.638  17.304 -2.0147  0.3107 -1.3507
  732TIP3    H226392   7.459   6.729  17.365  0.1236  1.8769  0.1213
  733TIP3   OH226393   0.834   6.727  18.622 -0.0590  0.1441 -1.0468
  733TIP3    H126394   0.928   6.716  18.605 -0.1765  0.0657 -1.6761
  733TIP3    H226395   0.793   6.648  18.586 -0.1470 -1.0885  1.4970
  734TIP3   OH226396   5.192   4.705  19.577 -0.3136 -0.3895 -0.2389
  734TIP3    H126397   5.281   4.741  19.573 -0.2823 -0.4142  0.2227
  734TIP3    H226398   5.179   4.664  19.491  1.4218 -3.4660  0.8191
  735TIP3   OH226399   1.610   6.773  17.590  0.0559  0.3420  0.0773
  735TIP3    H126400   1.698   6.735  17.594  0.2763  0.7339 -0.7571
  735TIP3    H226401   1.587   6.791  17.682  0.2186 -1.1410  0.4322
  736TIP3   OH226402   1.033   7.295  18.671  0.6596  0.3919  0.1190
  736TIP3    H126403   1.005   7.292  18.579 -0.0702  0.0794  0.3420
  736TIP3    H226404   1.097   7.365  18.674 -0.1419  1.1695 -0.4076
  737TIP3   OH226405   7.220   6.278  19.193  0.1855 -0.1180 -0.2784
  737TIP3    H126406   7.306   6.311  19.169  1.5571 -2.4452  1.1070
  737TIP3    H226407   7.191   6.226  19.118  0.0176  0.5739 -0.6984
  738TIP3   OH226408   5.470   2.671  17.812  0.1982 -0.2265  0.0474
  738TIP3    H126409   5.444   2.638  17.726  1.0165  1.1543 -0.7663
  738TIP3    H226410   5.404   2.738  17.833  0.0152 -0.5408  0.4936
  739TIP3   OH226411   4.201   4.628  18.035 -0.2671  0.2081 -0.0063
  739TIP3    H126412   4.192   4.715  18.074 -0.0431 -0.1087  0.7691
  739TIP3    H226413   4.294   4.622  18.013 -0.5756  0.8038 -1.6261
  740TIP3   OH226414   7.357   1.878  18.704 -0.4915 -0.1838 -0.3554
  740TIP3    H126415   7.284   1.939  18.703 -0.8405 -0.5874  0.1630
  740TIP3    H226416   7.435   1.933  18.716 -0.9966  0.0015  2.6797
  741TIP3   OH226417   2.975   6.229  19.036  0.2953  0.3410 -0.2641
  741TIP3    H126418   2.952   6.292  19.104 -1.2050 -0.7864  0.3263
  741TIP3    H226419   2.902   6.167  19.035  1.7018 -1.3799 -0.8424
  742TIP3   OH226420   3.056   3.982  17.714  0.1351 -0.7853 -0.1122
  742TIP3    H126421   2.981   4.035  17.741  0.9203 -0.6207  1.8835
  742TIP3    H226422   3.040   3.896  17.752  0.6088 -0.9570 -0.2894
  743TIP3   OH226423   4.219   1.859  19.981 -0.2451 -0.2671  0.1975
  743TIP3    H126424   4.290   1.849  20.045 -0.2530  0.8937  0.4128
  743TIP3    H226425   4.237   1.793  19.914  0.0422 -1.1751  1.1354
  744TIP3   OH226426   2.281   5.548  19.472  0.6061  0.3964  0.1110
  744TIP3    H126427   2.264   5.538  19.378  1.5896  1.3799 -0.1934
  744TIP3    H226428   2.344   5.479  19.492 -1.0544 -1.0590  0.4977
  745TIP3   OH226429   7.356   2.350  18.329  0.1488 -0.0208 -0.0670
  745TIP3    H126430   7.403   2.407  18.267  0.0519  1.5333  1.2297
  745TIP3    H226431   7.423   2.322  18.391 -0.1838  0.2436  0.4105
  746TIP3   OH226432   6.230   1.846  19.355 -0.6358  0.4879 -0.3104
  746TIP3    H126433   6.185   1.920  19.397 -0.4379  1.1578 -1.2485
  746TIP3    H226434   6.276   1.885  19.281  0.6242 -0.3693  0.0043
  747TIP3   OH226435   7.631   4.973  18.184  0.3587  0.4811  0.4684
  747TIP3    H126436   7.637   4.948  18.092  0.2681  2.7001 -0.1878
  747TIP3    H226437   7.718   4.956  18.220  1.2521  2.2265 -0.7717
  748TIP3   OH226438   4.850   4.764  17.749 -0.2746  0.2103  0.4139
  748TIP3    H126439   4.895   4.754  17.665 -0.2211  0.5679  0.3995
  748TIP3    H226440   4.910   4.816  17.802 -1.7899  3.0963 -0.4959
  749TIP3   OH226441   1.664   5.041  17.925  0.0840 -0.2368 -0.0232
  749TIP3    H126442   1.710   4.972  17.973 -0.4205 -0.4691  0.1429
  749TIP3    H226443   1.641   5.000  17.841  1.3529  0.3114 -0.6492
  750TIP3   OH226444   1.600   7.411  17.361  0.4254  0.2647 -0.2155
  750TIP3    H126445   1.630   7.449  17.443 -0.1361  1.0426 -0.3560
  750TIP3    H226446   1.621   7.477  17.295  0.8150 -0.3257 -0.6968
  751TIP3   OH226447   7.215   0.151  18.547  0.0735 -0.4924 -0.4238
  751TIP3    H126448   7.155   0.133  18.620 -1.3121 -1.6483 -1.7869
  751TIP3    H226449   7.299   0.168  18.589 -0.8039 -0.5630  1.4713
  752TIP3   OH226450   1.868   0.883  18.314  0.3601  0.6213 -0.4436
  752TIP3    H126451   1.849   0.936  18.237  0.3596  0.6764 -0.4054
  752TIP3    H226452   1.791   0.826  18.323  0.3030  0.7043 -0.4082
  753TIP3   OH226453   2.513   6.311  19.087  0.3309 -0.0478  0.5381
  753TIP3    H126454   2.434   6.329  19.037 -0.0395 -3.5536 -0.3633
  753TIP3    H226455   2.577   6.374  19.055 -0.9612  0.2269 -1.6567
  754TIP3   OH226456   1.083   7.346  17.629  0.2204 -0.4062 -0.3688
  754TIP3    H126457   1.101   7.319  17.539 -0.7281 -0.1456 -0.6476
  754TIP3    H226458   0.989   7.365  17.630  0.4673  0.8580  0.3420
  755TIP3   OH226459   6.448   4.965  18.308 -0.1557  0.2119  0.0344
  755TIP3    H126460   6.511   5.037  18.304 -0.1163  0.2524  1.1541
  755TIP3    H226461   6.419   4.963  18.399  0.9973 -2.1426  0.4474
  756TIP3   OH226462   0.786   3.724  18.582  0.0346 -0.7858  0.2023
  756TIP3    H126463   0.747   3.773  18.654  0.2118  0.5802 -0.5898
  756TIP3    H226464   0.748   3.763  18.503  3.3107  1.0453 -0.6685
  757TIP3   OH226465   0.233   3.045  17.775  0.5599  0.3227 -0.3001
  757TIP3    H126466   0.258   3.027  17.684  0.6460 -2.1346  0.1275
  757TIP3    H226467   0.284   3.122  17.800  0.8404  0.7916 -2.1858
  758TIP3   OH226468   7.442   4.561  18.718 -0.0635 -0.2128  0.1740
  758TIP3    H126469   7.529   4.561  18.759  0.6912 -0.5621 -1.3450
  758TIP3    H226470   7.393   4.628  18.765  1.2362  0.4410  0.6420
  759TIP3   OH226471   3.601   1.581  17.736 -0.1485 -0.0975  0.1172
  759TIP3    H126472   3.678   1.536  17.701  0.1323 -0.5747  1.2820
  759TIP3    H226473   3.535   1.512  17.743 -0.6149  0.2605 -0.6467
  760TIP3   OH226474   7.130   7.401  17.537 -0.8350 -0.0522 -0.2530
  760TIP3    H126475   7.204   7.399  17.476 -0.5234  0.4636  0.1072
  760TIP3    H226476   7.118   7.310  17.563  0.6574  0.0329  0.8568
  761TIP3   OH226477   0.621   6.353  17.393 -0.5048 -0.1740  0.2455
  761TIP3    H126478   0.555   6.284  17.388 -1.8816  1.0544  0.6347
  761TIP3    H226479   0.642   6.373  17.301 -1.6717  0.3034  0.0610
  762TIP3   OH226480   4.735   0.628  17.342 -0.3625  0.2062 -0.1202
  762TIP3    H126481   4.738   0.661  17.252 -1.5784 -0.4119 -0.4099
  762TIP3    H226482   4.791   0.688  17.391  0.9257  0.1219 -1.4128
  763TIP3   OH226483   5.849   2.926  17.302 -0.2368 -0.0074 -0.0871
  763TIP3    H126484   5.817   2.956  17.387  1.1252 -2.8430  1.5838
  763TIP3    H226485   5.892   3.003  17.264  1.6876  0.7147  3.1518
  764TIP3   OH226486   3.967   0.950  19.044  0.4545 -0.5337 -0.3516
  764TIP3    H126487   3.897   0.945  19.109  2.1334 -2.7627  1.4408
  764TIP3    H226488   3.927   0.917  18.964 -1.1281  0.3565  0.0364
  765TIP3   OH226489   5.104   4.150  18.530  0.1975 -0.3172 -0.2398
  765TIP3    H126490   5.148   4.088  18.589  0.7925  0.0373 -0.3072
  765TIP3    H226491   5.028   4.180  18.580  1.6990  1.4195  1.1537
  766TIP3   OH226492   6.317   4.578  17.748 -0.2429 -0.3405  0.6233
  766TIP3    H126493   6.358   4.595  17.663  1.4614 -1.5296  1.1451
  766TIP3    H226494   6.224   4.566  17.728  0.0553 -0.1713 -1.0073
  767TIP3   OH226495   3.195   3.399  19.444 -0.5368 -0.1644  0.2776
  767TIP3    H126496   3.108   3.382  19.410 -0.5606 -2.2741  1.2829
  767TIP3    H226497   3.253   3.384  19.370 -0.9093 -0.2327 -0.0049
  768TIP3   OH226498   1.666   5.527  19.557 -0.4042 -0.0865 -0.4652
  768TIP3    H126499   1.684   5.465  19.627  0.7988 -1.9170 -2.2767
  768TIP3    H226500   1.722   5.603  19.577  1.5601 -1.4495 -0.5007
  769TIP3   OH226501   2.057   5.799  18.118  0.3093 -0.2457 -0.3746
  769TIP3    H126502   2.009   5.846  18.186  0.2317 -0.1679 -0.4816
  769TIP3    H226503   2.060   5.860  18.044 -0.5842 -0.7355 -0.8347
  770TIP3   OH226504   3.864   7.046  17.956 -0.1008  0.0134 -0.7760
  770TIP3    H126505   3.900   7.069  17.870 -1.5292  1.3407 -1.0606
  770TIP3    H226506   3.782   7.095  17.961  0.5068  0.8925  1.8243
  771TIP3   OH226507   5.232   1.019  17.369 -0.3711  0.1134 -0.3154
  771TIP3    H126508   5.318   1.042  17.333 -0.3014  0.8844  0.3105
  771TIP3    H226509   5.169   1.056  17.308 -0.2662 -0.4793 -0.7922
  772TIP3   OH226510   2.432   1.031  19.177  0.1482 -0.3808  0.0100
  772TIP3    H126511   2.349   1.032  19.224  0.5389 -1.9701  0.8051
  772TIP3    H226512   2.424   0.956  19.117  1.4527 -1.3635  1.0062
  773TIP3   OH226513   7.146   2.058  18.685  0.7990  0.1395  0.6262
  773TIP3    H126514   7.129   2.144  18.723  0.3061  0.0565  0.5986
  773TIP3    H226515   7.133   2.071  18.591  3.2980  0.6696  0.2892
  774TIP3   OH226516   2.040   5.457  19.781  0.7851 -0.0143 -0.1103
  774TIP3    H126517   1.986   5.533  19.758  1.7929  0.7943  0.1090
  774TIP3    H226518   2.007   5.430  19.867  2.4399  2.1802  1.3274
  775TIP3   OH226519   7.225   7.220  18.545 -0.4373 -0.2358  0.3487
  775TIP3    H126520   7.316   7.230  18.573 -0.4201 -0.1747  0.2718
  775TIP3    H226521   7.230   7.211  18.450 -0.6909  2.4753 -0.0141
  776TIP3   OH226522   7.629   6.068  18.730  0.5081 -0.0345 -0.3825
  776TIP3    H126523   7.571   6.142  18.714 -0.8784 -1.3416 -1.6038
  776TIP3    H226524   7.618   6.011  18.655  0.2830 -2.2958  1.2661
  777TIP3   OH226525   4.338   3.777  17.132 -0.4166 -0.0794 -0.1528
  777TIP3    H126526   4.284   3.702  17.155 -2.7165  0.9362 -1.8568
  777TIP3    H226527   4.364   3.762  17.041 -1.4720  1.4477 -0.7429
  778TIP3   OH226528   4.807   7.497  18.490 -0.0737 -0.5623 -0.0591
  778TIP3    H126529   4.739   7.558  18.460 -0.7162 -1.8325 -1.3385
  778TIP3    H226530   4.759   7.428  18.535  0.5702 -0.5033  0.7337
  779TIP3   OH226531   5.661   3.960  17.738 -0.2306  0.7868 -0.1898
  779TIP3    H126532   5.674   3.908  17.659 -2.3014 -2.7522  1.5447
  779TIP3    H226533   5.747   3.959  17.781 -0.3117 -1.9142  0.0662
  780TIP3   OH226534   7.118   2.621  18.151  0.2481  0.4320  0.4070
  780TIP3    H126535   7.147   2.530  18.147 -0.3177  0.2684 -0.3314
  780TIP3    H226536   7.183   2.666  18.205  1.2168 -0.1532 -0.2554
  781TIP3   OH226537   7.640   4.699  17.615 -0.0562  0.1067  0.1386
  781TIP3    H126538   7.665   4.606  17.620  1.1187  0.3592 -0.6550
  781TIP3    H226539   7.642   4.729  17.705 -3.7915 -1.4148  0.9263
  782TIP3   OH226540   3.595   5.008  18.326 -0.3029 -0.4289 -0.2948
  782TIP3    H126541   3.518   4.966  18.365 -0.8185 -2.5242 -3.2191
  782TIP3    H226542   3.664   4.941  18.333  0.5907  0.5144  0.1457
  783TIP3   OH226543   5.807   2.048  17.751  0.4819  0.1306  0.2328
  783TIP3    H126544   5.776   2.114  17.813  0.3734  0.7237 -0.4511
  783TIP3    H226545   5.887   2.014  17.791 -1.0919 -1.6244  2.1831
  784TIP3   OH226546   6.435   4.773  17.912  0.6559 -0.0009  0.6041
  784TIP3    H126547   6.377   4.849  17.913  2.0128  1.1319 -1.1428
  784TIP3    H226548   6.407   4.723  17.835  1.5864  0.2274  0.1147
  785TIP3   OH226549   5.301   6.961  17.143  0.4302 -0.0353 -0.4330
  785TIP3    H126550   5.230   7.017  17.174  1.3239  1.4660 -1.0166
  785TIP3    H226551   5.280   6.944  17.051  0.6667  0.1388 -0.5182
  786TIP3   OH226552   5.596   5.858  17.803  0.1966 -0.2355  0.0858
  786TIP3    H126553   5.678   5.877  17.849 -0.8461 -0.2834  2.0289
  786TIP3    H226554   5.572   5.941  17.762  1.0713 -0.1605 -0.3145
  787TIP3   OH226555   2.438   6.849  18.113 -0.0116 -0.3446 -0.6588
  787TIP3    H126556   2.415   6.842  18.020  1.5089 -1.0349 -1.0083
  787TIP3    H226557   2.447   6.758  18.142  0.8630 -0.1170 -0.1913
  788TIP3   OH226558   5.365   0.322  17.468 -0.6396 -0.0519  0.0224
  788TIP3    H126559   5.432   0.254  17.465 -0.9765 -0.4040  0.3114
  788TIP3    H226560   5.286   0.279  17.434 -0.4861  0.6399 -1.2768
  789TIP3   OH226561   4.286   5.773  17.805  0.1811  0.4221 -0.7024
  789TIP3    H126562   4.255   5.732  17.725  0.0703 -0.4455 -0.2328
  789TIP3    H226563   4.217   5.835  17.829 -0.6363 -0.5848 -0.3447
  790TIP3   OH226564   2.100   6.654  19.217 -0.7338  0.3324 -0.1652
  790TIP3    H126565   2.033   6.650  19.285 -2.2133  0.0131 -1.5888
  790TIP3    H226566   2.133   6.565  19.210 -0.8833  0.2767 -0.1605
  791TIP3   OH226567   5.356   0.443  17.708 -0.2332 -0.0783  0.6917
  791TIP3    H126568   5.381   0.408  17.622  2.5036  1.2396  0.8238
  791TIP3    H226569   5.293   0.512  17.688 -0.0434 -0.1560 -0.2280
  792TIP3   OH226570   1.348   2.646  18.262  0.4034  0.3464  0.0661
  792TIP3    H126571   1.359   2.728  18.214 -0.5291  0.8672  0.7211
  792TIP3    H226572   1.253   2.635  18.270  0.5289 -0.1461  1.0882
  793TIP3   OH226573   6.192   1.420  19.589 -0.6900  0.3746 -0.0430
  793TIP3    H126574   6.228   1.494  19.541 -1.0026  0.8027  0.3727
  793TIP3    H226575   6.260   1.398  19.653 -0.1873 -0.3284 -0.8081
  794TIP3   OH226576   5.559   2.037  18.548 -0.3199  0.7111 -0.4512
  794TIP3    H126577   5.522   1.997  18.469 -1.8390  0.4012  0.3693
  794TIP3    H226578   5.484   2.045  18.607  0.6781  1.4560  0.7498
  795TIP3   OH226579   2.049   5.148  17.512 -0.1321  0.1167 -0.4978
  795TIP3    H126580   1.988   5.127  17.441 -1.1328  0.4035  0.2531
  795TIP3    H226581   2.104   5.070  17.520 -1.5007 -0.8416 -0.0970
  796TIP3   OH226582   7.430   3.761  18.617  0.1009 -0.0634 -0.3489
  796TIP3    H126583   7.364   3.820  18.582 -1.3794 -0.9213  0.8694
  796TIP3    H226584   7.422   3.682  18.563 -1.3536 -0.9364  1.0575
  797TIP3   OH226585   0.848   7.112  18.054  0.5150  0.4380  0.2294
  797TIP3    H126586   0.833   7.030  18.006 -1.0290  2.5412 -3.2384
  797TIP3    H226587   0.938   7.136  18.032  0.0848  0.9694 -1.0347
  798TIP3   OH226588   1.142   7.110  19.860  0.5590  0.2422  0.4219
  798TIP3    H126589   1.076   7.171  19.826  0.0824 -0.4331  0.1071
  798TIP3    H226590   1.091   7.036  19.894  1.1710 -0.6610 -0.5523
  799TIP3   OH226591   2.899   6.738  17.859  0.3720 -0.1657 -0.3464
  799TIP3    H126592   2.897   6.724  17.764  0.4630  0.0063 -0.3744
  799TIP3    H226593   2.808   6.754  17.883 -0.2445 -3.5770  0.1297
  800TIP3   OH226594   1.137   6.624  19.029 -0.4472 -0.2403 -0.2478
  800TIP3    H126595   1.115   6.708  18.989 -1.0204 -1.1930 -2.0473
  800TIP3    H226596   1.225   6.636  19.063 -1.0511  1.5134  0.8375
  801TIP3   OH226597   6.436   0.106  19.508  0.1238 -0.2258  0.0000
  801TIP3    H126598   6.487   0.063  19.439 -2.3085 -1.5566 -1.0942
  801TIP3    H226599   6.462   0.061  19.589  2.5602  0.9367 -0.0664
  802TIP3   OH226600   1.874   4.319  19.418 -0.3509 -0.5415 -0.0021
  802TIP3    H126601   1.851   4.411  19.401 -0.6407 -0.5910  0.1164
  802TIP3    H226602   1.963   4.322  19.452 -0.3399 -0.3085 -0.0503
  803TIP3   OH226603   2.473   4.258  18.750 -0.4530 -0.2696  0.3843
  803TIP3    H126604   2.564   4.260  18.722 -0.6922  0.3915 -0.3829
  803TIP3    H226605   2.473   4.203  18.828  1.2401  2.7011  2.6829
  804TIP3   OH226606   5.373   6.164  19.908  0.4657 -0.3379  0.2111
  804TIP3    H126607   5.288   6.195  19.940 -0.8059 -1.0842 -2.2023
  804TIP3    H226608   5.413   6.241  19.869 -0.2131 -0.4889 -0.8135
  805TIP3   OH226609   2.986   3.792  18.116  0.3187  0.1410 -0.5348
  805TIP3    H126610   2.940   3.794  18.031 -1.4375 -1.7661  0.2782
  805TIP3    H226611   3.049   3.720  18.107  0.9482  0.6903 -0.5795
  806TIP3   OH226612   1.363   0.189  16.755 -0.6155 -0.1195 -0.0335
  806TIP3    H126613   1.334   0.105  16.789  0.1138 -1.1461 -1.8172
  806TIP3    H226614   1.284   0.243  16.753 -1.4957 -1.4021 -0.6631
  807TIP3   OH226615   3.064   7.447  17.850 -0.1286 -0.9103  0.0503
  807TIP3    H126616   3.143   7.431  17.799  0.4387 -1.2262  0.9894
  807TIP3    H226617   3.068   7.382  17.921 -1.6973 -1.5604 -0.3949
  808TIP3   OH226618   6.069   0.889  18.680  0.4228  0.9436  0.2915
  808TIP3    H126619   6.078   0.803  18.638 -0.1113  1.5845 -1.1900
  808TIP3    H226620   5.978   0.892  18.709  0.3277  1.1805 -0.0337
  809TIP3   OH226621   3.099   6.625  19.492  0.4225 -0.0280 -0.0526
  809TIP3    H126622   3.147   6.552  19.453  1.7954 -1.4679  3.8650
  809TIP3    H226623   3.016   6.587  19.520  0.8826 -0.0059  1.4368
  810TIP3   OH226624   4.565   7.173  19.893  0.1149 -0.9683 -0.3789
  810TIP3    H126625   4.631   7.120  19.847 -0.0984 -1.1232 -0.5106
  810TIP3    H226626   4.532   7.115  19.962 -0.5686 -1.2398 -0.9158
  811TIP3   OH226627   2.703   3.255  18.545 -0.4762  0.4872 -0.2973
  811TIP3    H126628   2.690   3.185  18.481 -1.1763  1.1371 -0.8900
  811TIP3    H226629   2.658   3.223  18.624  0.0620 -0.1526 -0.2465
  812TIP3   OH226630   6.728   3.761  19.382 -0.6755 -0.4922  0.1825
  812TIP3    H126631   6.656   3.798  19.330 -2.0838 -0.9536  1.7052
  812TIP3    H226632   6.725   3.667  19.363 -0.9105 -0.6015  0.7608
  813TIP3   OH226633   6.392   4.386  18.730 -0.4177 -0.6475  0.4605
  813TIP3    H126634   6.343   4.305  18.711 -1.5137  0.0037  0.4405
  813TIP3    H226635   6.362   4.448  18.663  0.4665 -0.2308  0.4408
  814TIP3   OH226636   2.075   3.125  19.308  0.8011 -0.1808  0.6232
  814TIP3    H126637   2.019   3.171  19.246  0.1716  0.3548  1.5593
  814TIP3    H226638   2.126   3.195  19.350  1.0548 -0.5149  0.8749
  815TIP3   OH226639   1.591   2.132  19.146  0.0429  0.8402 -0.8614
  815TIP3    H126640   1.645   2.165  19.074 -1.4659  2.8991 -1.1373
  815TIP3    H226641   1.644   2.148  19.225  0.7297  0.7501 -1.2924
  816TIP3   OH226642   7.183   7.067  19.681 -0.1008 -0.2266  0.1233
  816TIP3    H126643   7.183   7.162  19.695 -0.4562 -0.0447 -1.0034
  816TIP3    H226644   7.275   7.044  19.671 -0.1150  0.3997 -1.9208
  817TIP3   OH226645   7.122   6.740  18.286 -0.3291 -0.2368 -0.0153
  817TIP3    H126646   7.108   6.834  18.275  1.1350  0.3204  2.2803
  817TIP3    H226647   7.043   6.709  18.330 -1.2374 -0.3211 -1.6274
  818TIP3   OH226648   3.284   2.182  19.889 -0.2264 -0.0229 -0.3713
  818TIP3    H126649   3.268   2.276  19.897 -1.0384 -0.3040  1.8520
  818TIP3    H226650   3.357   2.165  19.949  1.1099 -0.5842 -2.0694
  819TIP3   OH226651   5.699   2.215  19.482  0.1703  0.4886 -0.3306
  819TIP3    H126652   5.645   2.162  19.423 -0.6351  1.9596 -0.9788
  819TIP3    H226653   5.786   2.212  19.444  0.2508 -0.7527 -0.0780
  820TIP3   OH226654   4.565   3.105  19.358 -0.2610  0.1072  0.2398
  820TIP3    H126655   4.658   3.122  19.373 -0.1687 -1.1173  1.2483
  820TIP3    H226656   4.521   3.138  19.437 -0.6051  0.0353  0.0829
  821TIP3   OH226657   2.834   1.517  18.988 -0.5048 -0.0057 -0.0101
  821TIP3    H126658   2.877   1.599  19.010  1.5457 -0.4361 -2.0658
  821TIP3    H226659   2.861   1.499  18.898 -1.1722 -2.7485  0.2532
  822TIP3   OH226660   3.352   3.180  18.167 -0.1896 -0.0310 -0.0669
  822TIP3    H126661   3.305   3.134  18.236  0.6567  0.3837  0.8092
  822TIP3    H226662   3.352   3.272  18.196 -1.5324  0.4921 -1.5921
  823TIP3   OH226663   1.259   4.388  17.851 -0.3240  0.4546  0.4163
  823TIP3    H126664   1.284   4.361  17.763  1.0714  0.1994  0.8698
  823TIP3    H226665   1.201   4.463  17.837 -0.2015  0.3545 -0.7153
  824TIP3   OH226666   6.834   1.156  17.392 -0.2667  0.2461 -0.5433
  824TIP3    H126667   6.742   1.135  17.377 -0.4374  0.9044 -0.4628
  824TIP3    H226668   6.872   1.076  17.429 -0.8873  0.0895 -0.2336
  825TIP3   OH226669   4.619   3.740  18.022  0.2226 -0.1387  0.2665
  825TIP3    H126670   4.562   3.713  17.950 -2.2650  1.4033  1.5080
  825TIP3    H226671   4.675   3.807  17.983 -1.8636  1.5237 -0.1256
  826TIP3   OH226672   3.620   0.763  18.273 -0.1671 -0.6449  0.1779
  826TIP3    H126673   3.701   0.729  18.236 -0.4348 -0.1137 -0.9444
  826TIP3    H226674   3.558   0.690  18.268  0.3985 -1.2723  1.6744
  827TIP3   OH226675   0.747   4.985  19.488 -0.1062  0.5139  0.2328
  827TIP3    H126676   0.822   5.044  19.495 -0.5278  1.1818 -0.5833
  827TIP3    H226677   0.672   5.039  19.513 -0.4454  0.1867 -0.0656
  828TIP3   OH226678   7.131   2.985  17.789 -0.2204  0.2085  0.0917
  828TIP3    H126679   7.054   3.033  17.821 -1.8184 -1.4276 -1.1237
  828TIP3    H226680   7.146   2.918  17.855 -0.2198  0.1374  0.0178
  829TIP3   OH226681   0.733   7.054  18.812 -0.1113 -0.2284 -0.4197
  829TIP3    H126682   0.721   7.007  18.730 -1.3529  0.9462 -0.9545
  829TIP3    H226683   0.645   7.056  18.851  0.3365 -0.1968  0.6157
  830TIP3   OH226684   0.234   5.504  18.207 -0.6103 -0.1613  0.0126
  830TIP3    H126685   0.207   5.529  18.118 -2.3329  1.4622  0.9310
  830TIP3    H226686   0.214   5.580  18.261  0.3414 -1.1343  1.8424
  831TIP3   OH226687   6.239   1.606  17.572  0.2544 -0.1663 -0.5724
  831TIP3    H126688   6.227   1.656  17.491  0.4074  2.9278  1.1721
  831TIP3    H226689   6.334   1.604  17.585  0.1889  0.1430 -0.0304
  832TIP3   OH226690   2.071   7.390  18.479  0.3105 -0.2490 -0.4048
  832TIP3    H126691   2.052   7.301  18.451 -0.1341 -0.1555 -0.4047
  832TIP3    H226692   2.148   7.382  18.536 -0.6547 -0.8389  0.8549
  833TIP3   OH226693   6.089   1.758  18.931 -0.0041  0.3191 -0.3612
  833TIP3    H126694   6.018   1.779  18.992 -0.4302  0.3763 -0.8650
  833TIP3    H226695   6.045   1.749  18.847  0.2625 -1.8133 -0.3271
  834TIP3   OH226696   7.679   1.009  19.209 -0.1579 -0.4539  0.1783
  834TIP3    H126697   7.767   1.029  19.240 -0.5040  0.2895  0.7242
  834TIP3    H226698   7.672   0.914  19.217  0.1015 -0.3909  1.5201
  835TIP3   OH226699   6.269   1.189  17.736 -0.2346 -0.5897 -0.2835
  835TIP3    H126700   6.287   1.260  17.674 -0.7210 -0.3428 -0.1445
  835TIP3    H226701   6.239   1.117  17.682  0.1587 -0.6579 -0.4156
  836TIP3   OH226702   4.497   7.049  18.153 -0.6059  0.5550 -0.2944
  836TIP3    H126703   4.426   6.987  18.134 -0.3793 -0.1960  1.1641
  836TIP3    H226704   4.486   7.119  18.088 -0.7569 -1.0833 -2.1462
  837TIP3   OH226705   7.579   4.065  17.587  0.3863  0.3301 -0.0004
  837TIP3    H126706   7.551   4.136  17.644  2.3127 -0.0020  1.4603
  837TIP3    H226707   7.603   4.108  17.505  1.6001  1.4362  0.8867
  838TIP3   OH226708   1.120   6.653  18.604  0.1313 -0.0938 -0.3405
  838TIP3    H126709   1.143   6.667  18.512  2.0304 -0.3161  0.0643
  838TIP3    H226710   1.177   6.713  18.652 -1.1404  0.3244  0.6783
  839TIP3   OH226711   0.237   5.124  17.437 -0.2875  0.1178 -0.9404
  839TIP3    H126712   0.298   5.174  17.491  0.2471  0.3816 -1.7689
  839TIP3    H226713   0.195   5.063  17.497 -0.4948  1.1372 -0.0243
  840TIP3   OH226714   6.171   0.237  18.044 -0.3886 -0.3610  0.6237
  840TIP3    H126715   6.219   0.293  18.104  1.5756 -0.6695 -0.5754
  840TIP3    H226716   6.129   0.172  18.100 -1.3362  1.2792  1.8887
  841TIP3   OH226717   4.270   6.619  18.345  0.5211  0.8041 -0.2434
  841TIP3    H126718   4.234   6.547  18.294 -0.7836 -0.0434  1.7402
  841TIP3    H226719   4.359   6.591  18.366  0.9739  1.0379 -1.7304
  842TIP3   OH226720   5.541   1.529  18.441  0.1646 -0.7227 -0.0622
  842TIP3    H126721   5.534   1.606  18.497  0.5319  0.1945 -1.2289
  842TIP3    H226722   5.453   1.517  18.406 -0.5527 -2.4749  2.1492
  843TIP3   OH226723   3.784   0.704  19.239 -0.0470  0.0890  0.3193
  843TIP3    H126724   3.818   0.774  19.295 -0.9133  1.3810 -0.7160
  843TIP3    H226725   3.811   0.729  19.151  1.1174 -1.8100  0.0764
  844TIP3   OH226726   5.137   1.857  18.555  0.1210 -0.9527  0.0327
  844TIP3    H126727   5.057   1.828  18.599 -0.1598 -2.3371 -1.2838
  844TIP3    H226728   5.168   1.931  18.607 -1.0083 -1.5439  1.6372
  845TIP3   OH226729   6.118   0.518  19.359  0.9226 -0.0406 -0.4437
  845TIP3    H126730   6.175   0.459  19.408  2.5647  2.1271  0.3944
  845TIP3    H226731   6.101   0.472  19.276  0.1293 -2.6738  1.0643
  846TIP3   OH226732   2.999   6.768  16.959 -0.1460 -0.4720 -0.0407
  846TIP3    H126733   2.985   6.679  16.992 -0.2742 -0.3259  0.3039
  846TIP3    H226734   3.019   6.757  16.867 -0.0627 -0.8680  0.0270
  847TIP3   OH226735   3.478   0.840  19.754 -0.1622 -0.4735 -0.3411
  847TIP3    H126736   3.472   0.920  19.702 -1.4861  0.1035  0.6360
  847TIP3    H226737   3.418   0.779  19.711  0.3293 -0.7133 -0.6921
  848TIP3   OH226738   3.547   2.728  19.671  0.3093  0.1500 -0.3945
  848TIP3    H126739   3.641   2.717  19.657  0.9475  2.1585  1.6150
  848TIP3    H226740   3.531   2.822  19.658 -1.6487 -0.2958 -1.6361
  849TIP3   OH226741   1.324   5.449  19.812  0.0279  0.3856  0.3798
  849TIP3    H126742   1.326   5.500  19.893 -2.9161  0.8849  0.2584
  849TIP3    H226743   1.280   5.505  19.749  2.3047  0.0373 -1.6905
  850TIP3   OH226744   5.929   3.974  17.751 -0.4611 -0.4038 -0.3229
  850TIP3    H126745   5.989   3.999  17.680 -0.5810 -0.0545 -0.2981
  850TIP3    H226746   5.928   3.878  17.748  0.8732 -0.4583  0.3083
  851TIP3   OH226747   4.992   6.398  16.852 -0.7512 -0.1484 -0.0237
  851TIP3    H126748   5.072   6.412  16.903 -0.4232 -0.5017 -0.4411
  851TIP3    H226749   4.953   6.485  16.844 -1.2264 -0.1781  1.5045
  852TIP3   OH226750   6.026   6.867  17.899  0.1560 -0.5998 -0.2769
  852TIP3    H126751   6.026   6.928  17.973  0.7151 -0.4130 -0.4315
  852TIP3    H226752   5.942   6.822  17.906  0.2087 -0.5976  0.4826
  853TIP3   OH226753   4.854   4.425  19.468 -0.0523  0.1065 -0.3708
  853TIP3    H126754   4.920   4.416  19.399  1.1140 -0.6523  0.7853
  853TIP3    H226755   4.858   4.517  19.493 -2.1271  0.9732 -2.8115
  854TIP3   OH226756   4.656   0.812  18.266 -0.3778 -0.2608  0.5735
  854TIP3    H126757   4.689   0.761  18.340 -1.6873 -0.8094  0.8190
  854TIP3    H226758   4.732   0.826  18.210  0.4611 -0.5626  1.6126
  855TIP3   OH226759   6.334   4.112  18.774 -0.1013 -0.1250 -0.3496
  855TIP3    H126760   6.387   4.144  18.846  0.9503 -0.0176 -1.1545
  855TIP3    H226761   6.397   4.087  18.706 -1.0777  0.3011 -1.4525
  856TIP3   OH226762   0.135   2.084  17.636 -0.0363  0.2071  0.4517
  856TIP3    H126763   0.043   2.110  17.634 -0.0557  0.2743  1.5666
  856TIP3    H226764   0.156   2.079  17.729  0.4961 -1.9061  0.2698
  857TIP3   OH226765   4.649   2.489  17.949 -0.0601  0.2872  0.3232
  857TIP3    H126766   4.605   2.498  17.865 -1.6772  0.0169  1.1165
  857TIP3    H226767   4.672   2.578  17.974 -0.7789  0.4994  0.2276
  858TIP3   OH226768   3.259   7.556  18.302  0.1748 -0.1994  0.2446
  858TIP3    H126769   3.348   7.590  18.296  0.0599 -0.0137 -0.4392
  858TIP3    H226770   3.211   7.602  18.234 -0.2266 -0.9789 -0.0078
  859TIP3   OH226771   4.403   5.342  19.561  0.1879 -0.9656 -0.0618
  859TIP3    H126772   4.429   5.411  19.499  1.8265 -0.9756  0.5585
  859TIP3    H226773   4.308   5.338  19.553  0.1177  0.7968 -0.7225
  860TIP3   OH226774   4.223   5.248  18.349 -0.2037  0.1022  0.2403
  860TIP3    H126775   4.161   5.243  18.276  1.1569  0.6421 -1.0151
  860TIP3    H226776   4.212   5.166  18.397 -1.5325 -0.0120 -0.2258
  861TIP3   OH226777   3.287   0.668  19.581 -0.1918 -0.0714  0.8062
  861TIP3    H126778   3.214   0.651  19.641 -0.6031  0.1302  0.3677
  861TIP3    H226779   3.265   0.620  19.501  0.1975 -0.0815  0.6998
  862TIP3   OH226780   1.568   3.026  18.252  0.0592 -0.8114 -0.7576
  862TIP3    H126781   1.524   2.975  18.320  0.8273  0.2205  0.5712
  862TIP3    H226782   1.656   2.990  18.249  1.2455  1.5385  1.5901
  863TIP3   OH226783   4.708   0.421  19.232 -0.6804 -0.3753  0.3524
  863TIP3    H126784   4.782   0.476  19.259  0.7186 -1.3313 -1.3422
  863TIP3    H226785   4.630   0.471  19.258  0.5369  1.7160  0.1748
  864TIP3   OH226786   3.122   1.240  18.547 -0.0166  0.4486 -0.6524
  864TIP3    H126787   3.031   1.215  18.561 -0.3905 -0.1262 -3.4513
  864TIP3    H226788   3.119   1.334  18.528 -0.1814  0.2920 -1.4771
  865TIP3   OH226789   5.524   7.309  19.907  0.5990 -0.1748 -0.0048
  865TIP3    H126790   5.446   7.288  19.856 -0.2977  1.3722  0.6712
  865TIP3    H226791   5.542   7.401  19.887  1.2866 -0.0462  1.0941
  866TIP3   OH226792   2.507   2.958  19.923  0.6783  0.0601  0.7379
  866TIP3    H126793   2.570   2.926  19.857 -0.3714  0.4696 -0.5080
  866TIP3    H226794   2.557   3.021  19.975  2.0510 -1.6235  1.5631
  867TIP3   OH226795   0.360   3.298  17.173  0.2440  0.3595 -0.2892
  867TIP3    H126796   0.301   3.371  17.154  0.0149 -0.4720 -3.4468
  867TIP3    H226797   0.314   3.221  17.138  0.5510 -1.3593  2.7600
  868TIP3   OH226798   6.058   5.253  18.006  0.3371  0.4277  0.1646
  868TIP3    H126799   5.996   5.261  17.933  0.9860  1.9876 -0.2670
  868TIP3    H226800   6.138   5.220  17.965  0.5569  0.8458  0.2547
  869TIP3   OH226801   4.396   4.566  18.297 -0.2187  0.8053  0.3794
  869TIP3    H126802   4.410   4.482  18.339  0.6274  0.0258 -1.3510
  869TIP3    H226803   4.460   4.625  18.337  0.5125  0.1120  0.2337
  870TIP3   OH226804   1.380   2.454  19.185  0.1431 -0.0462  0.3471
  870TIP3    H126805   1.452   2.472  19.124  0.8045 -0.3218  1.0489
  870TIP3    H226806   1.326   2.534  19.181  0.3419  0.0627 -0.3624
  871TIP3   OH226807   2.918   2.852  19.542 -0.6711  0.6562 -0.3313
  871TIP3    H126808   3.008   2.875  19.518  0.1508 -0.1435  1.7434
  871TIP3    H226809   2.911   2.759  19.523 -0.7563  0.5237  0.3417
  872TIP3   OH226810   0.971   0.307  17.592 -0.3417  0.0679 -0.1882
  872TIP3    H126811   0.883   0.271  17.604 -0.2233 -0.8957 -1.8276
  872TIP3    H226812   0.985   0.304  17.497  0.6444  2.2385 -0.1585
  873TIP3   OH226813   0.661   1.036  17.215  0.3379 -0.0385  0.0133
  873TIP3    H126814   0.647   1.030  17.309  0.0556 -1.3142 -0.0873
  873TIP3    H226815   0.698   0.951  17.191 -2.1479 -0.8348 -1.4371
  874TIP3   OH226816   7.093   3.404  18.750 -0.4470 -0.1813 -0.2177
  874TIP3    H126817   7.168   3.448  18.709 -0.5392  1.2726  1.0851
  874TIP3    H226818   7.132   3.330  18.797  0.2102  0.5678  0.4571
  875TIP3   OH226819   4.819   6.747  18.696  0.4690  0.7087 -0.6421
  875TIP3    H126820   4.782   6.770  18.782  1.2840 -3.3824  1.0200
  875TIP3    H226821   4.913   6.748  18.709  0.6137  0.3940 -1.6042
  876TIP3   OH226822   6.746   1.913  18.742  0.1323 -0.1620  0.1142
  876TIP3    H126823   6.815   1.919  18.808  1.9195 -1.5981 -1.4994
  876TIP3    H226824   6.714   1.823  18.748 -0.8672  0.1866  0.1269
  877TIP3   OH226825   5.240   4.132  18.135  0.1134 -0.1972 -0.3609
  877TIP3    H126826   5.267   4.174  18.054 -0.2393  1.1127  0.1646
  877TIP3    H226827   5.237   4.038  18.115  6.2948 -0.8520 -0.1890
  878TIP3   OH226828   3.938   5.095  18.870  0.0410 -0.1451  0.3482
  878TIP3    H126829   3.931   5.086  18.775  1.6759 -1.4096  0.3058
  878TIP3    H226830   4.008   5.034  18.895  2.8614  3.2963  1.8019
  879TIP3   OH226831   2.569   0.957  17.735  0.8839  0.1353 -0.2040
  879TIP3    H126832   2.579   0.878  17.682  0.8883  0.6658 -1.0090
  879TIP3    H226833   2.651   1.005  17.724  1.8379 -0.7957  2.1132
  880TIP3   OH226834   7.269   0.879  17.268 -0.5272  0.2792  0.1393
  880TIP3    H126835   7.186   0.888  17.223 -1.1534 -1.4842  0.8479
  880TIP3    H226836   7.324   0.829  17.208  0.4028  2.2749 -0.7413
  881TIP3   OH226837   2.220   7.519  17.473  0.5264 -0.3852 -0.1689
  881TIP3    H126838   2.165   7.458  17.425 -1.6059  0.8230  0.6093
  881TIP3    H226839   2.252   7.469  17.548  1.8659 -1.5474 -1.4277
  882TIP3   OH226840   2.123   6.406  17.715 -0.5162 -0.3658  0.2790
  882TIP3    H126841   2.047   6.374  17.764 -1.2070 -0.8186 -1.0238
  882TIP3    H226842   2.086   6.469  17.652  0.3403  0.2308  0.3559
  883TIP3   OH226843   5.205   4.548  18.801 -0.0143 -0.2088 -0.2348
  883TIP3    H126844   5.132   4.578  18.856  0.0085  0.1268 -0.3872
  883TIP3    H226845   5.193   4.594  18.718 -0.3321 -1.0950 -0.6865
  884TIP3   OH226846   7.504   7.535  17.487 -0.4236 -0.0457 -0.3514
  884TIP3    H126847   7.450   7.605  17.450 -1.0511  0.6350  1.7321
  884TIP3    H226848   7.461   7.454  17.460  0.5296  0.2533 -3.1267
  885TIP3   OH226849   4.998   0.191  18.149 -0.2843  0.7580 -0.2829
  885TIP3    H126850   5.023   0.108  18.188  1.6195  0.9537 -0.9650
  885TIP3    H226851   4.937   0.230  18.212 -1.2414 -1.1351  0.0281
  886TIP3   OH226852   2.849   2.575  19.536 -0.5469  0.1980  0.1771
  886TIP3    H126853   2.892   2.518  19.472  0.4609  2.8769 -1.7447
  886TIP3    H226854   2.756   2.566  19.516 -0.4098 -0.7660 -0.0742
  887TIP3   OH226855   3.821   3.788  19.692 -0.0188 -0.2740  0.3044
  887TIP3    H126856   3.732   3.756  19.674 -0.2116  1.2428 -1.6926
  887TIP3    H226857   3.839   3.851  19.623  3.5845 -2.2886 -0.9019
  888TIP3   OH226858   2.414   0.013  18.296 -0.2343  0.2949  0.4710
  888TIP3    H126859   2.449  -0.054  18.237 -0.1782  2.9302 -2.8419
  888TIP3    H226860   2.488   0.039  18.350  1.0762  0.8690 -1.4959
  889TIP3   OH226861   6.116   2.371  17.132  0.0695 -0.3516 -0.1268
  889TIP3    H126862   6.039   2.427  17.147 -0.6101 -0.9186 -1.2893
  889TIP3    H226863   6.147   2.397  17.045  0.1348 -1.3084 -0.4030
  890TIP3   OH226864   5.616   4.151  19.474  0.5038 -0.2865 -0.0627
  890TIP3    H126865   5.565   4.079  19.437 -1.3023  0.3660  1.0823
  890TIP3    H226866   5.633   4.125  19.564 -0.0159  0.6295  0.3125
  891TIP3   OH226867   2.576   5.751  18.915 -0.1498  0.1965  0.1207
  891TIP3    H126868   2.625   5.817  18.865  0.8513 -0.5610  0.0612
  891TIP3    H226869   2.528   5.702  18.848 -0.2548  0.3437  0.0871
  892TIP3   OH226870   6.700   4.907  19.036  0.0427 -0.0278 -0.1429
  892TIP3    H126871   6.777   4.853  19.056  0.1263 -0.0253 -0.4420
  892TIP3    H226872   6.632   4.874  19.094  0.3145  0.0798  0.2431
  893TIP3   OH226873   1.841   2.981  17.950 -0.0059 -0.4068  0.0795
  893TIP3    H126874   1.842   3.063  17.901 -2.1187  0.6105  1.6068
  893TIP3    H226875   1.825   2.914  17.884  1.0539  0.4470 -1.1037
  894TIP3   OH226876   0.767   7.542  18.172  0.1756  0.6456  0.6357
  894TIP3    H126877   0.822   7.529  18.095  1.1271  1.4032  1.1689
  894TIP3    H226878   0.720   7.458  18.182  0.9960  0.0938 -0.0080
  895TIP3   OH226879   4.254   6.316  19.890 -0.4755  0.3128  0.3747
  895TIP3    H126880   4.268   6.297  19.797 -2.4834  0.6878 -0.0502
  895TIP3    H226881   4.221   6.406  19.891 -0.9944  0.1209  1.3901
  896TIP3   OH226882   1.382   0.742  19.470  0.6178 -0.4347 -0.4243
  896TIP3    H126883   1.380   0.693  19.388 -0.1983  0.4000 -0.9266
  896TIP3    H226884   1.332   0.821  19.451  0.0123 -0.4499  1.0223
  897TIP3   OH226885   3.864   6.158  17.685  0.2276 -0.3524  0.4508
  897TIP3    H126886   3.844   6.211  17.762 -1.0302 -0.6110  0.3157
  897TIP3    H226887   3.942   6.200  17.647 -0.9998  1.7297  0.0663
  898TIP3   OH226888   4.940   5.944  18.053 -0.0191  0.1275 -0.0177
  898TIP3    H126889   4.957   5.888  17.977 -0.3573  1.5227 -1.1848
  898TIP3    H226890   5.026   5.965  18.087  0.3058  1.3895 -1.5068
  899TIP3   OH226891   4.322   4.873  17.878 -0.0194  0.2097 -0.7068
  899TIP3    H126892   4.324   4.872  17.973  2.0015  1.6720 -0.6507
  899TIP3    H226893   4.237   4.911  17.856 -0.6666 -0.4946  0.4752
  900TIP3   OH226894   6.806   6.428  18.837 -0.1234 -0.3460 -0.2767
  900TIP3    H126895   6.757   6.407  18.758  1.1059 -1.7790 -0.7196
  900TIP3    H226896   6.742   6.423  18.908 -0.8986 -0.7114 -0.9961
  901TIP3   OH226897   6.085   7.357  19.114  0.2192 -0.2847  0.6579
  901TIP3    H126898   5.992   7.342  19.130  0.3842 -0.8993  1.0564
  901TIP3    H226899   6.130   7.294  19.171  0.8698 -0.2790  0.1631
  902TIP3   OH226900   4.062   1.323  17.722  0.9772  0.4115  0.1112
  902TIP3    H126901   4.126   1.393  17.718  0.8859  0.5796  1.2849
  902TIP3    H226902   4.040   1.305  17.631  1.6493  1.3053 -0.2359
  903TIP3   OH226903   0.586   7.354  17.078  0.1453  0.1928  0.2802
  903TIP3    H126904   0.560   7.427  17.134  2.3475  3.1465 -2.1778
  903TIP3    H226905   0.532   7.363  17.000  1.5882  0.3472 -0.7521
  904TIP3   OH226906   7.667   1.977  18.624 -0.3751 -0.1937  0.4183
  904TIP3    H126907   7.620   2.037  18.682  0.7608  0.9835  0.1555
  904TIP3    H226908   7.701   1.910  18.682 -2.4394 -1.1662  0.6038
  905TIP3   OH226909   5.462   2.316  19.104 -0.6078 -0.3144 -0.3822
  905TIP3    H126910   5.402   2.382  19.071 -1.1994 -0.9685 -0.6570
  905TIP3    H226911   5.534   2.365  19.143 -0.5597  0.4764 -1.4403
  906TIP3   OH226912   5.919   4.430  18.814  0.2628  0.0157 -0.4244
  906TIP3    H126913   5.976   4.355  18.800 -1.0875 -1.4963  1.6234
  906TIP3    H226914   5.830   4.395  18.805 -0.4008  1.2730  0.8231
  907TIP3   OH226915   0.662   6.342  17.919 -0.2863  0.4940  0.1433
  907TIP3    H126916   0.695   6.257  17.947 -3.6773 -0.7488  0.8957
  907TIP3    H226917   0.728   6.375  17.859  2.0658 -1.7675  1.2806
  908TIP3   OH226918   6.330   6.462  17.560  0.1541 -0.0624 -0.0821
  908TIP3    H126919   6.312   6.399  17.630  1.6354 -2.5958 -1.8084
  908TIP3    H226920   6.244   6.496  17.536 -0.5868 -0.6804  1.5533
  909TIP3   OH226921   1.101   4.590  19.690  0.4770  0.5915  0.3797
  909TIP3    H126922   1.070   4.604  19.779 -1.5714  0.7246 -0.2896
  909TIP3    H226923   1.094   4.677  19.649  1.2611  0.5020  0.0508
  910TIP3   OH226924   3.944   5.189  19.398 -0.0424  0.7508  0.4291
  910TIP3    H126925   3.931   5.188  19.303  0.7312  0.3393  0.3194
  910TIP3    H226926   3.857   5.171  19.434 -0.1716  0.0095 -0.2260
  911TIP3   OH226927   5.956   4.948  19.287  0.8999  0.3043 -0.0693
  911TIP3    H126928   5.988   4.989  19.206 -1.7028  1.4689 -0.6242
  911TIP3    H226929   5.989   5.004  19.357 -0.5697  2.0382 -0.6763
  912TIP3   OH226930   1.679   6.542  18.060 -0.1398 -0.3547 -0.6792
  912TIP3    H126931   1.743   6.552  17.989  1.1593  0.6275  0.5878
  912TIP3    H226932   1.729   6.556  18.140 -1.7252 -0.7171  0.4184
  913TIP3   OH226933   7.090   2.655  19.042 -0.2294 -0.0038  0.4354
  913TIP3    H126934   7.063   2.564  19.055  0.7227 -0.8884 -2.7932
  913TIP3    H226935   7.012   2.699  19.009  0.0285 -0.4168 -0.7641
  914TIP3   OH226936   2.685   7.068  19.657 -0.1758 -0.5382 -0.4616
  914TIP3    H126937   2.693   7.054  19.562 -0.2102 -1.9156 -0.2884
  914TIP3    H226938   2.593   7.046  19.676 -0.7139  1.5983 -0.3736
  915TIP3   OH226939   0.128   6.280  18.095  0.0891 -0.2629 -0.7071
  915TIP3    H126940   0.148   6.255  18.185 -1.5173  2.1939  0.4376
  915TIP3    H226941   0.060   6.219  18.068 -0.3911 -0.1767  0.2593
  916TIP3   OH226942   2.791   3.594  19.335 -0.0081  0.0121 -0.1895
  916TIP3    H126943   2.845   3.570  19.259  0.1212 -1.1465  0.2463
  916TIP3    H226944   2.702   3.574  19.308 -0.2465  1.8174 -0.8660
  917TIP3   OH226945   2.636   7.567  17.825  0.2843 -0.4993  0.1485
  917TIP3    H126946   2.635   7.620  17.745 -0.6653 -1.8849 -0.8329
  917TIP3    H226947   2.720   7.585  17.866 -0.1091  1.9208  0.0119
  918TIP3   OH226948   1.028   0.312  17.304 -0.1525  0.0003  0.2581
  918TIP3    H126949   0.982   0.266  17.233  0.5694  0.4734 -0.5390
  918TIP3    H226950   1.105   0.351  17.261 -0.0185  0.7911  1.1928
  919TIP3   OH226951   0.317   2.464  19.045  0.0021  0.5866 -0.5786
  919TIP3    H126952   0.322   2.505  19.132  0.6827  0.3820 -0.5151
  919TIP3    H226953   0.405   2.474  19.009  0.2065 -0.8549 -0.5443
  920TIP3   OH226954   6.452   0.728  17.735  0.4818  0.0068 -0.0837
  920TIP3    H126955   6.497   0.807  17.703 -0.5505  0.3462 -0.7792
  920TIP3    H226956   6.362   0.739  17.704  0.1569 -1.1121  0.4374
  921TIP3   OH226957   7.026   2.589  17.833  0.2929  0.7215 -0.2258
  921TIP3    H126958   7.110   2.590  17.880  0.8504  0.7861 -1.1836
  921TIP3    H226959   7.000   2.497  17.832  0.1762  0.7457  0.3745
  922TIP3   OH226960   0.761   0.730  19.330 -0.4276  0.3140  0.2215
  922TIP3    H126961   0.854   0.712  19.317  0.4220  2.7698  2.0534
  922TIP3    H226962   0.721   0.644  19.340  1.4255 -0.8475 -1.6316
  923TIP3   OH226963   2.378   6.271  18.105 -0.2717  0.2744  0.2643
  923TIP3    H126964   2.300   6.283  18.159 -0.5396  0.1468 -0.0897
  923TIP3    H226965   2.371   6.338  18.037 -1.4201 -1.3242 -1.3117
  924TIP3   OH226966   4.693   4.789  18.030 -0.4521 -0.5171  0.1890
  924TIP3    H126967   4.711   4.757  18.118 -1.5434 -0.4777  0.4433
  924TIP3    H226968   4.767   4.846  18.009  1.4421 -2.9468 -0.1980
  925TIP3   OH226969   5.333   6.539  18.796 -0.0166  0.6201 -0.5940
  925TIP3    H126970   5.306   6.569  18.883  2.6968  1.7615 -0.0592
  925TIP3    H226971   5.346   6.620  18.746  0.2474  0.0321 -1.4892
  926TIP3   OH226972   4.754   1.849  18.165  0.3490  0.0430 -0.2899
  926TIP3    H126973   4.807   1.894  18.231 -1.2125  1.0909  0.3293
  926TIP3    H226974   4.758   1.905  18.088  1.4519 -0.7276 -0.8143
  927TIP3   OH226975   7.630   3.115  19.180 -0.4971 -0.3721 -0.1904
  927TIP3    H126976   7.577   3.077  19.250 -0.8929 -0.4465 -0.5238
  927TIP3    H226977   7.662   3.197  19.216 -1.6024  0.1280 -0.2880
  928TIP3   OH226978   7.500   3.167  17.979  0.3686  0.5494  0.2329
  928TIP3    H126979   7.451   3.204  18.053  1.0707  1.8419  0.0922
  928TIP3    H226980   7.444   3.182  17.903  0.0643  0.0975  0.3671
  929TIP3   OH226981   0.973   5.548  17.372  0.1237  0.4547  0.2040
  929TIP3    H126982   1.022   5.581  17.297 -0.1959 -0.2934 -0.3465
  929TIP3    H226983   1.007   5.460  17.387  0.2263  0.6215  0.9767
  930TIP3   OH226984   0.836   2.627  18.717 -0.1668 -0.2215  0.3030
  930TIP3    H126985   0.920   2.668  18.698  0.8998 -2.5458 -0.4509
  930TIP3    H226986   0.829   2.631  18.813  1.2954 -0.7904  0.4680
  931TIP3   OH226987   2.060   6.942  19.988 -0.1585  0.8215 -0.3468
  931TIP3    H126988   2.148   6.967  20.016 -0.2942 -0.0349  0.9508
  931TIP3    H226989   2.073   6.866  19.932 -0.1545 -1.4226  2.4457
  932TIP3   OH226990   2.427   0.792  19.083 -0.2879  0.2561  0.0542
  932TIP3    H126991   2.331   0.795  19.083 -0.5223 -3.2870 -0.5633
  932TIP3    H226992   2.450   0.740  19.160  0.9588 -0.7303 -0.9377
  933TIP3   OH226993   0.603   7.559  17.796 -0.0398 -0.3715  0.5302
  933TIP3    H126994   0.632   7.586  17.883 -0.2714  0.5178  0.3440
  933TIP3    H226995   0.563   7.638  17.758 -2.1753 -1.3545  0.5472
  934TIP3   OH226996   3.814   0.709  18.969 -0.5139  0.0055  0.0386
  934TIP3    H126997   3.825   0.617  18.993 -1.0201 -0.0862 -0.0778
  934TIP3    H226998   3.775   0.706  18.882  0.2550  0.3323 -0.3275
  935TIP3   OH226999   5.701   2.849  17.064 -0.8602  0.9825 -0.4656
  935TIP3    H127000   5.772   2.869  17.126 -0.7626 -0.7529  0.0374
  935TIP3    H227001   5.744   2.850  16.978  0.2381 -1.5383 -0.0636
  936TIP3   OH227002   5.355   5.624  18.663 -0.1256  0.0593  0.8101
  936TIP3    H127003   5.279   5.582  18.703 -0.6168  0.6655  0.5220
  936TIP3    H227004   5.322   5.706  18.629  0.2851 -0.4488 -0.8840
  937TIP3   OH227005   3.160   1.096  18.061  0.1498 -0.3435 -0.0941
  937TIP3    H127006   3.217   1.172  18.066  2.1543 -1.8081  0.1618
  937TIP3    H227007   3.146   1.083  17.967  0.3519 -0.0714 -0.1630
  938TIP3   OH227008   4.770   5.255  19.466 -0.1323  0.0491  0.4930
  938TIP3    H127009   4.827   5.223  19.396  2.8599  0.6340  2.5160
  938TIP3    H227010   4.696   5.195  19.465  0.7639 -1.1581 -1.8450
  939TIP3   OH227011   4.075   3.150  18.975 -0.1253  0.1249  0.5027
  939TIP3    H127012   4.002   3.199  19.012 -0.5445 -0.7656  0.8897
  939TIP3    H227013   4.075   3.174  18.882 -0.0134  1.2092  0.7698
  940TIP3   OH227014   5.469   0.829  19.126  0.0245 -0.3662 -0.0519
  940TIP3    H127015   5.561   0.808  19.112  0.1600 -0.1427  0.4964
  940TIP3    H227016   5.470   0.904  19.186 -0.4960 -0.0021 -0.4787
  941TIP3   OH227017   1.532   0.180  17.508 -0.2604  0.0444  0.0321
  941TIP3    H127018   1.479   0.109  17.545 -0.3316  1.5808  3.2218
  941TIP3    H227019   1.470   0.250  17.492  0.3078  0.7106  0.6575
  942TIP3   OH227020   2.064   5.029  18.569 -0.3450 -0.2987 -0.5525
  942TIP3    H127021   2.137   5.052  18.626 -0.3238 -0.0985 -0.6578
  942TIP3    H227022   2.069   5.092  18.497 -1.3411  0.4764  0.0459
  943TIP3   OH227023   1.782   2.497  17.814  0.8127 -0.6952  0.0227
  943TIP3    H127024   1.727   2.465  17.742  0.3314 -1.3078  0.6521
  943TIP3    H227025   1.862   2.445  17.808  0.3311 -1.5284  0.5893
  944TIP3   OH227026   1.925   0.581  19.069 -0.5840 -0.1644  0.2325
  944TIP3    H127027   1.846   0.544  19.110  1.3204 -1.4520  3.1061
  944TIP3    H227028   1.973   0.621  19.142  0.1627  3.1582 -1.8818
  945TIP3   OH227029   3.318   3.837  17.672 -0.1620  0.0915  0.4589
  945TIP3    H127030   3.279   3.752  17.689  0.6664 -0.4777 -0.3832
  945TIP3    H227031   3.247   3.900  17.686 -0.9250 -0.7751  0.5383
  946TIP3   OH227032   3.106   0.589  19.388 -0.1464 -0.3410  0.3537
  946TIP3    H127033   3.026   0.608  19.437  1.3269  1.8635  2.1350
  946TIP3    H227034   3.097   0.637  19.306 -0.2962  0.6893  0.9560
  947TIP3   OH227035   0.129   2.314  18.639  0.1537  0.0430  0.2280
  947TIP3    H127036   0.103   2.314  18.731 -0.0912  0.0485  0.1603
  947TIP3    H227037   0.200   2.250  18.633 -0.6706 -0.8910  0.1847
  948TIP3   OH227038   2.411   5.775  17.164 -0.0255  0.0408  0.0223
  948TIP3    H127039   2.461   5.703  17.127 -0.6224  0.1755 -1.1072
  948TIP3    H227040   2.332   5.734  17.199  0.0252  0.0486  0.1477
  949TIP3   OH227041   7.448   0.924  18.782 -0.1569 -0.6988  0.5451
  949TIP3    H127042   7.494   0.910  18.699  2.2053  0.8257  1.4896
  949TIP3    H227043   7.502   0.879  18.847 -0.4103  0.4726  1.6046
  950TIP3   OH227044   6.183   5.313  19.128 -0.1235 -0.3658 -0.3414
  950TIP3    H127045   6.137   5.246  19.078 -0.7725  1.3323 -2.1470
  950TIP3    H227046   6.131   5.392  19.115  0.3478  0.4399  2.0961
  951TIP3   OH227047   7.612   3.029  18.189 -0.2234  0.1589 -0.1586
  951TIP3    H127048   7.699   3.051  18.157 -0.4514  0.5430 -0.5221
  951TIP3    H227049   7.567   2.991  18.114  0.1099 -1.4568  0.4199
  952TIP3   OH227050   2.252   0.308  18.778  0.1173 -0.2069 -0.2979
  952TIP3    H127051   2.319   0.240  18.790  1.1886  0.6716 -1.0543
  952TIP3    H227052   2.277   0.378  18.838  0.0286  0.2307 -0.7613
  953TIP3   OH227053   1.680   2.723  18.767  0.0446 -0.1980  0.2141
  953TIP3    H127054   1.669   2.764  18.853 -0.7113 -0.8004  0.4215
  953TIP3    H227055   1.603   2.752  18.717 -0.1559 -0.8208  0.1503
  954TIP3   OH227056   6.436   0.100  17.230  0.2892  0.0265  0.6237
  954TIP3    H127057   6.341   0.094  17.236  0.2564  0.0097  0.1702
  954TIP3    H227058   6.463   0.019  17.188  0.7599 -1.1183  2.9663
  955TIP3   OH227059   4.816   3.102  18.429 -0.2625 -0.4125  0.8458
  955TIP3    H127060   4.840   3.051  18.351  0.7460  0.6963  0.3953
  955TIP3    H227061   4.879   3.074  18.495  1.4837  1.4832  0.0729
  956TIP3   OH227062   5.645   1.594  17.555 -0.0143  0.4867 -0.0791
  956TIP3    H127063   5.719   1.653  17.551  0.6277 -0.2936  0.0747
  956TIP3    H227064   5.568   1.650  17.544  0.6165  1.2326 -0.7290
  957TIP3   OH227065   1.385   1.502  18.181 -0.3644  0.1840  0.3682
  957TIP3    H127066   1.295   1.512  18.212  0.1292 -0.2005  2.0158
  957TIP3    H227067   1.411   1.415  18.211  0.8737  0.6812  0.8218
  958TIP3   OH227068   2.509   0.586  19.248  0.2058  0.0018 -0.5149
  958TIP3    H127069   2.514   0.623  19.336 -0.6131  1.5467 -1.0591
  958TIP3    H227070   2.540   0.496  19.257  1.6914  0.6175  1.0285
  959TIP3   OH227071   2.564   3.278  19.569  0.2305 -0.1494 -0.0933
  959TIP3    H127072   2.653   3.245  19.554  0.0921  0.3921 -2.6124
  959TIP3    H227073   2.575   3.346  19.635  1.6826 -0.1845 -0.2557
  960TIP3   OH227074   1.670   5.181  18.721  0.0673  0.8057 -0.1373
  960TIP3    H127075   1.669   5.275  18.702 -0.0790  1.1377  1.3555
  960TIP3    H227076   1.578   5.157  18.728  0.0779  1.1139  1.8085
  961TIP3   OH227077   6.449   1.381  17.569 -0.4085  0.0378 -0.0857
  961TIP3    H127078   6.386   1.433  17.519  0.9753  0.7069 -1.1938
  961TIP3    H227079   6.526   1.375  17.513  0.5793 -0.6643  1.2706
  962TIP3   OH227080   6.988   6.688  18.953 -0.3536 -0.1558 -0.1188
  962TIP3    H127081   6.962   6.764  18.901  1.8880  0.0573 -1.0702
  962TIP3    H227082   6.946   6.614  18.909  1.1295  0.0708 -2.0946
  963TIP3   OH227083   5.802   3.249  18.434 -0.3636  0.0720  0.0493
  963TIP3    H127084   5.827   3.218  18.521 -2.0264  2.8742  1.6827
  963TIP3    H227085   5.717   3.208  18.418 -0.9108  0.9697  0.6021
  964TIP3   OH227086   6.074   6.469  18.585 -0.2974  0.5589  0.1734
  964TIP3    H127087   6.072   6.506  18.496  1.0617 -1.6419 -0.8596
  964TIP3    H227088   5.984   6.442  18.602 -0.2053 -1.0876 -1.5547
  965TIP3   OH227089   6.677   1.430  19.653  0.3567 -0.4475 -0.2197
  965TIP3    H127090   6.651   1.505  19.598 -1.6685 -2.6896 -2.6089
  965TIP3    H227091   6.760   1.400  19.615  0.4695 -0.2390 -0.1401
  966TIP3   OH227092   1.476   1.500  18.532 -0.6324 -0.5242  0.5735
  966TIP3    H127093   1.481   1.427  18.470 -1.1788 -1.2974  1.4076
  966TIP3    H227094   1.418   1.468  18.602 -1.0627  0.7966  0.8514
  967TIP3   OH227095   3.841   5.050  18.631 -0.3358 -0.3403 -0.6328
  967TIP3    H127096   3.771   4.997  18.670 -0.6540 -0.2761 -1.1165
  967TIP3    H227097   3.868   5.001  18.554  1.8744 -1.6571  0.8557
  968TIP3   OH227098   0.955   6.879  19.874 -0.7208  0.2995 -0.1436
  968TIP3    H127099   0.862   6.877  19.895 -0.5799  0.2685  0.4817
  968TIP3    H227100   0.984   6.789  19.886  0.1184  0.8768  3.0545
  969TIP3   OH227101   5.819   2.871  18.512  0.4837  0.0560 -0.3781
  969TIP3    H127102   5.831   2.839  18.602  0.9825 -0.3257 -0.5773
  969TIP3    H227103   5.841   2.796  18.457 -1.6175 -0.2972 -0.8076
  970TIP3   OH227104   3.421   2.110  17.653 -0.4389 -0.0481  0.0581
  970TIP3    H127105   3.329   2.134  17.658 -0.4490 -0.2927  1.1641
  970TIP3    H227106   3.451   2.108  17.744  0.5152 -0.5029 -0.2502
  971TIP3   OH227107   3.380   1.480  19.224  0.4664 -0.2658  0.4505
  971TIP3    H127108   3.310   1.523  19.174  0.7960 -0.3230 -0.0651
  971TIP3    H227109   3.430   1.552  19.262  1.5667 -0.1395 -1.1602
  972TIP3   OH227110   6.289   6.336  18.324 -0.4151  0.3852 -0.3509
  972TIP3    H127111   6.206   6.349  18.371 -1.1272 -0.4220 -1.3451
  972TIP3    H227112   6.349   6.301  18.390 -1.2489 -0.2335  0.0899
  973TIP3   OH227113   5.407   7.433  17.461  0.2198 -0.2825 -0.4168
  973TIP3    H127114   5.346   7.506  17.457 -0.4998 -0.7903  0.7969
  973TIP3    H227115   5.493   7.474  17.455 -0.2041  0.4317 -2.2768
  974TIP3   OH227116   5.423   3.670  17.722 -0.1170 -0.2426  0.2940
  974TIP3    H127117   5.417   3.736  17.791 -0.8111  0.4883 -0.4410
  974TIP3    H227118   5.332   3.654  17.696  0.1953  0.6688 -1.5137
  975TIP3   OH227119   1.578   2.024  18.467 -0.1441  0.4029  0.1074
  975TIP3    H127120   1.655   1.967  18.464 -0.3964  0.0782 -0.3218
  975TIP3    H227121   1.563   2.040  18.560 -0.8114 -1.2467  0.3214
  976TIP3   OH227122   0.998   4.937  18.911 -0.3539 -0.2036 -0.0299
  976TIP3    H127123   1.005   4.981  18.996  0.8458  0.9463 -0.6935
  976TIP3    H227124   1.024   5.003  18.848 -2.3867 -0.6410 -1.4432
  977TIP3   OH227125   7.551   0.384  18.882 -0.1112 -0.0630 -0.5380
  977TIP3    H127126   7.570   0.425  18.797 -0.0711 -0.6976 -0.8359
  977TIP3    H227127   7.620   0.320  18.894  0.3242  0.5498  0.3426
  978TIP3   OH227128   4.016   1.558  17.300  0.5328 -0.2782 -0.5669
  978TIP3    H127129   4.018   1.621  17.228  0.8081 -1.1077 -1.3109
  978TIP3    H227130   3.924   1.538  17.312  0.3439  1.1103  0.4490
  979TIP3   OH227131   5.532   2.943  18.685  0.1047  0.3009 -0.0925
  979TIP3    H127132   5.543   3.011  18.619  1.4976 -0.1842 -0.4093
  979TIP3    H227133   5.608   2.952  18.742  1.0009 -1.7281 -0.8646
  980TIP3   OH227134   5.030   7.202  17.816  0.5173 -0.0685  0.1885
  980TIP3    H127135   5.119   7.235  17.805  0.1227  0.6731 -0.8881
  980TIP3    H227136   4.990   7.211  17.730 -1.0036  0.8217  0.9623
  981TIP3   OH227137   7.017   3.271  17.206  0.3175 -0.0374  0.4064
  981TIP3    H127138   7.108   3.278  17.235  1.5304  0.3906 -2.9866
  981TIP3    H227139   6.995   3.358  17.175 -0.8313 -0.4136  0.1112
  982TIP3   OH227140   4.093   2.048  19.247 -0.1483 -0.0980  0.1245
  982TIP3    H127141   4.093   2.080  19.337 -0.6006  1.5011 -0.4240
  982TIP3    H227142   4.156   1.975  19.247 -1.5635 -1.4051  2.1492
  983TIP3   OH227143   0.996   0.275  18.017 -0.0737  0.3717 -0.3465
  983TIP3    H127144   0.981   0.350  18.073  1.2110 -0.4195  1.1441
  983TIP3    H227145   1.091   0.262  18.019 -0.2040 -0.8710 -1.1041
  984TIP3   OH227146   2.269   3.630  19.492  0.5992  0.0648 -0.2332
  984TIP3    H127147   2.316   3.608  19.573 -0.4486 -0.1851  0.3226
  984TIP3    H227148   2.234   3.718  19.508 -1.2543 -0.7382  0.3889
  985TIP3   OH227149   1.560   2.147  18.240 -0.1831 -0.2864 -0.3870
  985TIP3    H127150   1.562   2.112  18.329  0.9587 -0.2060 -0.3579
  985TIP3    H227151   1.617   2.088  18.191  1.2979  1.1477 -0.4664
  986TIP3   OH227152   0.236   1.045  16.941 -0.2369 -0.5541 -0.2592
  986TIP3    H127153   0.187   1.119  16.976 -0.1724 -0.1777 -0.9352
  986TIP3    H227154   0.328   1.074  16.943 -0.3863  0.2673 -2.5052
  987TIP3   OH227155   6.148   5.246  17.278 -0.2616 -0.4032 -0.1765
  987TIP3    H127156   6.124   5.177  17.341  1.1183 -1.4141 -0.6958
  987TIP3    H227157   6.228   5.213  17.237 -0.1197  1.0876 -1.1529
  988TIP3   OH227158   3.642   0.228  19.194  0.3349 -0.0748 -0.3068
  988TIP3    H127159   3.696   0.232  19.115 -0.0611  1.3421 -0.5370
  988TIP3    H227160   3.552   0.236  19.163  0.0418 -1.4432  0.1494
  989TIP3   OH227161   2.048   4.766  18.750 -0.1545 -0.1702 -0.4546
  989TIP3    H127162   1.992   4.832  18.709  0.2139 -0.5100 -1.5568
  989TIP3    H227163   2.039   4.781  18.844 -0.8233  0.8196 -0.6627
  990TIP3   OH227164   4.951   2.492  18.973  0.6090 -0.1177 -0.4837
  990TIP3    H127165   4.944   2.586  18.959 -2.0614 -0.2445 -0.5331
  990TIP3    H227166   4.908   2.477  19.057 -1.2037 -1.4872 -1.5709
  991TIP3   OH227167   5.725   1.633  19.052  0.1241  0.2716 -0.5944
  991TIP3    H127168   5.747   1.543  19.076 -1.0498  0.0643 -0.2492
  991TIP3    H227169   5.693   1.626  18.962 -0.2499  0.2916 -0.4648
  992TIP3   OH227170   1.367   3.077  19.511 -0.0435  0.3254 -0.0412
  992TIP3    H127171   1.433   3.030  19.562 -0.8393  0.0661  0.7859
  992TIP3    H227172   1.292   3.083  19.570 -1.0295 -0.0550 -1.2290
  993TIP3   OH227173   1.545   6.114  18.310  0.6366 -0.0209 -0.1882
  993TIP3    H127174   1.464   6.063  18.314  0.7105 -0.1142  0.1080
  993TIP3    H227175   1.518   6.204  18.327  0.2488  0.3270 -2.3595
  994TIP3   OH227176   7.543   7.091  18.065  0.4064 -0.5630  0.1861
  994TIP3    H127177   7.481   7.019  18.078 -0.2657 -0.6927 -3.0851
  994TIP3    H227178   7.492   7.161  18.027  1.7139  0.4781  0.2703
  995TIP3   OH227179   6.071   2.453  17.416 -0.4967  0.0066 -0.2336
  995TIP3    H127180   6.072   2.460  17.511 -0.9582  0.0593 -0.2322
  995TIP3    H227181   6.035   2.536  17.386  0.2559  0.2480 -0.4854
  996TIP3   OH227182   0.874   6.890  17.886  0.1401 -0.2540  0.0827
  996TIP3    H127183   0.917   6.932  17.812 -0.1169 -0.7020 -0.3248
  996TIP3    H227184   0.801   6.842  17.848 -0.1518 -0.2814  0.6564
  997TIP3   OH227185   2.865   3.222  20.096 -0.5025 -0.2381  0.1966
  997TIP3    H127186   2.903   3.144  20.056  3.2994  1.4114  0.2057
  997TIP3    H227187   2.773   3.219  20.070 -0.0139 -3.4760 -1.7446
  998TIP3   OH227188   7.089   2.394  19.115 -0.2757 -0.0665 -0.2239
  998TIP3    H127189   7.159   2.445  19.156 -0.2703  0.7447 -1.2061
  998TIP3    H227190   7.017   2.396  19.178 -0.2934  1.2247 -0.2608
  999TIP3   OH227191   0.675   0.462  17.580 -0.6574 -0.2289  1.0219
  999TIP3    H127192   0.733   0.481  17.506 -2.6770 -0.1832 -0.6159
  999TIP3    H227193   0.723   0.494  17.656  0.3786  2.2149 -0.5470
 1000TIP3   OH227194   3.142   2.858  19.808 -0.5445 -1.1042  0.2308
 1000TIP3    H127195   3.086   2.854  19.885 -1.0900 -0.1011 -0.0915
 1000TIP3    H227196   3.231   2.854  19.842 -0.7575  0.1415  0.9863
 1001TIP3   OH227197   7.460   5.282  18.662 -0.3168 -0.1199  0.0598
 1001TIP3    H127198   7.379   5.237  18.638 -0.7115 -1.5889  3.5255
 1001TIP3    H227199   7.528   5.214  18.654  0.1067  0.3244 -0.1537
 1002TIP3   OH227200   0.962   3.324  18.133  0.0426 -0.3135 -0.1290
 1002TIP3    H127201   0.984   3.285  18.049  0.7937  0.1595 -0.1615
 1002TIP3    H227202   1.046   3.331  18.179 -0.1652  0.6343  0.1331
 1003TIP3   OH227203   7.487   6.148  17.853 -0.0812  0.5100  0.8740
 1003TIP3    H127204   7.417   6.157  17.918 -1.0421  1.2577 -0.2452
 1003TIP3    H227205   7.451   6.090  17.787  0.2085  1.1781  0.1144
 1004TIP3   OH227206   0.552   5.685  19.437  0.1798 -0.2190  0.2841
 1004TIP3    H127207   0.487   5.615  19.445  0.9767 -1.0223 -0.1759
 1004TIP3    H227208   0.585   5.677  19.348  1.1142  0.0040  0.6054
 1005TIP3   OH227209   6.762   4.259  17.483  0.6081 -0.5361  0.0917
 1005TIP3    H127210   6.787   4.168  17.468  0.0126 -0.7752  0.5326
 1005TIP3    H227211   6.844   4.308  17.472  0.8680 -1.0801 -0.4697
 1006TIP3   OH227212   7.675   1.347  18.105 -0.0376 -0.2867 -0.2487
 1006TIP3    H127213   7.650   1.341  18.013 -2.4026  0.0928  0.2912
 1006TIP3    H227214   7.639   1.431  18.134 -1.6970 -1.5596  1.6146
 1007TIP3   OH227215   4.241   1.790  17.339  0.3938 -0.4353 -0.0732
 1007TIP3    H127216   4.182   1.860  17.311  0.9168 -0.3034 -0.8928
 1007TIP3    H227217   4.240   1.727  17.266  1.0122 -0.5819  0.0335
 1008TIP3   OH227218   7.258   3.713  19.597  0.2329  0.6334  0.7726
 1008TIP3    H127219   7.193   3.767  19.643  0.5386 -0.0106  2.0061
 1008TIP3    H227220   7.206   3.663  19.534 -0.4408  0.4182  1.4682
 1009TIP3   OH227221   6.255   4.367  19.005 -0.8133 -0.4146 -0.3687
 1009TIP3    H127222   6.348   4.371  19.025 -0.6618 -1.9339 -0.6746
 1009TIP3    H227223   6.241   4.435  18.939 -0.0261  0.1453  0.0286
 1010TIP3   OH227224   1.695   1.645  19.712  0.0835  0.0073 -0.4291
 1010TIP3    H127225   1.621   1.603  19.756  0.6311 -2.8084 -1.9477
 1010TIP3    H227226   1.658   1.724  19.674 -1.7242 -0.4190  0.3286
 1011TIP3   OH227227   1.531   4.265  17.667 -0.2364 -0.4843  0.3803
 1011TIP3    H127228   1.495   4.313  17.592 -0.1852 -2.7525 -1.2265
 1011TIP3    H227229   1.577   4.191  17.627  1.3450 -0.8120  2.6272
 1012TIP3   OH227230   0.707   6.859  19.129  0.3369  0.1416  0.1285
 1012TIP3    H127231   0.659   6.811  19.062  0.8762 -0.2328  0.0134
 1012TIP3    H227232   0.773   6.798  19.161  0.6689  0.6164  0.3669
 1013TIP3   OH227233   2.460   1.441  19.712 -0.2486 -0.5404  0.0940
 1013TIP3    H127234   2.497   1.396  19.788  0.7450 -0.0520 -0.0851
 1013TIP3    H227235   2.496   1.395  19.637 -0.1058 -0.1411 -0.0833
 1014TIP3   OH227236   0.041   0.548  18.553 -0.3974  0.2335 -0.1274
 1014TIP3    H127237  -0.039   0.505  18.583 -0.8986  1.8538  0.9969
 1014TIP3    H227238   0.095   0.477  18.518 -2.2133 -0.9316 -0.7088
 1015TIP3   OH227239   3.499   6.329  18.055  0.1932  0.1656  0.1128
 1015TIP3    H127240   3.423   6.273  18.071  0.2636  0.0471  0.0401
 1015TIP3    H227241   3.541   6.337  18.141 -1.4483  2.5508  0.7667
 1016TIP3   OH227242   0.802   6.108  17.971 -0.1561 -0.2023  0.4115
 1016TIP3    H127243   0.863   6.088  17.900 -0.2300  0.2328  0.2254
 1016TIP3    H227244   0.850   6.088  18.051  0.3042  0.3371  0.2728
 1017TIP3   OH227245   2.102   1.706  18.658 -0.1017  0.0837 -0.5801
 1017TIP3    H127246   2.095   1.691  18.753  0.7905  0.7491 -0.3993
 1017TIP3    H227247   2.164   1.779  18.650  0.6053 -0.6231 -1.7166
 1018TIP3   OH227248   1.613   0.454  18.449  0.4323  0.1885 -0.1009
 1018TIP3    H127249   1.522   0.424  18.457 -0.5382  2.6119 -1.1316
 1018TIP3    H227250   1.651   0.396  18.382  0.0327 -1.5677  1.1220
 1019TIP3   OH227251   1.901   2.666  19.109  0.8479  0.2703  0.8810
 1019TIP3    H127252   1.922   2.693  19.198  3.1910  0.1741  0.4177
 1019TIP3    H227253   1.877   2.573  19.117  0.5846  0.3898  1.4701
 1020TIP3   OH227254   5.328   3.901  19.472  0.1825 -0.1530 -0.2239
 1020TIP3    H127255   5.339   3.830  19.536  1.4669  0.7845  0.6496
 1020TIP3    H227256   5.283   3.970  19.521 -0.3697 -0.0658 -0.8451
 1021TIP3   OH227257   1.446   1.853  19.533 -0.0795  0.4894 -0.3656
 1021TIP3    H127258   1.529   1.852  19.486 -0.4048 -0.9216 -0.9569
 1021TIP3    H227259   1.398   1.927  19.495  1.2098  1.8984  0.6072
 1022TIP3   OH227260   2.461   2.806  17.760  0.2936  0.1106 -0.0067
 1022TIP3    H127261   2.526   2.864  17.721 -0.5167  0.5112 -0.7970
 1022TIP3    H227262   2.459   2.730  17.703 -0.9941  0.7569 -0.8779
 1023TIP3   OH227263   6.210   5.121  17.823  0.0596  0.2584  0.4630
 1023TIP3    H127264   6.252   5.178  17.758  2.2002 -0.1911  1.3575
 1023TIP3    H227265   6.184   5.043  17.773  3.3473 -0.9099  0.2762
 1024TIP3   OH227266   4.806   6.304  18.397 -0.4958  0.3346 -0.1134
 1024TIP3    H127267   4.769   6.374  18.451 -1.1935  0.3345 -0.5660
 1024TIP3    H227268   4.771   6.321  18.310  0.0228 -0.0881 -0.4067
 1025TIP3   OH227269   6.630   3.072  19.915  0.6018 -0.1248 -0.4042
 1025TIP3    H127270   6.586   3.155  19.935 -0.4452 -1.1836  2.1907
 1025TIP3    H227271   6.559   3.012  19.894  1.1297 -0.9023 -0.0138
 1026TIP3   OH227272   4.142   0.222  18.850  0.3079  0.1149 -0.0525
 1026TIP3    H127273   4.151   0.307  18.892  0.3560  0.7722 -1.3379
 1026TIP3    H227274   4.225   0.177  18.869  1.8867  1.7933 -2.3793
 1027TIP3   OH227275   7.679   6.024  18.020  0.3656 -0.3674 -0.7565
 1027TIP3    H127276   7.628   5.951  18.054  0.4825 -0.4682 -0.7945
 1027TIP3    H227277   7.616   6.077  17.971  0.4768 -1.0086 -1.6288
 1028TIP3   OH227278   1.810   6.220  18.350  0.7410 -0.3659  0.3542
 1028TIP3    H127279   1.726   6.265  18.345  1.2914  0.5579 -1.6262
 1028TIP3    H227280   1.788   6.127  18.355 -0.4070 -0.0255  3.4476
 1029TIP3   OH227281   6.643   1.871  19.576 -0.0351  0.2267  0.0920
 1029TIP3    H127282   6.683   1.837  19.496 -0.8239 -1.7757  0.4740
 1029TIP3    H227283   6.584   1.941  19.547  0.2350  0.0108 -0.9938
 1030TIP3   OH227284   6.084   7.600  19.673  0.1860  0.5499  0.3009
 1030TIP3    H127285   6.133   7.551  19.739 -1.1096 -2.7158 -0.9539
 1030TIP3    H227286   6.039   7.669  19.723  1.9937  0.4303  2.2225
 1031TIP3   OH227287   3.235   0.088  18.743 -0.2833 -0.0527 -0.7508
 1031TIP3    H127288   3.266   0.130  18.823 -1.7395 -1.3688  0.5795
 1031TIP3    H227289   3.159   0.139  18.717  0.7253  0.9384 -1.8897
 1032TIP3   OH227290   2.549   1.587  18.856 -0.3448  0.5745 -0.4534
 1032TIP3    H127291   2.503   1.564  18.775 -0.3935  1.6275 -0.7418
 1032TIP3    H227292   2.634   1.543  18.848 -0.0202  1.3417 -1.4859
 1033TIP3   OH227293   5.650   2.636  18.070  0.5673 -0.0524 -0.1539
 1033TIP3    H127294   5.725   2.692  18.092  0.8383 -0.8361  1.0156
 1033TIP3    H227295   5.616   2.672  17.988  0.6661  1.8804  0.6180
 1034TIP3   OH227296   5.923   4.550  18.343  0.0677 -0.1932  0.2414
 1034TIP3    H127297   5.937   4.621  18.281  0.6187  0.6881  1.3472
 1034TIP3    H227298   5.943   4.588  18.429 -0.3786 -1.4627  0.9356
 1035TIP3   OH227299   1.371   7.180  18.168 -0.3469 -0.1841  0.1258
 1035TIP3    H127300   1.365   7.200  18.261 -0.7982 -1.0591  0.2928
 1035TIP3    H227301   1.448   7.228  18.138 -0.2485  0.1699  0.9268
 1036TIP3   OH227302   5.794   1.309  17.202 -0.8529 -0.1271  0.2735
 1036TIP3    H127303   5.861   1.249  17.170  1.8408  2.6161  0.4108
 1036TIP3    H227304   5.767   1.359  17.125 -1.7459 -0.2301  0.5011
 1037TIP3   OH227305   3.029   3.264  18.887  0.3742  0.2211  0.2158
 1037TIP3    H127306   3.090   3.213  18.834  1.3620 -0.0723  1.5677
 1037TIP3    H227307   3.065   3.353  18.886 -1.0287  0.8295 -1.6628
 1038TIP3   OH227308   3.479   5.185  17.114 -0.0510  0.4451 -0.1813
 1038TIP3    H127309   3.401   5.129  17.108 -1.0523  1.6461  0.9878
 1038TIP3    H227310   3.509   5.173  17.204  0.4302  0.8691 -0.2842
 1039TIP3   OH227311   6.905   0.337  19.501 -0.1326  0.1486 -0.1948
 1039TIP3    H127312   6.901   0.255  19.550 -0.0903 -0.8005 -1.7255
 1039TIP3    H227313   6.815   0.367  19.494 -0.0745  0.7022  1.0669
 1040TIP3   OH227314   0.254   4.677  17.042 -0.1305 -0.7066 -0.1346
 1040TIP3    H127315   0.347   4.700  17.035 -0.4287  0.2376 -1.3609
 1040TIP3    H227316   0.253   4.581  17.036  0.7188 -0.6847 -0.9075
 1041TIP3   OH227317   5.035   7.121  18.803  0.2986 -0.4308  0.2950
 1041TIP3    H127318   5.088   7.193  18.836 -1.0763  2.4140 -3.0921
 1041TIP3    H227319   4.952   7.129  18.849  0.0563  0.3988 -0.2634
 1042TIP3   OH227320   4.910   2.121  18.645  0.1874  0.3698  0.0761
 1042TIP3    H127321   4.904   2.144  18.738 -0.3628 -0.3454  0.2181
 1042TIP3    H227322   4.881   2.030  18.640  0.4829  0.3102 -0.7611
 1043TIP3   OH227323   0.606   3.371  18.445  0.0672 -0.9017  0.1498
 1043TIP3    H127324   0.591   3.314  18.521  0.0805 -0.8873  0.1638
 1043TIP3    H227325   0.618   3.311  18.372  4.3536 -1.1556  0.8334
 1044TIP3   OH227326   2.160   5.605  18.491  0.3248 -0.0924 -0.5790
 1044TIP3    H127327   2.169   5.592  18.396  1.6649  1.8388 -0.7743
 1044TIP3    H227328   2.223   5.545  18.529  0.7835  0.1164 -0.9954
 1045TIP3   OH227329   6.199   6.316  17.357  0.0034 -0.0952  0.0691
 1045TIP3    H127330   6.288   6.288  17.337  0.1846 -0.5579  1.4697
 1045TIP3    H227331   6.187   6.397  17.306  0.1835 -1.5286 -2.4011
 1046TIP3   OH227332   0.489   4.022  18.713 -0.0845 -0.2540 -0.3467
 1046TIP3    H127333   0.404   4.021  18.669  0.1224  2.5087 -0.9793
 1046TIP3    H227334   0.488   4.102  18.766  2.1278 -0.1455 -0.3716
 1047TIP3   OH227335   1.943   2.211  19.671 -0.7090  0.5429 -0.1053
 1047TIP3    H127336   1.851   2.224  19.696 -0.5069  1.3799  0.2199
 1047TIP3    H227337   1.992   2.269  19.729  0.0221  0.1637 -0.3383
 1048TIP3   OH227338   4.139   2.306  19.879  0.5627  0.4651 -0.4823
 1048TIP3    H127339   4.094   2.226  19.906 -0.0310  0.9151 -0.0941
 1048TIP3    H227340   4.229   2.295  19.910 -0.3609  1.5183  3.0865
 1049TIP3   OH227341   5.490   4.439  19.502  0.0454  0.1869 -0.0746
 1049TIP3    H127342   5.516   4.348  19.489 -0.0775 -0.0363  1.2113
 1049TIP3    H227343   5.569   4.489  19.479  0.4241 -0.2969  0.1509
 1050TIP3   OH227344   3.826   1.652  19.479  0.2978 -0.3163 -0.2376
 1050TIP3    H127345   3.887   1.685  19.413 -1.0844  1.2759 -0.7825
 1050TIP3    H227346   3.836   1.712  19.553  1.7483 -2.0197  1.0395
 1051TIP3   OH227347   0.456   6.331  18.622  0.0143  0.0339 -0.5571
 1051TIP3    H127348   0.485   6.378  18.544 -2.8189  0.9970 -1.1714
 1051TIP3    H227349   0.474   6.239  18.603 -0.5793  0.2516 -2.3730
 1052TIP3   OH227350   1.241   3.487  19.329 -0.0371 -0.7365 -0.0159
 1052TIP3    H127351   1.228   3.505  19.236  0.0885 -2.9863 -0.5273
 1052TIP3    H227352   1.282   3.566  19.363  0.3454 -0.0313 -1.9702
 1053TIP3   OH227353   6.412   6.594  17.831 -0.5430  0.0395  0.4728
 1053TIP3    H127354   6.429   6.500  17.831 -0.8391 -0.0311 -0.8127
 1053TIP3    H227355   6.325   6.603  17.869 -0.7830 -0.2713  0.0080
 1054TIP3   OH227356   6.091   0.379  17.776  0.4239  0.0936  0.4986
 1054TIP3    H127357   6.134   0.437  17.840  1.2519 -0.5131  0.5119
 1054TIP3    H227358   6.089   0.430  17.695  1.7308 -0.0642  0.3414
 1055TIP3   OH227359   4.195   5.637  18.504 -0.4757 -0.1696 -0.1148
 1055TIP3    H127360   4.116   5.598  18.542  0.1180  0.8521  2.3270
 1055TIP3    H227361   4.181   5.731  18.512  1.2032  0.0198  0.8751
 1056TIP3   OH227362   7.676   0.704  19.109  0.4976  0.3157  0.3615
 1056TIP3    H127363   7.741   0.639  19.136 -0.4575 -1.1542 -0.7190
 1056TIP3    H227364   7.715   0.747  19.034  0.0087 -1.0153 -0.6917
 1057TIP3   OH227365   1.471   0.878  19.105  0.4441 -0.3602  0.0939
 1057TIP3    H127366   1.471   0.806  19.169 -0.8550  0.5853  1.2100
 1057TIP3    H227367   1.381   0.879  19.071 -0.0107  1.6731  1.2250
 1058TIP3   OH227368   0.103   4.950  17.635  0.2321 -0.3653 -0.3684
 1058TIP3    H127369   0.088   4.935  17.728  2.7610 -0.2926  0.1229
 1058TIP3    H227370   0.062   4.875  17.592  1.1143 -1.6823  1.0013
 1059TIP3   OH227371   5.311   2.622  19.238 -0.3843  0.0141  0.0146
 1059TIP3    H127372   5.314   2.717  19.228 -0.7559  0.0078 -0.1752
 1059TIP3    H227373   5.260   2.591  19.163  1.0685 -0.4825 -0.8030
 1060TIP3   OH227374   1.427   7.600  18.851  0.6549 -0.7294 -0.1491
 1060TIP3    H127375   1.494   7.658  18.887  1.9896 -1.5203 -1.3049
 1060TIP3    H227376   1.362   7.593  18.921  1.6026  0.3143  0.8754
 1061TIP3   OH227377   3.899   5.209  19.120 -1.2380  0.0859  0.0212
 1061TIP3    H127378   3.983   5.248  19.098 -1.2119  0.2130  0.3465
 1061TIP3    H227379   3.876   5.156  19.043  0.0578 -1.5081  0.6732
 1062TIP3   OH227380   6.937   2.337  17.928 -0.0277 -0.0933  0.7307
 1062TIP3    H127381   6.980   2.285  17.996  0.5484 -0.2847  0.2287
 1062TIP3    H227382   6.878   2.395  17.976 -1.3345 -1.7817  1.2607
 1063TIP3   OH227383   1.485   4.905  18.063 -0.0442  0.0165  0.1831
 1063TIP3    H127384   1.421   4.874  17.999 -0.8692  1.2353  0.3954
 1063TIP3    H227385   1.536   4.971  18.016  1.0787 -0.9321  0.0179
 1064TIP3   OH227386   1.011   4.426  17.296 -0.6197 -0.2817 -0.1751
 1064TIP3    H127387   0.996   4.358  17.362  0.1232 -1.7221 -1.4176
 1064TIP3    H227388   0.933   4.425  17.241 -0.9944  0.5255  0.3187
 1065TIP3   OH227389   2.912   4.007  18.302 -0.1388  0.8101  0.0482
 1065TIP3    H127390   2.845   4.069  18.275 -1.4335 -1.1437 -1.4810
 1065TIP3    H227391   2.907   3.936  18.238  0.3422 -1.5292  2.4176
 1066TIP3   OH227392   4.270   4.205  18.359  0.3357 -0.1515 -0.4428
 1066TIP3    H127393   4.179   4.230  18.379  0.4583  0.5660 -0.7557
 1066TIP3    H227394   4.305   4.279  18.310  0.5993 -1.1151 -1.7447
 1067TIP3   OH227395   4.546   3.785  16.571 -0.1951  0.1024 -0.1125
 1067TIP3    H127396   4.536   3.878  16.591  0.3190 -0.0859  1.0859
 1067TIP3    H227397   4.485   3.741  16.630  1.0761 -0.4401  0.8394
 1068TIP3   OH227398   6.748   4.618  18.615  0.5282 -0.0551  0.7146
 1068TIP3    H127399   6.827   4.601  18.563  1.8134  0.2357  2.4585
 1068TIP3    H227400   6.741   4.714  18.617 -0.5196 -0.0915 -0.3153
 1069TIP3   OH227401   7.465   2.820  18.068 -0.1919 -0.3382  0.2871
 1069TIP3    H127402   7.468   2.849  18.159 -0.7280  1.6897 -0.2914
 1069TIP3    H227403   7.549   2.777  18.054 -0.7850 -2.2806  2.1902
 1070TIP3   OH227404   1.663   6.833  20.019 -0.2214 -0.2886  0.1262
 1070TIP3    H127405   1.754   6.812  20.038 -0.5085  0.2320  2.3805
 1070TIP3    H227406   1.663   6.926  19.996 -0.0221 -0.6403 -1.3685
 1071TIP3   OH227407   4.120   5.322  19.001  0.2093  0.1054 -0.0384
 1071TIP3    H127408   4.075   5.347  18.920 -1.9463  2.0853  1.6321
 1071TIP3    H227409   4.208   5.359  18.991  0.6080 -1.2444 -2.1489
 1072TIP3   OH227410   6.508   1.827  17.288 -0.3927  0.4855  0.6510
 1072TIP3    H127411   6.465   1.870  17.215  0.0976  1.4717  0.9200
 1072TIP3    H227412   6.601   1.848  17.277  0.0661 -1.6439  0.0419
 1073TIP3   OH227413   1.371   2.007  19.245  0.6223  0.2784  0.1037
 1073TIP3    H127414   1.347   2.060  19.321  1.5282 -0.3750  0.8639
 1073TIP3    H227415   1.454   2.043  19.215  0.9496 -0.3222  0.2659
 1074TIP3   OH227416   0.630   2.725  18.571 -0.4017  0.0337 -0.1381
 1074TIP3    H127417   0.702   2.701  18.630 -0.7983  0.3189  0.4730
 1074TIP3    H227418   0.554   2.677  18.604 -0.7308  0.5419 -0.1402
 1075TIP3   OH227419   4.217   2.100  18.242  0.6408 -0.2134 -0.0520
 1075TIP3    H127420   4.270   2.023  18.221 -1.4097 -1.1755 -2.2285
 1075TIP3    H227421   4.139   2.064  18.286  0.5571  0.8555  0.7191
 1076TIP3   OH227422   4.044   6.160  18.952 -0.2733  0.2850 -1.0098
 1076TIP3    H127423   4.076   6.122  19.034 -1.4200 -1.4369 -1.3169
 1076TIP3    H227424   4.123   6.175  18.900  0.3778  0.4580 -0.0044
 1077TIP3   OH227425   6.398   1.952  17.078 -0.0864 -0.4782  0.0174
 1077TIP3    H127426   6.332   2.020  17.068  1.5844  1.4286  1.1625
 1077TIP3    H227427   6.427   1.933  16.988  0.5352  1.5445 -0.2630
 1078TIP3   OH227428   6.977   4.694  18.775 -0.1335 -0.2493 -0.2531
 1078TIP3    H127429   7.002   4.663  18.688 -3.0301 -0.9648 -0.9229
 1078TIP3    H227430   6.959   4.787  18.764 -1.1407 -0.4792 -0.5904
 1079TIP3   OH227431   5.403   3.444  18.594  0.2895  0.3224  0.2425
 1079TIP3    H127432   5.470   3.504  18.562  0.7685  0.1401  0.8859
 1079TIP3    H227433   5.401   3.374  18.529 -0.1525  0.9389 -0.4192
 1080TIP3   OH227434   5.038   0.857  18.593 -0.3294  0.2414  0.5960
 1080TIP3    H127435   4.984   0.857  18.672 -0.9155 -0.3020  0.2105
 1080TIP3    H227436   4.999   0.924  18.537 -0.8135 -0.3676  0.1872
 1081TIP3   OH227437   1.686   4.013  18.004 -0.0328  0.3465  0.0480
 1081TIP3    H127438   1.599   3.999  18.041  0.4841 -0.5217  0.9465
 1081TIP3    H227439   1.735   4.057  18.073 -0.3335  2.7851 -1.1822
 1082TIP3   OH227440   1.517   5.984  18.940  0.2432 -0.4784  0.3970
 1082TIP3    H127441   1.474   5.932  19.009 -2.2420 -0.1935 -0.8100
 1082TIP3    H227442   1.486   6.073  18.956  1.0592 -0.1064 -0.0675
 1083TIP3   OH227443   3.464   3.431  17.584  0.0734  0.4132  0.0885
 1083TIP3    H127444   3.383   3.389  17.616  1.0998 -0.7441  1.2775
 1083TIP3    H227445   3.479   3.503  17.646 -0.8640  1.6401 -1.0598
 1084TIP3   OH227446   2.022   4.056  19.600 -0.0503  0.3566  0.0543
 1084TIP3    H127447   1.939   4.097  19.625 -1.0841 -1.7118  0.2911
 1084TIP3    H227448   2.076   4.061  19.679  0.2495  2.0637 -0.2175
 1085TIP3   OH227449   0.229   7.207  18.664  0.0349  0.7298 -0.2210
 1085TIP3    H127450   0.316   7.174  18.643 -0.0436 -0.7976  1.5638
 1085TIP3    H227451   0.190   7.228  18.580  0.7476 -2.1713 -1.3801
 1086TIP3   OH227452   6.475   1.348  19.240 -0.0684  0.1626 -0.5156
 1086TIP3    H127453   6.510   1.269  19.281 -1.2348  0.6063  1.4444
 1086TIP3    H227454   6.383   1.351  19.267  0.4893  3.4712  1.6801
 1087TIP3   OH227455   1.452   0.378  18.126 -0.2540  0.0969  0.1913
 1087TIP3    H127456   1.532   0.430  18.116 -0.8285  1.0795  0.5477
 1087TIP3    H227457   1.466   0.301  18.070 -0.0858  1.4721 -1.7661
 1088TIP3   OH227458   4.609   5.468  20.042 -0.0975  0.2189  0.2563
 1088TIP3    H127459   4.558   5.460  19.962  0.8964  2.1010 -0.6268
 1088TIP3    H227460   4.652   5.553  20.036  1.3098 -0.2772  2.0294
 1089TIP3   OH227461   4.639   3.389  17.998  0.3348  0.1831 -0.6610
 1089TIP3    H127462   4.725   3.366  17.961  0.6667  0.1180  0.1302
 1089TIP3    H227463   4.608   3.461  17.942  1.3374  0.8486 -0.3845
 1090TIP3   OH227464   7.322   3.252  18.481  0.3249 -0.6225 -0.4252
 1090TIP3    H127465   7.332   3.247  18.576 -2.6477  1.1517  0.0869
 1090TIP3    H227466   7.240   3.205  18.463  0.9315 -1.1001 -2.1786
 1091TIP3   OH227467   5.681   6.977  17.189  0.0762 -0.1442 -0.4043
 1091TIP3    H127468   5.755   6.965  17.249 -0.0202 -1.1712 -0.4726
 1091TIP3    H227469   5.721   7.000  17.106  0.2649  0.2899 -0.1951
 1092TIP3   OH227470   2.264   0.723  18.477  0.2058 -0.4517 -0.2149
 1092TIP3    H127471   2.228   0.811  18.489 -0.3598 -0.8275  1.0720
 1092TIP3    H227472   2.328   0.714  18.547  0.0441 -1.1706 -0.1550
 1093TIP3   OH227473   4.096   3.663  19.271 -0.2844  0.1376 -0.1293
 1093TIP3    H127474   4.098   3.580  19.223 -0.0430  0.1009 -0.0543
 1093TIP3    H227475   4.019   3.708  19.237  1.6742  1.6028 -3.0486
 1094TIP3   OH227476   1.527   3.690  17.677 -0.6837  0.1741  0.1872
 1094TIP3    H127477   1.435   3.681  17.651 -0.9197  2.2572  0.0751
 1094TIP3    H227478   1.576   3.677  17.596 -1.0974  1.6902 -0.3489
 1095TIP3   OH227479   7.593   2.250  18.489  0.5136 -0.2097  0.5279
 1095TIP3    H127480   7.666   2.247  18.552  0.3924 -3.6599  0.6870
 1095TIP3    H227481   7.631   2.219  18.407 -0.3444 -0.1459  0.1020
 1096TIP3   OH227482   0.626   4.346  19.262  0.4575 -0.2485  0.2284
 1096TIP3    H127483   0.678   4.357  19.183  0.2301 -0.4099  0.0536
 1096TIP3    H227484   0.687   4.313  19.327  0.3251 -1.7063 -0.3265
 1097TIP3   OH227485   6.510   6.824  18.172 -0.3769  0.0953 -0.4594
 1097TIP3    H127486   6.562   6.839  18.250 -0.6894  0.1690 -0.2611
 1097TIP3    H227487   6.459   6.745  18.192  0.2392 -0.4352 -0.9576
 1098TIP3   OH227488   6.140   5.075  18.700  0.1061  0.3849  0.0070
 1098TIP3    H127489   6.112   5.135  18.631 -0.6426  2.2009  1.7652
 1098TIP3    H227490   6.212   5.121  18.744  2.5992 -2.0192 -1.3033
 1099TIP3   OH227491   1.747   1.228  18.067 -0.3290 -0.0804 -0.3141
 1099TIP3    H127492   1.676   1.166  18.050  0.7567 -1.2839 -0.6491
 1099TIP3    H227493   1.807   1.180  18.124  1.7388 -0.2741 -2.5088
 1100TIP3   OH227494   5.744   3.225  19.607  0.7822 -0.3382  0.3109
 1100TIP3    H127495   5.805   3.151  19.609  1.5533  0.2677 -0.0377
 1100TIP3    H227496   5.727   3.244  19.699  3.0121  0.9572  0.5420
 1101TIP3   OH227497   7.456   4.345  17.014  0.1350 -0.3962 -0.3848
 1101TIP3    H127498   7.364   4.317  17.006 -0.5949  1.2833  1.3976
 1101TIP3    H227499   7.462   4.383  17.101  2.4747 -0.1728 -0.5938
 1102TIP3   OH227500   4.346   6.600  18.995 -0.6531  0.1737 -0.2241
 1102TIP3    H127501   4.291   6.561  19.063 -0.6434 -0.5850 -0.6358
 1102TIP3    H227502   4.299   6.679  18.968 -1.1449 -0.0445 -0.0184
 1103TIP3   OH227503   3.139   5.630  18.438  0.0003  0.1570  0.5553
 1103TIP3    H127504   3.088   5.586  18.370  2.4373 -0.0333 -1.2527
 1103TIP3    H227505   3.203   5.564  18.466  2.0127  1.6626 -0.3233
 1104TIP3   OH227506   3.957   2.308  17.935  0.3440 -0.1104  0.5213
 1104TIP3    H127507   3.958   2.340  17.845 -0.8421 -0.0975  0.4997
 1104TIP3    H227508   3.919   2.380  17.985 -1.1356 -0.9602  0.6700
 1105TIP3   OH227509   1.601   7.337  18.103  0.2425 -0.1761 -0.0485
 1105TIP3    H127510   1.614   7.349  18.197 -1.1195 -1.5590  0.3642
 1105TIP3    H227511   1.653   7.406  18.063  1.0120  0.3332  1.7090
 1106TIP3   OH227512   5.326   7.426  19.109  0.2314  0.1529  0.0834
 1106TIP3    H127513   5.278   7.379  19.177 -0.0337  0.4566  0.1146
 1106TIP3    H227514   5.332   7.516  19.142 -0.6160  0.5036 -0.6436
 1107TIP3   OH227515   3.682   0.548  18.504 -0.0433  0.2969  0.0049
 1107TIP3    H127516   3.715   0.461  18.484 -0.0530  0.2374  0.2463
 1107TIP3    H227517   3.587   0.538  18.507 -0.1502  0.6222 -1.4393
 1108TIP3   OH227518   4.666   1.023  17.339 -0.1451  0.0610 -0.1727
 1108TIP3    H127519   4.610   0.969  17.283  0.2658  0.8177 -1.3327
 1108TIP3    H227520   4.745   0.970  17.353 -0.1146  0.0041 -0.5739
 1109TIP3   OH227521   4.220   1.001  17.842 -0.1825 -0.1630  0.8118
 1109TIP3    H127522   4.158   0.941  17.803 -2.5091  1.4580  1.8048
 1109TIP3    H227523   4.178   1.030  17.923  1.0434  2.3886  0.6285
 1110TIP3   OH227524   0.461   1.385  18.229 -0.3297 -0.0799 -0.3279
 1110TIP3    H127525   0.382   1.330  18.223 -0.3104 -0.0867 -0.5231
 1110TIP3    H227526   0.495   1.368  18.317 -2.3667  2.3820  1.0660
 1111TIP3   OH227527   0.233   5.949  18.168  0.3451 -0.4046  0.2757
 1111TIP3    H127528   0.195   6.001  18.097  1.6459  0.2750  0.0505
 1111TIP3    H227529   0.183   5.975  18.246 -2.0088 -2.1326 -0.5138
 1112TIP3   OH227530   5.036   0.591  18.508  0.2375 -0.2555 -0.2250
 1112TIP3    H127531   5.071   0.674  18.541  0.3999 -0.2606 -0.3841
 1112TIP3    H227532   5.050   0.530  18.580  0.2737 -0.1852 -0.1715
 1113TIP3   OH227533   1.743   3.980  18.392  0.4677  0.1166 -0.3033
 1113TIP3    H127534   1.693   4.041  18.447  0.1749 -1.2828  1.0579
 1113TIP3    H227535   1.773   4.033  18.319  0.5621  1.9810  1.0166
 1114TIP3   OH227536   1.785   5.601  18.990  0.3601 -0.2636  0.5865
 1114TIP3    H127537   1.734   5.520  18.984  1.3329 -0.8022 -1.3400
 1114TIP3    H227538   1.777   5.641  18.903  1.0205  0.9999  1.0857
 1115TIP3   OH227539   5.063   1.634  18.242 -0.1285  0.0488  0.4328
 1115TIP3    H127540   5.132   1.608  18.303  0.4789  0.4151 -0.0841
 1115TIP3    H227541   4.982   1.606  18.284  0.4503 -2.8462 -0.1754
 1116TIP3   OH227542   5.736   4.811  19.231  0.0051 -0.4522  0.1306
 1116TIP3    H127543   5.814   4.865  19.244  0.0567  0.1489 -2.2832
 1116TIP3    H227544   5.663   4.871  19.252  0.1345 -0.5450  0.8763
 1117TIP3   OH227545   1.426   6.203  19.480 -0.2154  0.1544  0.2198
 1117TIP3    H127546   1.342   6.158  19.478 -0.4131  0.4274  1.3716
 1117TIP3    H227547   1.486   6.140  19.520  0.4592 -0.5128 -1.7376
 1118TIP3   OH227548   0.598   0.850  17.780 -0.2836 -0.1600  0.4942
 1118TIP3    H127549   0.587   0.896  17.863  0.1684 -0.7358  0.8852
 1118TIP3    H227550   0.663   0.901  17.732  0.0818 -0.2780  0.8516
 1119TIP3   OH227551   1.291   5.994  18.313 -0.7625  0.3178  0.5032
 1119TIP3    H127552   1.322   5.906  18.335  1.5725  0.9639  0.0453
 1119TIP3    H227553   1.244   5.983  18.230 -1.6220 -0.6599  1.0899
 1120TIP3   OH227554   3.651   5.875  19.642  0.2376 -0.0324 -0.7808
 1120TIP3    H127555   3.689   5.963  19.634  0.2195 -0.0515 -1.0804
 1120TIP3    H227556   3.670   5.833  19.558  0.3598 -0.3616 -0.5907
 1121TIP3   OH227557   2.788   4.491  18.190  0.1483  0.0863 -0.1212
 1121TIP3    H127558   2.801   4.412  18.242  2.4914  0.3408 -0.2529
 1121TIP3    H227559   2.817   4.467  18.102 -0.7933  0.6048 -0.5929
 1122TIP3   OH227560   1.503   5.950  18.554  0.0812 -0.5057 -0.3772
 1122TIP3    H127561   1.440   5.879  18.539 -2.6514  1.7296 -0.4268
 1122TIP3    H227562   1.522   5.984  18.466 -0.0229 -0.0798 -0.2384
 1123TIP3   OH227563   2.463   6.177  18.733 -0.9370 -0.2463  0.1999
 1123TIP3    H127564   2.502   6.261  18.759  1.1027 -1.2116  0.4244
 1123TIP3    H227565   2.394   6.201  18.671  0.4673  1.5428 -0.7590
 1124TIP3   OH227566   3.023   4.225  19.692  0.2726 -0.0249  0.1422
 1124TIP3    H127567   2.966   4.295  19.660  1.7062  0.3133 -1.8616
 1124TIP3    H227568   3.030   4.164  19.618  0.1655 -1.6002  1.3748
 1125TIP3   OH227569   1.625   4.822  19.412  0.1504  1.0177  0.0750
 1125TIP3    H127570   1.614   4.773  19.331 -0.3501  1.4229 -0.1021
 1125TIP3    H227571   1.631   4.754  19.480  2.4457  0.5931 -0.4746
 1126TIP3   OH227572   5.234   3.472  19.461  0.0180  0.3254  0.3234
 1126TIP3    H127573   5.243   3.542  19.396  1.2575  1.8231  1.9921
 1126TIP3    H227574   5.171   3.412  19.423  0.1279  1.5126 -1.9175
 1127TIP3   OH227575   4.164   6.918  17.741  0.1147  0.4152 -0.2006
 1127TIP3    H127576   4.175   6.959  17.827 -1.2038 -0.3512  0.3702
 1127TIP3    H227577   4.140   6.827  17.760  1.4698 -0.2380 -1.4166
 1128TIP3   OH227578   6.032   6.144  18.237 -0.3916  0.2983 -0.0358
 1128TIP3    H127579   5.946   6.174  18.266  0.3820  1.4286  1.2725
 1128TIP3    H227580   6.063   6.088  18.309  0.3435  0.6930 -0.0349
 1129TIP3   OH227581   5.270   1.007  19.798  0.1212  0.3036 -0.7785
 1129TIP3    H127582   5.321   1.062  19.857 -1.0271 -0.6004  1.1469
 1129TIP3    H227583   5.179   1.032  19.814 -0.2342  0.0431 -2.2175
 1130TIP3   OH227584   0.997   4.141  18.212  0.3975  0.3161 -0.5815
 1130TIP3    H127585   1.030   4.103  18.294  1.1803  2.9561  0.4247
 1130TIP3    H227586   0.920   4.088  18.191  2.1196 -2.6418 -0.0822
 1131TIP3   OH227587   2.398   0.507  18.924  0.2708 -0.0254 -0.0811
 1131TIP3    H127588   2.409   0.587  18.976  2.2079 -0.4517  0.2292
 1131TIP3    H227589   2.485   0.488  18.890 -0.5372 -0.9743 -1.7211
 1132TIP3   OH227590   1.513   3.809  18.320 -0.0472 -0.2249  0.3148
 1132TIP3    H127591   1.516   3.838  18.229  0.0546 -1.1583  0.0113
 1132TIP3    H227592   1.584   3.856  18.363  0.1542 -0.0778 -0.1789
 1133TIP3   OH227593   4.790   4.480  16.964  0.1956  0.2965 -0.8185
 1133TIP3    H127594   4.719   4.452  17.022  0.4076 -0.3087 -0.8429
 1133TIP3    H227595   4.797   4.410  16.900  0.5581  0.5395 -1.0480
 1134TIP3   OH227596   4.439   1.379  18.795 -0.2724 -0.4936  0.5315
 1134TIP3    H127597   4.415   1.456  18.744  1.5136 -0.7628 -0.7904
 1134TIP3    H227598   4.412   1.401  18.885 -1.7059  0.7749 -0.1646
 1135TIP3   OH227599   6.843   5.471  17.525 -0.2396  0.4280  0.4303
 1135TIP3    H127600   6.870   5.453  17.435 -0.9261 -2.5258  0.6930
 1135TIP3    H227601   6.915   5.522  17.562  2.1708 -1.9746 -0.5998
 1136TIP3   OH227602   3.877   4.980  19.843  0.4372 -0.6167 -0.7473
 1136TIP3    H127603   3.893   5.070  19.815  0.7376 -0.9135 -1.5504
 1136TIP3    H227604   3.950   4.961  19.903 -0.0346 -0.0873  0.0112
 1137TIP3   OH227605   5.960   7.211  17.993 -0.0490  0.1097  0.2294
 1137TIP3    H127606   6.037   7.258  18.023 -0.1337 -0.2496  1.0558
 1137TIP3    H227607   5.958   7.132  18.048 -1.7453  0.7601  1.1856
 1138TIP3   OH227608   5.015   7.674  18.509  0.0404  0.1265 -0.2577
 1138TIP3    H127609   5.080   7.685  18.578  0.4026 -0.3763 -0.5095
 1138TIP3    H227610   4.945   7.623  18.550  1.0179 -1.6564 -0.6992
 1139TIP3   OH227611   1.641   4.878  18.511  0.3500 -0.0966  0.5323
 1139TIP3    H127612   1.711   4.926  18.554  1.0761 -0.5693 -0.0953
 1139TIP3    H227613   1.675   4.789  18.500 -0.6227 -0.5316  0.8626
 1140TIP3   OH227614   4.672   4.978  16.985  0.2954 -0.5760  0.0270
 1140TIP3    H127615   4.624   5.044  17.035  1.7127  0.8293 -0.4104
 1140TIP3    H227616   4.610   4.950  16.917 -1.4279 -2.0288  2.0510
 1141TIP3   OH227617   5.082   6.846  18.736 -0.7929  0.0650  0.1772
 1141TIP3    H127618   5.117   6.890  18.658  2.2027 -1.7087  0.3789
 1141TIP3    H227619   5.025   6.911  18.776 -0.9836  1.7006 -2.4664
 1142TIP3   OH227620   2.067   5.223  17.863 -0.0347  0.2650  0.3435
 1142TIP3    H127621   2.011   5.298  17.843  1.3768  1.1960 -0.2839
 1142TIP3    H227622   2.144   5.261  17.905  0.6661 -0.8504  0.1100
 1143TIP3   OH227623   0.896   2.349  18.331 -0.2525 -0.0611 -0.6108
 1143TIP3    H127624   0.871   2.385  18.417 -3.1284  1.9317 -2.1081
 1143TIP3    H227625   0.828   2.285  18.312  1.3362 -1.7939 -0.7528
 1144TIP3   OH227626   3.059   5.664  18.051 -0.0996 -0.4570 -0.0706
 1144TIP3    H127627   3.132   5.613  18.017 -0.5384 -0.2533 -1.4145
 1144TIP3    H227628   3.075   5.753  18.020  0.1953  0.0533  1.4858
 1145TIP3   OH227629   6.591   2.303  18.933 -0.0319  1.0837 -0.4345
 1145TIP3    H127630   6.634   2.227  18.974  1.4209  1.8790 -0.4202
 1145TIP3    H227631   6.515   2.266  18.889 -0.2487 -0.1588  0.9078
 1146TIP3   OH227632   3.400   2.866  18.439 -0.8707 -0.0592 -0.4805
 1146TIP3    H127633   3.371   2.814  18.364 -1.0036  0.9081 -1.1128
 1146TIP3    H227634   3.481   2.908  18.409 -0.2847 -0.5853  0.3294
 1147TIP3   OH227635   4.787   2.969  16.839  0.1758 -0.0670 -0.1774
 1147TIP3    H127636   4.753   2.885  16.809  0.0374  0.1619 -0.6731
 1147TIP3    H227637   4.724   3.034  16.805  0.5327  0.2742 -0.1952
 1148TIP3   OH227638   3.532   3.426  19.054  0.3021 -0.0457 -0.1309
 1148TIP3    H127639   3.580   3.489  19.107 -0.2730 -0.1370  0.5114
 1148TIP3    H227640   3.568   3.437  18.965  1.1912  0.1885  0.2409
 1149TIP3   OH227641   6.482   3.674  19.578 -0.0490  0.6217  0.0016
 1149TIP3    H127642   6.404   3.724  19.554 -0.8422 -0.9255 -0.7809
 1149TIP3    H227643   6.532   3.667  19.497  0.4236  0.7595  0.2764
 1150TIP3   OH227644   5.971   2.710  17.663  0.2676 -0.4696 -0.1408
 1150TIP3    H127645   5.993   2.704  17.570  1.2108 -0.2635  0.0560
 1150TIP3    H227646   6.048   2.751  17.703  0.0372 -0.9237  0.7915
 1151TIP3   OH227647   6.813   6.047  17.452 -0.1698 -0.1432 -0.0640
 1151TIP3    H127648   6.839   6.134  17.424 -1.3880  0.7135  1.3472
 1151TIP3    H227649   6.784   6.057  17.542  0.8447 -2.2634  0.5762
 1152TIP3   OH227650   6.314   2.554  20.208  0.2182 -0.5069  0.1002
 1152TIP3    H127651   6.316   2.460  20.229  0.0665 -0.4030  0.5757
 1152TIP3    H227652   6.256   2.559  20.131 -0.0263 -0.7673  0.2627
 1153TIP3   OH227653   6.539   0.222  18.849 -0.1670 -0.7798 -0.2302
 1153TIP3    H127654   6.515   0.186  18.764  2.4741  0.9712 -1.8546
 1153TIP3    H227655   6.521   0.316  18.842 -1.9251 -0.8793  1.9721
 1154TIP3   OH227656   1.300   4.710  18.899 -0.0096  0.0967 -0.5762
 1154TIP3    H127657   1.380   4.688  18.850  0.7416  0.3371  0.5204
 1154TIP3    H227658   1.277   4.628  18.943 -1.0833 -0.3154 -1.8305
 1155TIP3   OH227659   5.908   3.228  18.908 -0.1259 -0.0969 -0.4196
 1155TIP3    H127660   5.883   3.244  18.999 -0.9978 -3.0111 -0.0477
 1155TIP3    H227661   5.831   3.252  18.857 -0.5972 -0.9344 -0.1141
 1156TIP3   OH227662   2.506   7.410  20.188  0.2486  0.0776  0.2639
 1156TIP3    H127663   2.480   7.498  20.215  0.2481  0.3816 -0.6976
 1156TIP3    H227664   2.579   7.423  20.129  1.0037 -0.6445  1.0142
 1157TIP3   OH227665   1.828   4.658  18.416 -0.7434  0.8002  0.0671
 1157TIP3    H127666   1.808   4.645  18.324  2.1398 -0.1476 -0.5219
 1157TIP3    H227667   1.921   4.680  18.418 -0.5807  0.2404  2.7902
 1158TIP3   OH227668   3.002   3.050  18.147 -0.5137 -0.3261 -0.7207
 1158TIP3    H127669   3.063   3.053  18.220 -0.1564 -1.1487 -0.9756
 1158TIP3    H227670   2.918   3.076  18.185  0.0955  1.4459 -0.4994
 1159TIP3   OH227671   6.699   5.219  17.442 -0.5298  0.0201  0.3509
 1159TIP3    H127672   6.691   5.302  17.395  1.0168  0.5972  1.0196
 1159TIP3    H227673   6.611   5.182  17.442 -0.5844 -0.1005 -3.0679
 1160TIP3   OH227674   3.145   5.891  17.953 -0.4750  0.1684 -0.0130
 1160TIP3    H127675   3.222   5.918  18.002  0.3458 -1.4371 -0.3450
 1160TIP3    H227676   3.176   5.883  17.863 -1.6743  1.9416 -0.6383
 1161TIP3   OH227677   4.716   1.925  18.869 -0.1397  0.3037 -0.3171
 1161TIP3    H127678   4.774   1.950  18.941  0.0566 -0.0460 -0.3564
 1161TIP3    H227679   4.658   2.001  18.859  0.2339  0.6078 -0.2032
 1162TIP3   OH227680   4.602   1.690  18.813  0.1858  0.2269  0.4610
 1162TIP3    H127681   4.649   1.771  18.834  0.7959  0.3215 -1.0885
 1162TIP3    H227682   4.510   1.710  18.830  0.5635  0.4358  2.4009
 1163TIP3   OH227683   4.097   4.875  16.961 -0.3975 -0.1248 -0.3249
 1163TIP3    H127684   4.072   4.809  16.897  1.7439 -1.4609  0.1319
 1163TIP3    H227685   4.094   4.831  17.046  0.4772  0.5078  0.0624
 1164TIP3   OH227686   4.421   3.262  17.334  0.1635 -0.0605 -0.0801
 1164TIP3    H127687   4.359   3.263  17.407 -0.5108  1.2354 -0.6460
 1164TIP3    H227688   4.450   3.353  17.325 -0.1217 -0.0967 -1.7099
 1165TIP3   OH227689   0.487   1.055  19.638 -0.0029 -0.4364  0.2971
 1165TIP3    H127690   0.408   1.098  19.669 -0.8207 -0.9257 -1.0319
 1165TIP3    H227691   0.456   0.975  19.595  0.9396  0.6533 -2.6202
 1166TIP3   OH227692   2.179   6.864  19.560 -0.9226  0.2220 -0.2830
 1166TIP3    H127693   2.238   6.858  19.485 -0.4958 -0.2953  0.0825
 1166TIP3    H227694   2.122   6.938  19.540 -0.1734  0.7199 -0.6655
 1167TIP3   OH227695   7.216   7.189  19.242 -0.0094 -0.1709  0.5048
 1167TIP3    H127696   7.279   7.197  19.313  2.2744  1.1171 -1.4944
 1167TIP3    H227697   7.212   7.095  19.223  0.8319 -0.3220  1.0619
 1168TIP3   OH227698   5.401   1.448  17.631  0.4490  0.2232 -0.4551
 1168TIP3    H127699   5.377   1.497  17.710  1.2712 -0.3995  0.2054
 1168TIP3    H227700   5.337   1.377  17.627  0.2802  0.3757 -0.4575
 1169TIP3   OH227701   2.270   0.224  19.389 -0.0563  0.0105  0.2230
 1169TIP3    H127702   2.281   0.305  19.338 -1.4356 -0.4920 -0.9549
 1169TIP3    H227703   2.189   0.239  19.437 -1.0206 -1.1137 -0.9758
 1170TIP3   OH227704   2.059   5.162  17.096  0.1508 -0.4731 -0.0282
 1170TIP3    H127705   2.020   5.078  17.120 -1.5627  0.3398  0.2186
 1170TIP3    H227706   1.986   5.212  17.058  1.1129  0.9117 -0.1202
 1171TIP3   OH227707   5.634   1.547  18.149  0.1153 -0.3603 -0.1124
 1171TIP3    H127708   5.596   1.529  18.235 -0.0289 -1.3889 -0.3821
 1171TIP3    H227709   5.723   1.578  18.169 -0.6462  1.5648  0.4872
 1172TIP3   OH227710   6.608   4.679  18.116  0.0907  0.1924 -0.3277
 1172TIP3    H127711   6.550   4.706  18.045  1.2026  0.4031 -1.1868
 1172TIP3    H227712   6.638   4.761  18.156  0.9313  0.1411 -0.8377
 1173TIP3   OH227713   3.592   5.375  19.114 -0.4425  0.1057 -0.1935
 1173TIP3    H127714   3.679   5.339  19.093 -1.0420  0.0443 -2.9835
 1173TIP3    H227715   3.552   5.310  19.171  0.6935 -0.7232 -0.3061
 1174TIP3   OH227716   3.888   4.560  18.258 -0.5994 -0.1555  0.1665
 1174TIP3    H127717   3.960   4.620  18.278 -0.3945 -0.0372 -0.8494
 1174TIP3    H227718   3.905   4.483  18.311  1.3044 -0.8594 -1.3794
 1175TIP3   OH227719   0.740   6.830  16.995  0.0380  0.2851 -0.2173
 1175TIP3    H127720   0.646   6.816  17.009  0.1897 -1.9202 -1.0110
 1175TIP3    H227721   0.775   6.841  17.083 -0.5108 -2.6684  0.5081
 1176TIP3   OH227722   2.149   3.418  17.476  0.3646  0.6331  0.4087
 1176TIP3    H127723   2.110   3.408  17.389  1.5025  2.5467 -0.4147
 1176TIP3    H227724   2.085   3.383  17.536 -0.8726  0.1079 -1.1514
 1177TIP3   OH227725   5.849   0.255  17.827 -0.2986  0.3107  0.8681
 1177TIP3    H127726   5.845   0.173  17.777 -0.1062  0.6197  0.3379
 1177TIP3    H227727   5.930   0.297  17.798 -0.2695  0.5714  1.3218
 1178TIP3   OH227728   6.506   5.942  17.609  0.2052 -0.0407 -0.3406
 1178TIP3    H127729   6.449   5.920  17.683 -1.1243  1.4789 -0.8567
 1178TIP3    H227730   6.576   5.994  17.648 -0.1019  0.1596 -0.0470
 1179TIP3   OH227731   1.106   4.875  19.601  0.7596  0.3032 -0.0904
 1179TIP3    H127732   1.175   4.865  19.536  1.8769 -0.5063  1.1636
 1179TIP3    H227733   1.102   4.969  19.618  0.1798  0.5715 -1.5830
 1180TIP3   OH227734   1.532   0.163  17.967  0.0966 -0.0811 -0.3123
 1180TIP3    H127735   1.590   0.195  17.898  1.5616 -2.4221 -0.2887
 1180TIP3    H227736   1.493   0.084  17.931 -1.0305 -0.0038  0.6732
 1181TIP3   OH227737   3.472   4.787  17.593  0.1093  0.4137 -0.2714
 1181TIP3    H127738   3.446   4.725  17.524 -3.5604  3.2472 -1.7872
 1181TIP3    H227739   3.411   4.768  17.665 -0.0732  1.2918 -0.1872
 1182TIP3   OH227740   2.488   5.109  18.232  0.2144  0.1578  0.5496
 1182TIP3    H127741   2.535   5.028  18.213 -0.2137  0.0721 -0.1460
 1182TIP3    H227742   2.468   5.103  18.326  3.0750  0.9835  1.3205
 1183TIP3   OH227743   1.093   4.759  17.837 -0.1917  1.2034 -0.8591
 1183TIP3    H127744   1.050   4.699  17.776 -2.0866  0.8865  0.6749
 1183TIP3    H227745   1.118   4.834  17.783  1.9388 -0.7281 -2.7650
 1184TIP3   OH227746   2.661   2.922  17.626  0.0341  0.0537  0.1225
 1184TIP3    H127747   2.650   2.972  17.545 -2.0767 -0.5283 -0.0217
 1184TIP3    H227748   2.713   2.978  17.683  1.1346  0.6833 -1.4403
 1185TIP3   OH227749   6.988   1.873  18.352  0.2260  0.4834  0.0518
 1185TIP3    H127750   7.060   1.810  18.356  1.8154  2.1433 -0.9512
 1185TIP3    H227751   6.959   1.881  18.443  1.4025 -0.1255  0.5081
 1186TIP3   OH227752   4.705   6.525  18.596  0.4600  0.6305 -0.1504
 1186TIP3    H127753   4.650   6.506  18.671 -1.6936  2.2918 -1.1804
 1186TIP3    H227754   4.766   6.592  18.627 -0.2835  1.1656  0.1752
 1187TIP3   OH227755   3.688   2.822  18.210  0.0931  0.4440 -0.4130
 1187TIP3    H127756   3.741   2.769  18.270 -0.3449  0.4048 -0.0511
 1187TIP3    H227757   3.752   2.874  18.161  0.5590 -0.7323 -1.0919
 1188TIP3   OH227758   4.108   3.419  18.327 -0.2356 -0.7185 -0.7390
 1188TIP3    H127759   4.138   3.508  18.344 -0.9135 -0.4759 -0.7929
 1188TIP3    H227760   4.128   3.404  18.234 -0.2763 -0.5593 -0.7745
 1189TIP3   OH227761   1.427   0.792  18.404 -0.2548 -0.2321  0.4473
 1189TIP3    H127762   1.517   0.787  18.373 -0.4508 -1.0883  0.0042
 1189TIP3    H227763   1.428   0.744  18.488 -0.1476  0.3923  0.8107
 1190TIP3   OH227764   3.836   4.990  17.366  0.2242  0.2449  0.1217
 1190TIP3    H127765   3.849   5.001  17.272  0.7424  1.4907  0.3278
 1190TIP3    H227766   3.901   4.924  17.391  0.6140  0.4756 -0.2647
 1191TIP3   OH227767   4.762   4.601  18.218  0.3703  0.7522 -0.3019
 1191TIP3    H127768   4.844   4.555  18.231 -0.4364 -0.8125 -0.5111
 1191TIP3    H227769   4.721   4.602  18.304  0.4807  1.2654 -0.2568
 1192TIP3   OH227770   3.679   6.477  19.351 -0.0898 -0.1400 -0.0096
 1192TIP3    H127771   3.671   6.397  19.404 -0.4219 -0.0932  0.0116
 1192TIP3    H227772   3.597   6.524  19.366 -0.2407 -0.1882 -0.6721
 1193TIP3   OH227773   3.677   3.858  17.281 -0.1897 -0.0236 -0.1199
 1193TIP3    H127774   3.610   3.926  17.291 -0.7545 -0.6388  0.3353
 1193TIP3    H227775   3.708   3.868  17.191 -1.9299 -0.6510 -0.8379
 1194TIP3   OH227776   7.552   6.668  19.076 -0.0323 -0.0090 -0.0374
 1194TIP3    H127777   7.530   6.747  19.026 -1.5293 -1.3811 -1.7065
 1194TIP3    H227778   7.507   6.680  19.159 -1.8295  0.1333 -0.9714
 1195TIP3   OH227779   4.128   7.221  17.457  0.0803 -0.0692  0.2508
 1195TIP3    H127780   4.060   7.231  17.391 -0.5960 -0.8879  0.7948
 1195TIP3    H227781   4.179   7.301  17.452  0.5725 -0.4528 -1.8376
 1196TIP3   OH227782   0.498   2.650  17.980  0.1047  0.1306 -0.6342
 1196TIP3    H127783   0.485   2.743  18.002  1.2564 -0.0897  1.1847
 1196TIP3    H227784   0.487   2.647  17.885  1.4066  2.3953 -0.9396
 1197TIP3   OH227785   3.599   0.414  18.784  0.1651 -0.0660 -0.0322
 1197TIP3    H127786   3.570   0.338  18.733  3.2035 -0.9706 -0.5802
 1197TIP3    H227787   3.522   0.471  18.788 -1.2821 -1.6925 -2.3724
 1198TIP3   OH227788   5.162   3.213  18.013 -1.0208 -0.0306 -0.1214
 1198TIP3    H127789   5.254   3.200  18.036 -0.7104  2.5616  0.4424
 1198TIP3    H227790   5.135   3.129  17.975  1.4376 -1.0065  0.0502
 1199TIP3   OH227791   3.400   4.921  18.679 -0.3954 -0.5002 -0.0976
 1199TIP3    H127792   3.328   4.908  18.739  0.9901  0.1802  1.8143
 1199TIP3    H227793   3.371   4.992  18.621 -0.9788  0.2862  1.1258
 1200TIP3   OH227794   7.620   1.587  18.202 -0.0575  0.2208  0.4013
 1200TIP3    H127795   7.546   1.594  18.262  0.8604 -1.2046  1.7898
 1200TIP3    H227796   7.599   1.647  18.130 -4.0288 -2.2672 -0.8499
 1201TIP3   OH227797   4.526   6.858  18.354 -0.2045 -0.3775 -0.9749
 1201TIP3    H127798   4.569   6.786  18.308  1.5604 -1.2043  1.7354
 1201TIP3    H227799   4.532   6.932  18.293  0.0054 -1.8938 -2.9082
 1202TIP3   OH227800   1.480   3.668  18.891 -0.2902 -0.6256  0.6487
 1202TIP3    H127801   1.547   3.618  18.937  0.7136 -0.6433 -0.7818
 1202TIP3    H227802   1.526   3.709  18.818 -1.6589  0.1194  0.1665
 1203TIP3   OH227803   6.360   6.322  17.830 -0.0241 -0.2154  0.6394
 1203TIP3    H127804   6.329   6.296  17.917 -0.1707  0.3532  0.7590
 1203TIP3    H227805   6.294   6.287  17.770 -1.5674  1.9584  0.9633
 1204TIP3   OH227806   5.245   1.594  18.463 -0.0070  0.0216  0.3005
 1204TIP3    H127807   5.211   1.679  18.492 -0.3058 -0.5777  1.8303
 1204TIP3    H227808   5.254   1.544  18.544 -0.7670 -1.7484 -0.6719
 1205TIP3   OH227809   3.111   4.917  18.321  0.3883 -0.6163 -0.3084
 1205TIP3    H127810   3.083   4.851  18.258 -0.3948  1.0934 -1.8459
 1205TIP3    H227811   3.206   4.916  18.317  0.4866 -2.8102  1.0162
 1206TIP3   OH227812   4.005   2.106  19.945 -0.1991  0.2564 -0.2030
 1206TIP3    H127813   3.976   2.082  19.857  2.6815  0.1636 -1.1994
 1206TIP3    H227814   4.072   2.042  19.967  0.9785  1.8064  0.9681
 1207TIP3   OH227815   7.194   1.196  17.994  0.6236 -0.4304 -0.5668
 1207TIP3    H127816   7.149   1.260  18.050  1.1728 -0.5214 -0.0040
 1207TIP3    H227817   7.226   1.248  17.920  0.5078 -0.1720 -0.4369
 1208TIP3   OH227818   2.486   5.846  17.618 -0.1337  0.0118 -0.0486
 1208TIP3    H127819   2.462   5.754  17.604  0.5347 -0.3465  1.0026
 1208TIP3    H227820   2.467   5.889  17.535 -0.1694 -1.1474 -0.6610
 1209TIP3   OH227821   6.626   2.203  17.974 -0.0252  0.8294  0.6690
 1209TIP3    H127822   6.571   2.281  17.981  1.7339  2.0965  1.0796
 1209TIP3    H227823   6.650   2.183  18.065  1.5263  1.3576  0.4143
 1210TIP3   OH227824   0.779   0.114  19.608  0.0582 -0.2251 -0.5049
 1210TIP3    H127825   0.720   0.041  19.630  0.7884 -0.8969 -0.7083
 1210TIP3    H227826   0.861   0.091  19.651  0.7685 -0.3218 -1.8618
 1211TIP3   OH227827   6.829   5.244  18.197 -0.0304 -0.0118 -0.2391
 1211TIP3    H127828   6.806   5.265  18.106 -1.7066  1.0048  0.3602
 1211TIP3    H227829   6.921   5.269  18.205 -0.5468  2.4784 -0.9908
 1212TIP3   OH227830   0.590   5.042  18.416 -0.3818 -0.3322 -0.2115
 1212TIP3    H127831   0.648   4.968  18.434 -0.1617 -0.5475 -1.7307
 1212TIP3    H227832   0.634   5.117  18.455 -0.1848 -0.8496  0.5838
 1213TIP3   OH227833   2.236   4.139  19.775  0.3908 -0.0009  0.6216
 1213TIP3    H127834   2.244   4.168  19.866  2.4909 -2.7635  1.4541
 1213TIP3    H227835   2.279   4.207  19.724  0.7589  0.7430  1.8746
 1214TIP3   OH227836   7.187   6.916  19.359 -0.1442  0.4840 -0.2792
 1214TIP3    H127837   7.210   6.881  19.273  1.7887 -0.1924  0.4514
 1214TIP3    H227838   7.230   6.857  19.421 -1.4362  0.9942  1.1635
 1215TIP3   OH227839   1.238   3.525  19.070 -0.8141 -0.4199  0.2774
 1215TIP3    H127840   1.285   3.593  19.023 -1.7106  0.1425  0.1677
 1215TIP3    H227841   1.276   3.443  19.039  0.2879  0.0211  0.4198
 1216TIP3   OH227842   4.530   6.472  18.830  0.0528  0.3439 -0.6734
 1216TIP3    H127843   4.469   6.503  18.897  1.3931  1.4557  0.0921
 1216TIP3    H227844   4.546   6.380  18.855  1.0107  0.9059  0.9554
 1217TIP3   OH227845   7.170   5.508  19.019  0.1856 -0.0444 -0.6977
 1217TIP3    H127846   7.225   5.580  19.049  1.0313 -1.2128  0.6684
 1217TIP3    H227847   7.172   5.515  18.923  1.3699  0.9254 -0.6287
 1218TIP3   OH227848   5.056   0.109  18.922  0.0201 -0.6974  0.0974
 1218TIP3    H127849   5.090   0.194  18.949 -0.4854  0.2681 -2.0914
 1218TIP3    H227850   5.035   0.064  19.004  4.5960 -0.6614  1.5787
 1219TIP3   OH227851   0.117   4.950  19.262 -0.0778 -0.3593 -0.2795
 1219TIP3    H127852   0.078   4.863  19.250  0.4271 -0.3739 -1.9710
 1219TIP3    H227853   0.048   5.011  19.238  0.5548 -0.3721 -2.2856
 1220TIP3   OH227854   2.633   0.093  18.453 -0.1480 -0.5165 -0.2151
 1220TIP3    H127855   2.646   0.184  18.423  0.3257  0.3843  2.4679
 1220TIP3    H227856   2.707   0.046  18.416  0.5070  0.5633 -0.3414
 1221TIP3   OH227857   0.043   6.666  18.120  0.4311  0.3477 -0.2742
 1221TIP3    H127858   0.121   6.624  18.154 -0.1906  0.5744  1.5166
 1221TIP3    H227859   0.063   6.760  18.123  0.6271  0.3579 -1.2674
 1222TIP3   OH227860   0.554   2.975  18.150  0.0266 -0.2908 -0.5184
 1222TIP3    H127861   0.500   2.948  18.076 -0.0528 -1.9767  0.1123
 1222TIP3    H227862   0.565   2.896  18.203  3.3197 -0.1236 -0.7228
 1223TIP3   OH227863   2.858   2.318  18.198  0.0168 -0.3311  0.1363
 1223TIP3    H127864   2.886   2.311  18.289  1.0291 -0.5510 -0.1752
 1223TIP3    H227865   2.773   2.275  18.196 -0.0755 -0.2013  1.0102
 1224TIP3   OH227866   0.162   4.544  18.951  0.1992  0.1045  0.7058
 1224TIP3    H127867   0.257   4.550  18.964  0.4268 -1.1109 -0.2095
 1224TIP3    H227868   0.142   4.452  18.968 -0.5578  0.0084 -0.6476
 1225TIP3   OH227869   3.297   7.008  18.146  0.0065  0.6088  0.4472
 1225TIP3    H127870   3.388   6.980  18.145  0.0580  0.6792  1.6613
 1225TIP3    H227871   3.252   6.946  18.088  0.7010  0.1578  0.3813
 1226TIP3   OH227872   5.097   2.736  18.255  1.1387  0.7689 -0.5280
 1226TIP3    H127873   5.174   2.786  18.230  1.4393  0.7193  0.3070
 1226TIP3    H227874   5.129   2.646  18.268  0.4601  0.1059 -2.8824
 1227TIP3   OH227875   0.876   4.750  17.299  0.6542 -0.2170 -0.3554
 1227TIP3    H127876   0.852   4.674  17.352 -2.5027  1.8573  1.5392
 1227TIP3    H227877   0.838   4.732  17.213  0.0938 -0.8880  0.0210
 1228TIP3   OH227878   2.483   2.277  19.746  0.4385 -0.3050  0.6207
 1228TIP3    H127879   2.412   2.286  19.682  1.7630 -0.3113 -0.9332
 1228TIP3    H227880   2.468   2.192  19.787 -0.4731 -0.2750  0.3745
 1229TIP3   OH227881   3.529   1.000  19.970  0.2474  0.3679 -0.0101
 1229TIP3    H127882   3.497   0.980  20.058 -0.9548  1.0028 -0.2886
 1229TIP3    H227883   3.506   0.923  19.918 -0.2806  0.5748 -0.0794
 1230TIP3   OH227884   4.135   2.310  19.107  0.4136 -0.3904 -0.3529
 1230TIP3    H127885   4.050   2.319  19.064  0.5604 -0.3382 -0.6321
 1230TIP3    H227886   4.117   2.259  19.186  0.1634 -0.5698 -0.5273
 1231TIP3   OH227887   5.875   4.332  19.314  0.3461 -0.2967 -0.6047
 1231TIP3    H127888   5.920   4.279  19.248  0.4025 -1.5883  0.4274
 1231TIP3    H227889   5.920   4.312  19.396  0.3786  1.4001 -0.1670
 1232TIP3   OH227890   5.386   1.482  17.301 -0.3175 -0.1392  0.7640
 1232TIP3    H127891   5.414   1.486  17.209 -0.8918 -1.0635  0.5241
 1232TIP3    H227892   5.315   1.545  17.307 -0.4148 -0.2196  0.5082
 1233TIP3   OH227893   2.241   6.528  18.647  0.3229 -0.4329  0.1014
 1233TIP3    H127894   2.272   6.501  18.560 -0.1332 -2.0954  0.4286
 1233TIP3    H227895   2.199   6.613  18.631 -0.3245 -0.9986 -1.4293
 1234TIP3   OH227896   4.981   6.667  18.409 -0.0981 -0.0496 -0.0753
 1234TIP3    H127897   5.027   6.604  18.466 -0.2678  1.0423  1.3250
 1234TIP3    H227898   4.962   6.617  18.330  0.1345 -1.6594  0.8198
 1235TIP3   OH227899   7.079   5.615  19.364 -0.0627  0.0598  0.1370
 1235TIP3    H127900   7.090   5.520  19.364  2.2325  0.1851 -2.3868
 1235TIP3    H227901   7.067   5.637  19.271 -0.4098  2.2568  0.6520
 1236TIP3   OH227902   5.767   0.934  17.224 -0.2718 -0.0025 -0.3133
 1236TIP3    H127903   5.831   1.002  17.202 -0.5795  0.3191 -0.2239
 1236TIP3    H227904   5.682   0.974  17.209 -0.5491  0.5706  2.2332
 1237TIP3   OH227905   2.653   3.519  18.799 -0.0588 -0.4632 -1.0137
 1237TIP3    H127906   2.656   3.532  18.893  1.0905  0.1356 -1.1129
 1237TIP3    H227907   2.737   3.553  18.767  0.2086 -2.0300 -2.0841
 1238TIP3   OH227908   3.236   6.304  17.929  0.5634  0.7455  0.2553
 1238TIP3    H127909   3.204   6.388  17.962  1.4429  1.0130  0.4660
 1238TIP3    H227910   3.157   6.252  17.912  0.0120  1.6228  0.1005
 1239TIP3   OH227911   7.349   6.612  19.278  0.2195 -0.9143 -0.2894
 1239TIP3    H127912   7.266   6.654  19.257  0.5312  1.4040  2.5118
 1239TIP3    H227913   7.330   6.556  19.354  1.1069 -0.6805  0.1244
 1240TIP3   OH227914   4.050   5.909  17.870 -0.3616 -0.3668 -0.4577
 1240TIP3    H127915   4.018   5.886  17.957  0.5066 -0.7660 -0.2309
 1240TIP3    H227916   3.975   5.896  17.812 -0.9154 -0.2050  0.2108
 1241TIP3   OH227917   0.363   3.818  18.489  0.2661  0.1085 -0.3046
 1241TIP3    H127918   0.366   3.770  18.572  0.1920  0.1409 -0.2842
 1241TIP3    H227919   0.287   3.876  18.497 -0.3574 -0.6085 -0.7826
 1242TIP3   OH227920   4.274   7.307  17.985  0.1294  0.4430  0.2331
 1242TIP3    H127921   4.332   7.383  17.987  2.0532 -0.9388  1.5178
 1242TIP3    H227922   4.232   7.311  17.899  2.4651  1.3533 -0.9675
 1243TIP3   OH227923   6.689   4.911  18.600  0.3077 -0.0775  0.6426
 1243TIP3    H127924   6.746   4.984  18.626  0.2241 -0.2770  1.4041
 1243TIP3    H227925   6.611   4.921  18.655  0.1214 -0.5066  0.4592
 1244TIP3   OH227926   0.877   5.670  19.443 -0.7345  0.1339 -0.3901
 1244TIP3    H127927   0.785   5.690  19.460 -1.0106 -1.1453 -0.2611
 1244TIP3    H227928   0.893   5.701  19.353 -1.3166  0.2780 -0.4445
 1245TIP3   OH227929   1.027   7.466  19.474  0.6113 -0.3060 -0.2119
 1245TIP3    H127930   1.119   7.461  19.448  0.2421 -1.0536 -1.4529
 1245TIP3    H227931   0.981   7.490  19.394 -0.3400 -0.5371  0.2531
 1246TIP3   OH227932   6.450   7.268  19.216 -0.3830  0.5297  0.3257
 1246TIP3    H127933   6.545   7.276  19.206  0.1309 -2.4657  1.6941
 1246TIP3    H227934   6.417   7.356  19.196  2.8053  2.2259  1.5698
 1247TIP3   OH227935   0.774   6.441  18.525  0.1993  0.0560 -1.0322
 1247TIP3    H127936   0.861   6.413  18.553 -0.0432 -0.4752 -0.7978
 1247TIP3    H227937   0.751   6.381  18.454 -0.7647 -1.0874  0.1731
 1248TIP3   OH227938   2.848   6.636  19.659 -0.2001 -0.6932  0.2418
 1248TIP3    H127939   2.911   6.661  19.726  1.0774 -0.1175 -1.0995
 1248TIP3    H227940   2.844   6.712  19.601 -1.6659 -0.9745 -0.0543
 1249TIP3   OH227941   3.789   3.566  17.674 -0.0195 -0.3783 -0.2777
 1249TIP3    H127942   3.884   3.579  17.683 -0.2214  1.1750 -0.1787
 1249TIP3    H227943   3.763   3.629  17.608 -0.7405 -2.0328 -1.6450
 1250TIP3   OH227944   0.581   1.745  19.265 -0.0411 -0.1440  0.1047
 1250TIP3    H127945   0.629   1.669  19.232  1.8857  1.6935 -1.5935
 1250TIP3    H227946   0.498   1.742  19.217  0.4014 -0.6766 -0.6667
 1251TIP3   OH227947   1.038   0.007  18.196 -0.4768 -0.0989 -0.1800
 1251TIP3    H127948   1.109   0.071  18.208  0.4850 -1.1930  0.2014
 1251TIP3    H227949   1.029  -0.001  18.101 -0.0425  0.0163 -0.2354
 1252TIP3   OH227950   3.931   3.724  18.239 -0.4966  0.2688  0.9219
 1252TIP3    H127951   3.879   3.662  18.291 -0.4098  1.2396  2.1955
 1252TIP3    H227952   4.004   3.748  18.296  1.9977 -1.7793 -1.1377
 1253TIP3   OH227953   6.728   5.070  16.712  0.1561  0.5021 -0.3681
 1253TIP3    H127954   6.707   5.160  16.689 -1.3895 -0.1282 -1.6223
 1253TIP3    H227955   6.676   5.017  16.652  0.2715 -1.2323  0.9733
 1254TIP3   OH227956   5.800   6.404  18.531 -0.2867  0.0850 -0.1047
 1254TIP3    H127957   5.707   6.380  18.539  0.1737 -1.3357  1.7428
 1254TIP3    H227958   5.816   6.407  18.437 -2.1428  0.1069 -0.4592
 1255TIP3   OH227959   4.787   0.362  17.338 -0.1451 -0.1331 -0.0453
 1255TIP3    H127960   4.712   0.314  17.302 -0.3831 -1.4827  2.0490
 1255TIP3    H227961   4.761   0.454  17.336 -2.0917 -0.6004  1.0272
 1256TIP3   OH227962   4.980   7.060  18.294  0.5351  0.3186  0.0141
 1256TIP3    H127963   4.967   7.155  18.299 -0.7671  0.1401  0.4384
 1256TIP3    H227964   4.964   7.038  18.202 -0.9252  0.3048  0.2437
 1257TIP3   OH227965   3.808   1.581  18.544 -0.2852  0.3854  0.1346
 1257TIP3    H127966   3.797   1.632  18.464  0.9726  1.5907  0.6926
 1257TIP3    H227967   3.901   1.558  18.545 -0.8477 -2.2879 -0.2714
 1258TIP3   OH227968   2.948   0.875  18.262  0.2597 -0.5548  0.2794
 1258TIP3    H127969   2.935   0.889  18.356 -0.5707 -0.2392  0.1327
 1258TIP3    H227970   3.043   0.877  18.250  0.3433  1.0302  0.8868
 1259TIP3   OH227971   4.124   0.558  18.609  0.6208  0.0293  0.4051
 1259TIP3    H127972   4.164   0.547  18.523  2.6450 -0.4439  1.3566
 1259TIP3    H227973   4.055   0.492  18.612 -0.0161  0.5781 -1.1237
 1260TIP3   OH227974   3.475   5.067  19.822  0.8237 -0.2234 -0.2005
 1260TIP3    H127975   3.407   5.000  19.816  1.7989 -1.1756 -1.0708
 1260TIP3    H227976   3.542   5.040  19.759  0.5133  2.4588 -1.8214
 1261TIP3   OH227977   0.117   6.061  18.378  0.1594  0.5019  0.4807
 1261TIP3    H127978   0.050   5.999  18.406 -0.1562  0.8756  0.5653
 1261TIP3    H227979   0.075   6.146  18.386 -0.0865  0.6205 -1.4845
 1262TIP3   OH227980   6.400   7.652  18.294 -0.1177 -0.4651  0.6047
 1262TIP3    H127981   6.348   7.733  18.299  0.1502 -0.2506  0.0190
 1262TIP3    H227982   6.470   7.665  18.359 -0.1724 -0.2920  0.6312
 1263TIP3   OH227983   2.998   6.122  17.956  0.2100 -0.4739 -0.1929
 1263TIP3    H127984   2.944   6.104  17.879  1.1561  0.6686 -1.1658
 1263TIP3    H227985   3.049   6.042  17.969  0.7885 -0.3210 -1.4047
 1264TIP3   OH227986   5.949   2.323  18.643  0.6146  1.0202  0.3074
 1264TIP3    H127987   5.996   2.261  18.588 -1.2436 -0.3534  0.1500
 1264TIP3    H227988   6.004   2.333  18.720  0.7267 -1.4077  0.6472
 1265TIP3   OH227989   1.099   2.463  17.969  1.0397 -0.0268  0.3005
 1265TIP3    H127990   1.168   2.396  17.963 -0.0210 -1.2075  0.8147
 1265TIP3    H227991   1.045   2.447  17.892  0.0423 -0.6321  1.1059
 1266TIP3   OH227992   6.584   0.563  19.600 -0.0440  0.2165  0.5671
 1266TIP3    H127993   6.603   0.479  19.558  0.2298  1.0244 -0.9814
 1266TIP3    H227994   6.635   0.627  19.551 -2.0296  1.6103  0.1790
 1267TIP3   OH227995   0.951   4.075  18.481 -0.0990 -0.0750 -0.3927
 1267TIP3    H127996   0.883   4.095  18.545 -0.6947  0.0185 -1.0473
 1267TIP3    H227997   1.025   4.130  18.508 -0.3565  0.0073  0.1790
 1268TIP3   OH227998   5.255   2.412  19.714 -0.2806  0.2683 -0.2422
 1268TIP3    H127999   5.340   2.457  19.706  0.2387 -0.4873  0.8335
 1268TIP3    H228000   5.198   2.478  19.753 -0.2573  0.8388 -1.1233
 1269TIP3   OH228001   1.832   1.304  19.477  0.1666 -0.3734 -0.1463
 1269TIP3    H128002   1.737   1.310  19.472  0.2153 -0.4385 -1.3528
 1269TIP3    H228003   1.857   1.370  19.542 -0.6658 -0.0665 -0.1362
 1270TIP3   OH228004   6.196   4.464  19.249 -0.3165 -0.3110  0.0427
 1270TIP3    H128005   6.118   4.520  19.245  2.0093  3.2540 -0.0119
 1270TIP3    H228006   6.204   4.428  19.161 -1.0527  0.5698 -0.4019
 1271TIP3   OH228007   3.261   3.380  18.953 -0.1124  0.7969 -0.0054
 1271TIP3    H128008   3.270   3.421  18.867  0.7157 -0.9022 -0.7819
 1271TIP3    H228009   3.350   3.378  18.988 -0.2091  0.1721  0.2288
 1272TIP3   OH228010   2.807   1.583  19.818  0.2211  0.0310 -0.1755
 1272TIP3    H128011   2.764   1.668  19.832 -1.4219 -0.5000 -1.7304
 1272TIP3    H228012   2.892   1.593  19.863 -0.7504  1.7379  1.4737
 1273TIP3   OH228013   4.594   3.310  18.712  0.3525  0.6616 -0.1472
 1273TIP3    H128014   4.554   3.333  18.627 -2.0318 -2.2458  0.0223
 1273TIP3    H228015   4.521   3.311  18.774  1.1979 -1.3326  0.9746
 1274TIP3   OH228016   4.027   2.700  19.780 -0.0707 -0.2314 -0.0928
 1274TIP3    H128017   3.942   2.721  19.740 -0.5484  2.1702  1.9267
 1274TIP3    H228018   4.085   2.770  19.751  1.0814 -1.4901 -0.9159
 1275TIP3   OH228019   0.456   5.946  18.319  0.7903  0.1959  0.2012
 1275TIP3    H128020   0.422   5.870  18.366  0.1227 -1.1691 -2.3292
 1275TIP3    H228021   0.381   5.980  18.271  1.5405  1.2371 -0.2593
 1276TIP3   OH228022   3.434   4.135  17.941  0.2623  0.0858 -0.0894
 1276TIP3    H128023   3.486   4.200  17.893 -0.2334  0.6197  0.0778
 1276TIP3    H228024   3.361   4.186  17.978 -0.5118 -0.6862 -0.5146
 1277TIP3   OH228025   2.007   5.602  17.466 -0.0918 -0.5734 -0.0453
 1277TIP3    H128026   2.065   5.561  17.531 -1.5701 -0.0396  1.6777
 1277TIP3    H228027   2.048   5.686  17.448 -0.1008 -0.3596  0.8644
 1278TIP3   OH228028   0.601   5.828  17.737  0.3183  0.3969  0.6007
 1278TIP3    H128029   0.695   5.841  17.746  0.4681 -1.0616  1.4329
 1278TIP3    H228030   0.565   5.916  17.736  1.7181  1.0002 -0.2087
 1279TIP3   OH228031   4.228   6.330  18.277  0.2015  0.2604  0.2186
 1279TIP3    H128032   4.164   6.260  18.286  1.0368 -0.6768 -0.7652
 1279TIP3    H228033   4.301   6.304  18.333  0.4244  0.4522  0.0231
 1280TIP3   OH228034   7.387   0.587  17.920  0.3730  0.3240  0.2303
 1280TIP3    H128035   7.476   0.610  17.947  0.4766 -0.3590  0.4994
 1280TIP3    H228036   7.366   0.509  17.972 -0.3207  0.3865  0.0489
 1281TIP3   OH228037   5.224   3.863  18.103  0.3741 -0.1232 -0.3813
 1281TIP3    H128038   5.260   3.791  18.156  0.7124 -0.0636 -0.5246
 1281TIP3    H228039   5.240   3.836  18.012  0.2879  0.0224 -0.4403
 1282TIP3   OH228040   4.085   4.764  17.617 -0.7478 -0.0825 -0.7421
 1282TIP3    H128041   4.045   4.732  17.536 -1.0095 -0.4877 -0.4587
 1282TIP3    H228042   4.100   4.685  17.669 -0.8490  0.2004 -0.2760
 1283TIP3   OH228043   0.039   4.423  17.641 -0.3041  0.0719 -0.4466
 1283TIP3    H128044   0.082   4.380  17.714  1.3944 -1.1108 -2.0356
 1283TIP3    H228045  -0.052   4.393  17.645  0.1583 -1.3401  0.2262
 1284TIP3   OH228046   2.594   5.407  19.727  0.6530 -0.1275  0.6621
 1284TIP3    H128047   2.549   5.339  19.677  1.5794 -0.8812  0.8405
 1284TIP3    H228048   2.642   5.457  19.661 -1.6311  1.6885  0.2489
 1285TIP3   OH228049   2.866   7.573  18.016  0.7151 -0.3990  0.0129
 1285TIP3    H128050   2.945   7.615  18.049 -0.1393  0.6316  0.8404
 1285TIP3    H228051   2.897   7.501  17.960  2.2091  0.0177  0.2842
 1286TIP3   OH228052   5.156   2.205  19.149 -0.1512 -0.4090  0.3733
 1286TIP3    H128053   5.112   2.134  19.102  0.1970 -0.6636  0.4233
 1286TIP3    H228054   5.096   2.229  19.219 -0.3239 -0.5788  0.2840
 1287TIP3   OH228055   5.235   5.605  19.660  0.3998  0.0345 -0.1752
 1287TIP3    H128056   5.284   5.547  19.601 -0.5620 -0.2464 -0.7172
 1287TIP3    H228057   5.280   5.596  19.744  1.1226 -0.4060 -0.5910
 1288TIP3   OH228058   7.091   2.128  19.402  0.2153 -0.3045 -0.3953
 1288TIP3    H128059   7.012   2.180  19.419  1.6723  2.1262 -0.6333
 1288TIP3    H228060   7.100   2.072  19.479 -3.0392 -2.5412 -1.4132
 1289TIP3   OH228061   5.452   4.183  18.548  0.0844 -0.2866 -0.8594
 1289TIP3    H128062   5.388   4.165  18.617 -0.8227  1.2227 -1.2634
 1289TIP3    H228063   5.420   4.133  18.473  0.0396 -0.4693 -0.7197
 1290TIP3   OH228064   6.383   6.679  19.662 -0.0428 -0.7992 -0.2013
 1290TIP3    H128065   6.302   6.729  19.670  0.1847 -0.6092  1.1491
 1290TIP3    H228066   6.355   6.595  19.625 -0.7110 -0.4015 -0.6299
 1291TIP3   OH228067   0.479   7.436  19.108  0.0427 -0.1961  0.6067
 1291TIP3    H128068   0.524   7.464  19.187 -0.0797 -0.4480  0.7672
 1291TIP3    H228069   0.397   7.486  19.108 -0.6546 -1.2928  1.4348
 1292TIP3   OH228070   3.078   3.140  18.631 -0.5951  0.3397 -0.0251
 1292TIP3    H128071   3.010   3.075  18.646  0.5766 -1.0989 -0.6978
 1292TIP3    H228072   3.032   3.215  18.592 -1.8143 -0.4963 -0.2277
 1293TIP3   OH228073   1.874   4.115  18.684 -0.3800 -0.3240 -0.0739
 1293TIP3    H128074   1.828   4.031  18.682  0.1426 -0.6866  1.6600
 1293TIP3    H228075   1.965   4.093  18.664  0.2288 -0.5782  2.6466
 1294TIP3   OH228076   1.119   5.314  18.141 -0.0939 -0.1040  0.2466
 1294TIP3    H128077   1.057   5.370  18.094  0.1909  0.8021  0.9289
 1294TIP3    H228078   1.149   5.251  18.076  0.2130  1.0521 -0.7652
 1295TIP3   OH228079   4.518   5.906  17.545 -0.1446 -0.3179  0.2560
 1295TIP3    H128080   4.512   5.894  17.450 -0.2325  0.7170  0.1140
 1295TIP3    H228081   4.573   5.834  17.575 -0.7243 -1.0849 -0.4787
 1296TIP3   OH228082   2.725   4.594  18.781  0.6081  0.1089 -0.6138
 1296TIP3    H128083   2.775   4.516  18.757 -1.0683 -1.5746  1.0405
 1296TIP3    H228084   2.646   4.590  18.728 -0.2886 -0.2977  0.7186
 1297TIP3   OH228085   3.428   2.685  18.221 -0.3815 -0.4215  0.8707
 1297TIP3    H128086   3.501   2.747  18.222 -1.6318  1.1463  2.3040
 1297TIP3    H228087   3.463   2.606  18.264  1.0072 -0.4781 -0.2673
 1298TIP3   OH228088   2.948   4.715  18.211 -0.4069  0.1103  0.4112
 1298TIP3    H128089   2.906   4.634  18.242  1.1136 -0.9248 -0.1138
 1298TIP3    H228090   2.916   4.725  18.122 -0.6128  0.1090  0.4822
 1299TIP3   OH228091   6.158   3.304  16.752  0.4944 -0.6525  0.0335
 1299TIP3    H128092   6.162   3.397  16.774  0.2177 -0.9452  1.4571
 1299TIP3    H228093   6.250   3.276  16.752  0.6445 -0.2065 -1.2862
 1300TIP3   OH228094   4.710   1.797  17.215  0.0848 -0.2422  1.0364
 1300TIP3    H128095   4.775   1.737  17.249 -0.9233 -0.3490  2.8835
 1300TIP3    H228096   4.683   1.850  17.290 -2.5105 -0.7453  0.5874
 1301TIP3   OH228097   5.981   3.392  17.764 -0.3305 -0.1814  0.2282
 1301TIP3    H128098   5.895   3.354  17.783  0.4709 -1.9684  0.5365
 1301TIP3    H228099   5.968   3.486  17.771 -2.6865 -0.2965 -1.5180
 1302TIP3   OH228100   2.147   4.809  19.789 -0.0547  0.3106  0.0930
 1302TIP3    H128101   2.157   4.714  19.792 -0.5039  0.2632  0.1803
 1302TIP3    H228102   2.053   4.823  19.776 -0.0031  0.7445  0.1658
 1303TIP3   OH228103   0.753   4.003  18.118  0.3068 -0.4654 -0.1306
 1303TIP3    H128104   0.701   3.994  18.039  0.7398  0.0248 -0.4751
 1303TIP3    H228105   0.690   4.030  18.185 -0.1108 -1.1645 -0.2317
 1304TIP3   OH228106   2.250   0.231  17.441  0.0416 -0.6054  0.1940
 1304TIP3    H128107   2.201   0.312  17.453  0.7533 -0.3587  1.7840
 1304TIP3    H228108   2.261   0.222  17.347 -0.5819  0.8235 -0.0321
 1305TIP3   OH228109   6.547   4.045  18.618  0.8783  0.5410  0.7217
 1305TIP3    H128110   6.552   4.132  18.579 -1.5204  0.3468 -0.1918
 1305TIP3    H228111   6.489   3.995  18.559  0.4175 -0.9985  2.3661
 1306TIP3   OH228112   1.204   7.231  17.385  0.6296  0.3242 -0.0686
 1306TIP3    H128113   1.277   7.217  17.445 -0.5272 -1.0096  1.1154
 1306TIP3    H228114   1.164   7.145  17.375 -2.7362  1.3941  2.0178
 1307TIP3   OH228115   0.056   0.870  18.898  0.2013 -0.6522 -0.1308
 1307TIP3    H128116   0.105   0.819  18.833 -0.9465 -1.0566 -0.7068
 1307TIP3    H228117   0.099   0.956  18.898  0.5355 -0.8084 -1.0661
 1308TIP3   OH228118   7.634   4.051  18.889  0.0120 -0.6584 -0.1432
 1308TIP3    H128119   7.560   4.007  18.847 -1.6964  1.4947  0.4766
 1308TIP3    H228120   7.621   4.038  18.983 -0.4869  1.0394  0.0494
 1309TIP3   OH228121   2.672   1.115  19.115 -0.4822 -0.0481 -0.6072
 1309TIP3    H128122   2.588   1.077  19.140  0.1929 -1.2475 -0.0440
 1309TIP3    H228123   2.735   1.074  19.175  0.5208  0.6877 -1.1329
 1310TIP3   OH228124   2.780   7.289  17.428  0.0879  0.4072  0.6115
 1310TIP3    H128125   2.828   7.317  17.350 -1.3824 -0.2304 -0.5660
 1310TIP3    H228126   2.735   7.367  17.459 -2.2543 -0.0244 -1.3856
 1311TIP3   OH228127   6.643   6.509  18.600 -0.0952  0.2080 -0.7020
 1311TIP3    H128128   6.669   6.599  18.581 -0.5876 -0.0278 -2.7301
 1311TIP3    H228129   6.553   6.516  18.631  0.1986  0.4788  0.1139
 1312TIP3   OH228130   7.140   6.774  19.696  0.1134  0.1223  0.1453
 1312TIP3    H128131   7.061   6.788  19.749  1.0289  1.5111  1.1991
 1312TIP3    H228132   7.172   6.861  19.677  3.1213 -0.3245  2.4251
 1313TIP3   OH228133   7.097   0.307  19.301  0.4460  0.1259 -0.0744
 1313TIP3    H128134   7.036   0.238  19.274 -2.1206  2.7766 -1.7204
 1313TIP3    H228135   7.073   0.326  19.392  2.3065 -2.1134  0.9826
 1314TIP3   OH228136   6.975   7.533  18.582 -0.0236 -0.3916  0.2637
 1314TIP3    H128137   6.972   7.620  18.622 -3.1192  0.6093 -1.7943
 1314TIP3    H228138   7.013   7.547  18.495 -0.5408 -1.0628 -0.0881
 1315TIP3   OH228139   6.580   1.334  18.709  0.1392  0.2616  0.0130
 1315TIP3    H128140   6.673   1.320  18.727  0.1065 -1.6599 -0.9890
 1315TIP3    H228141   6.535   1.303  18.787  0.2866 -0.7926 -0.3033
 1316TIP3   OH228142   2.604   4.881  18.122  0.2922 -0.2486 -0.5157
 1316TIP3    H128143   2.576   4.789  18.122  1.4280 -0.6981  2.3106
 1316TIP3    H228144   2.699   4.877  18.109  0.0520  0.8104 -3.2757
 1317TIP3   OH228145   2.968   4.452  17.844 -0.1259 -0.0775  0.5629
 1317TIP3    H128146   2.955   4.547  17.847 -1.8904 -0.2370 -0.4564
 1317TIP3    H228147   2.879   4.416  17.852  0.2316 -1.5678 -1.5726
 1318TIP3   OH228148   3.234   4.336  18.289 -0.3887 -0.0054 -0.1696
 1318TIP3    H128149   3.279   4.258  18.320 -0.5128 -0.6344 -1.4719
 1318TIP3    H228150   3.205   4.312  18.201 -1.1647  1.2236 -0.2633
 1319TIP3   OH228151   2.423   2.000  18.313 -0.0283 -0.2541  0.2219
 1319TIP3    H128152   2.364   1.928  18.338 -2.3866  1.0116 -1.2869
 1319TIP3    H228153   2.471   2.020  18.393 -1.3826 -1.6633  1.4567
 1320TIP3   OH228154   6.257   2.777  17.703  0.1886 -0.0608  0.5086
 1320TIP3    H128155   6.304   2.854  17.736 -1.0566  1.6437 -1.4652
 1320TIP3    H228156   6.317   2.737  17.641  0.1402  0.4183  0.1491
 1321TIP3   OH228157   6.358   3.705  19.026  0.2503 -0.1799 -0.5229
 1321TIP3    H128158   6.416   3.718  19.101 -0.2505  0.8163 -0.3004
 1321TIP3    H228159   6.403   3.640  18.972  1.1776 -0.0212  0.0464
 1322TIP3   OH228160   4.253   6.010  17.617 -0.4490 -0.8365 -0.3696
 1322TIP3    H128161   4.191   5.985  17.548 -0.7219  0.0483 -0.4630
 1322TIP3    H228162   4.338   5.978  17.586 -0.8809 -2.3840 -0.0719
 1323TIP3   OH228163   5.362   1.565  17.861 -0.4116 -0.3425  0.0181
 1323TIP3    H128164   5.335   1.625  17.930  1.4640 -0.5953  1.0170
 1323TIP3    H228165   5.424   1.506  17.902 -1.4804 -2.4210 -1.1759
 1324TIP3   OH228166   3.609   4.443  18.334  0.0048  0.3030  0.2546
 1324TIP3    H128167   3.529   4.443  18.385  0.6138  1.0242  1.2471
 1324TIP3    H228168   3.604   4.523  18.281 -0.1611  0.0850 -0.0593
 1325TIP3   OH228169   4.941   3.952  19.282  0.1714 -0.2113 -0.1535
 1325TIP3    H128170   4.897   3.898  19.217 -0.6810 -1.0699  1.0953
 1325TIP3    H228171   4.891   4.034  19.283 -0.7275 -0.7438  0.4285
 1326TIP3   OH228172   4.904   6.549  18.185  1.1957  0.1400  0.0481
 1326TIP3    H128173   4.946   6.467  18.214  0.5345 -1.1097 -2.2584
 1326TIP3    H228174   4.961   6.581  18.114  0.2243  0.3924 -0.6447
 1327TIP3   OH228175   5.051   5.565  17.742  0.5160 -0.4687 -0.3675
 1327TIP3    H128176   5.146   5.574  17.744  0.6039 -1.3507  0.7323
 1327TIP3    H228177   5.035   5.476  17.773 -0.7045  0.1738  0.9980
 1328TIP3   OH228178   2.660   0.374  18.914  0.6764 -0.1386  0.1052
 1328TIP3    H128179   2.740   0.357  18.865  0.8853 -0.3800  0.5251
 1328TIP3    H228180   2.685   0.440  18.979  1.1957 -2.0435  1.9076
 1329TIP3   OH228181   7.019   7.066  18.683  0.2321 -0.1658 -0.3006
 1329TIP3    H128182   7.097   7.105  18.643  0.5099 -2.8739 -2.6846
 1329TIP3    H228183   7.050   7.032  18.767  0.9877  0.9178 -0.1217
 1330TIP3   OH228184   3.163   0.297  18.334  0.5571  0.4459 -0.2971
 1330TIP3    H128185   3.085   0.350  18.314  0.0324 -0.4060 -0.5522
 1330TIP3    H228186   3.131   0.207  18.338  1.5708  0.0531 -0.6162
 1331TIP3   OH228187   2.995   6.383  19.724  0.3969 -0.3637 -0.2586
 1331TIP3    H128188   2.935   6.454  19.702  1.0440  0.2261 -0.1590
 1331TIP3    H228189   2.961   6.347  19.806  0.2477  0.0597 -0.1318
 1332TIP3   OH228190   2.983   6.475  18.183 -0.4886 -0.3454 -0.2660
 1332TIP3    H128191   3.011   6.511  18.098  0.2152 -0.0641  0.0760
 1332TIP3    H228192   3.013   6.539  18.247 -1.1603 -0.4761  0.1924
 1333TIP3   OH228193   7.649   4.212  17.357  0.1380 -0.1233 -0.1969
 1333TIP3    H128194   7.725   4.154  17.354  0.3600  0.1336  0.3884
 1333TIP3    H228195   7.681   4.296  17.323  0.7400  0.6561  2.1344
 1334TIP3   OH228196   2.873   7.145  17.851 -0.4370  0.1197 -0.1150
 1334TIP3    H128197   2.865   7.136  17.946 -1.1257 -2.2551 -0.3385
 1334TIP3    H228198   2.884   7.056  17.819  1.0599  0.9604 -2.1952
 1335TIP3   OH228199   5.750   1.319  18.074  0.5067  0.0301 -0.0285
 1335TIP3    H128200   5.837   1.340  18.109  0.7068 -0.2713 -0.3467
 1335TIP3    H228201   5.692   1.382  18.117  0.7201 -0.4521  0.9966
 1336TIP3   OH228202   6.444   2.410  17.998 -0.1143  0.5570 -0.0118
 1336TIP3    H128203   6.394   2.403  18.080 -1.2805  0.5143 -0.7038
 1336TIP3    H228204   6.379   2.435  17.933  0.7037  0.0822 -1.0330
 1337TIP3   OH228205   2.105   2.044  19.535 -0.1983  0.3300  0.5335
 1337TIP3    H128206   2.037   2.081  19.591 -1.4561 -0.7064 -0.2474
 1337TIP3    H228207   2.070   1.959  19.507  1.4317 -0.2553  0.1228
 1338TIP3   OH228208   5.271   7.306  18.381  0.2331 -0.1897  0.3022
 1338TIP3    H128209   5.279   7.346  18.468 -0.7818  1.0784 -0.1603
 1338TIP3    H228210   5.178   7.311  18.361  0.7046  1.5065 -1.7590
 1339TIP3   OH228211   5.263   1.947  17.788  0.3775  0.0973 -0.2175
 1339TIP3    H128212   5.344   1.936  17.739  1.6403  1.2835  1.4565
 1339TIP3    H228213   5.268   1.883  17.859  0.7101  1.2554  0.8642
 1340TIP3   OH228214   3.503   7.172  18.773  0.1506 -0.0395  0.4427
 1340TIP3    H128215   3.520   7.170  18.679  0.6825  0.7813  0.5047
 1340TIP3    H228216   3.540   7.256  18.802 -1.4276  0.4498  1.1157
 1341TIP3   OH228217   1.298   5.055  17.104 -0.0821  0.7326  0.0984
 1341TIP3    H128218   1.322   5.137  17.148  2.4529  1.4015 -2.2765
 1341TIP3    H228219   1.359   4.990  17.138 -0.8624  0.2540  0.6025
 1342TIP3   OH228220   7.522   4.408  17.972  0.5857  0.0346 -0.2157
 1342TIP3    H128221   7.502   4.495  18.006  0.0850 -0.2497  0.2446
 1342TIP3    H228222   7.564   4.363  18.045  0.2028 -0.3342 -0.2155
 1343TIP3   OH228223   0.424   3.442  19.634  0.3038  0.0496  0.4140
 1343TIP3    H128224   0.481   3.372  19.667  0.3799 -0.6030 -1.0414
 1343TIP3    H228225   0.470   3.523  19.656  0.2232 -0.3271  2.1097
 1344TIP3   OH228226   4.276   5.862  18.937 -0.1006  0.4775  0.3777
 1344TIP3    H128227   4.269   5.911  19.019 -0.5384 -0.7101  1.0688
 1344TIP3    H228228   4.357   5.812  18.946  0.7700  1.6242 -0.6618
 1345TIP3   OH228229   1.842   2.375  19.133  0.0274 -0.3899  0.3348
 1345TIP3    H128230   1.798   2.311  19.189 -0.9556 -0.9905 -1.0537
 1345TIP3    H228231   1.785   2.383  19.057  1.8298 -0.4398 -1.0991
 1346TIP3   OH228232   0.150   3.356  17.832 -0.0366 -0.2725 -0.4171
 1346TIP3    H128233   0.071   3.408  17.823  1.2809  1.9833  0.1802
 1346TIP3    H228234   0.135   3.302  17.909 -1.1563 -0.1954 -0.5724
 1347TIP3   OH228235   4.344   0.492  17.279  0.1142 -0.1770  0.6109
 1347TIP3    H128236   4.279   0.423  17.289 -0.6527  0.5184  0.4706
 1347TIP3    H228237   4.351   0.532  17.366  0.8698 -0.7006  0.7985
 1348TIP3   OH228238   2.960   3.464  18.269 -0.3793 -0.3701 -0.2863
 1348TIP3    H128239   2.930   3.555  18.264 -1.2871 -0.6275  0.2103
 1348TIP3    H228240   3.013   3.452  18.190  1.1134  1.0492  0.4291
 1349TIP3   OH228241   5.641   0.269  19.499  0.5606  0.0241 -0.6737
 1349TIP3    H128242   5.717   0.318  19.531 -0.1340  0.5383  0.2196
 1349TIP3    H228243   5.567   0.329  19.510 -0.2316 -1.0471 -0.0053
 1350TIP3   OH228244   3.832   0.057  17.685 -0.3360 -0.1750  0.1269
 1350TIP3    H128245   3.844   0.019  17.598  2.1200  0.4856  0.1097
 1350TIP3    H228246   3.833  -0.018  17.745  1.9179 -0.4063 -0.1263
 1351TIP3   OH228247   6.275   3.547  18.429 -0.0512 -0.2176 -0.0352
 1351TIP3    H128248   6.229   3.592  18.359  1.6394  1.3180 -0.2259
 1351TIP3    H228249   6.334   3.486  18.384  0.8509  0.5860  0.0250
 1352TIP3   OH228250   3.102   6.589  17.436  0.0471  0.5950  0.3709
 1352TIP3    H128251   3.180   6.643  17.421  1.4137 -1.5031 -0.5489
 1352TIP3    H228252   3.075   6.561  17.348 -1.9152  1.4164  0.6471
 1353TIP3   OH228253   4.986   5.647  17.440  0.5442  0.0801  0.1481
 1353TIP3    H128254   5.029   5.639  17.525 -0.3457  1.0099  0.7171
 1353TIP3    H228255   4.981   5.558  17.406  0.4023 -0.3810  1.3436
 1354TIP3   OH228256   5.742   1.054  17.927 -0.2020  0.2147 -0.0351
 1354TIP3    H128257   5.727   1.131  17.981 -1.6063 -0.4178  0.5251
 1354TIP3    H228258   5.693   0.984  17.970 -0.0834 -0.6721 -1.2706
 1355TIP3   OH228259   4.535   4.194  18.822 -0.2582  0.1976  0.2623
 1355TIP3    H128260   4.542   4.272  18.876 -0.6764  1.3864 -1.3181
 1355TIP3    H228261   4.447   4.160  18.839  0.0262 -0.1215  1.1663
 1356TIP3   OH228262   7.421   4.575  18.207  0.1701  0.1494 -0.0069
 1356TIP3    H128263   7.357   4.594  18.137  1.5902  2.3539 -0.8037
 1356TIP3    H228264   7.391   4.492  18.244 -1.4945 -0.3690 -2.2621
 1357TIP3   OH228265   1.568   5.302  19.745 -0.3641  0.0507  0.0920
 1357TIP3    H128266   1.491   5.327  19.797  0.3187 -2.2636  2.5085
 1357TIP3    H228267   1.533   5.240  19.680 -0.9184  1.2638 -0.7980
 1358TIP3   OH228268   0.256   5.548  18.639  0.0137 -0.1849  0.0229
 1358TIP3    H128269   0.194   5.563  18.711 -1.5194  1.4454 -1.5197
 1358TIP3    H228270   0.332   5.602  18.661 -1.3464  2.0977 -0.5591
 1359TIP3   OH228271   5.432   0.452  19.518  0.3106  0.0766  0.2785
 1359TIP3    H128272   5.411   0.479  19.608 -0.6917  0.6220 -0.1095
 1359TIP3    H228273   5.456   0.533  19.474 -0.4005 -0.0018 -0.2675
 1360TIP3   OH228274   2.213   6.212  18.617 -0.3121  0.4341 -0.0553
 1360TIP3    H128275   2.147   6.193  18.551 -0.6977  0.7490  0.2307
 1360TIP3    H228276   2.164   6.251  18.689 -0.1410 -1.2777  1.0532
 1361TIP3   OH228277   1.901   5.427  17.827 -0.7441  0.0948 -0.1192
 1361TIP3    H128278   1.833   5.408  17.892 -0.6569  0.3280  0.0422
 1361TIP3    H228279   1.923   5.519  17.842  0.0011 -0.1307  0.1948
 1362TIP3   OH228280   5.370   3.346  18.312 -0.2445 -0.8718 -0.2151
 1362TIP3    H128281   5.275   3.353  18.301  0.0122  0.6698 -1.9969
 1362TIP3    H228282   5.402   3.314  18.228  0.9583  0.4381 -0.2922
 1363TIP3   OH228283   3.288   1.291  18.168 -0.5045  0.1277  0.1022
 1363TIP3    H128284   3.210   1.341  18.142  0.3765  1.9082  0.7101
 1363TIP3    H228285   3.355   1.358  18.184  1.1577 -1.3493 -0.3917
 1364TIP3   OH228286   4.782   2.805  19.825 -0.2460  0.0168  0.0042
 1364TIP3    H128287   4.868   2.832  19.794 -0.4316  0.8242  0.1553
 1364TIP3    H228288   4.761   2.868  19.895  0.4763 -2.1694  2.3303
 1365TIP3   OH228289   4.329   2.273  18.064  0.0288  0.7889  0.6449
 1365TIP3    H128290   4.283   2.198  18.100  1.1191 -0.3040 -0.1333
 1365TIP3    H228291   4.260   2.328  18.027 -0.7892  0.1168  1.1451
 1366TIP3   OH228292   5.785   1.893  18.392 -0.5815 -0.3718 -0.5406
 1366TIP3    H128293   5.763   1.979  18.356 -0.1904 -0.5099 -1.1163
 1366TIP3    H228294   5.872   1.905  18.431 -0.0456 -0.7639 -1.5724
 1367TIP3   OH228295   3.114   5.274  18.313 -0.6508  0.1645  0.7794
 1367TIP3    H128296   3.181   5.215  18.278  0.1142  1.2863  0.3062
 1367TIP3    H228297   3.093   5.237  18.399 -0.6727 -1.1570  0.2387
 1368TIP3   OH228298   4.652   0.370  18.439  0.0193  0.8639  0.0384
 1368TIP3    H128299   4.593   0.385  18.512 -0.1332  0.3742  0.0142
 1368TIP3    H228300   4.595   0.355  18.364  0.1582 -0.2069  0.1318
 1369TIP3   OH228301   5.121   0.216  17.730  0.0463 -0.2769 -0.4785
 1369TIP3    H128302   5.044   0.249  17.776  0.5092  0.6227 -0.3322
 1369TIP3    H228303   5.111   0.248  17.640 -0.5194 -1.4672 -0.8562
 1370TIP3   OH228304   3.356   4.351  19.328  0.4420  0.2582  0.2310
 1370TIP3    H128305   3.337   4.319  19.416  0.9178  0.1615  0.3008
 1370TIP3    H228306   3.451   4.357  19.325  0.4771 -0.4912 -0.5370
 1371TIP3   OH228307   1.919   4.524  19.758 -0.6127  0.1717  0.1550
 1371TIP3    H128308   2.013   4.522  19.777 -0.4878 -1.3627 -0.5005
 1371TIP3    H228309   1.892   4.613  19.780  0.6633  0.1861  1.8858
 1372TIP3   OH228310   6.208   3.248  17.749  0.5469 -0.1279 -0.3896
 1372TIP3    H128311   6.113   3.264  17.753  0.1671 -1.9316 -1.3258
 1372TIP3    H228312   6.222   3.171  17.803  1.1407 -1.0843 -1.8465
 1373TIP3   OH228313   2.704   5.273  19.291  0.8897 -0.3442 -0.1468
 1373TIP3    H128314   2.756   5.348  19.263 -1.6943  0.9104 -2.0503
 1373TIP3    H228315   2.702   5.280  19.386  2.0065  1.0974 -0.1938
 1374TIP3   OH228316   1.930   1.792  18.035 -0.4879 -0.2669  0.5930
 1374TIP3    H128317   2.004   1.746  18.075  0.2955  0.0275 -0.4567
 1374TIP3    H228318   1.937   1.772  17.941 -0.9043  0.8995  0.2970
 1375TIP3   OH228319   1.837   5.869  17.910  0.1945  0.4443  0.0350
 1375TIP3    H128320   1.753   5.886  17.952  0.7192  0.3077  1.1646
 1375TIP3    H228321   1.819   5.878  17.816 -1.2552 -0.3717  0.2027
 1376TIP3   OH228322   0.932   2.812  18.294  0.6877 -0.0828  0.6253
 1376TIP3    H128323   0.987   2.735  18.280  0.8717  0.3009 -0.9991
 1376TIP3    H228324   0.859   2.780  18.347  1.8751 -0.8523  1.8620
 1377TIP3   OH228325   4.327   2.370  17.446 -0.0353  0.0416  0.1972
 1377TIP3    H128326   4.336   2.362  17.541  0.7354  0.7703  0.2023
 1377TIP3    H228327   4.260   2.307  17.423 -0.5837  0.1906  1.2948
 1378TIP3   OH228328   4.799   5.999  18.319  0.9704  0.5008  0.2921
 1378TIP3    H128329   4.819   6.091  18.335 -1.2072  1.2963 -1.0795
 1378TIP3    H228330   4.836   5.980  18.233 -0.4175  0.7755 -0.3970
 1379TIP3   OH228331   5.910   3.080  18.109  0.0477 -0.0943 -0.0842
 1379TIP3    H128332   5.915   2.985  18.124 -0.8247 -0.0107  0.8089
 1379TIP3    H228333   5.985   3.115  18.155 -0.0956 -0.2763  0.2928
 1380TIP3   OH228334   2.815   0.430  19.329  0.0456 -0.4408  0.7793
 1380TIP3    H128335   2.866   0.469  19.400 -0.9601  0.5219  0.9954
 1380TIP3    H228336   2.726   0.427  19.363 -0.0365 -2.3022  0.4880
 1381TIP3   OH228337   2.071   3.656  18.283  0.0761 -0.3019  0.4408
 1381TIP3    H128338   2.103   3.744  18.262 -1.7374 -0.1116 -1.9107
 1381TIP3    H228339   2.149   3.609  18.312  1.0806  2.0691  1.8804
 1382TIP3   OH228340   3.781   1.192  18.396  0.5170  0.1602  0.1226
 1382TIP3    H128341   3.871   1.223  18.404  0.7374 -0.8814  2.1923
 1382TIP3    H228342   3.738   1.222  18.476 -0.2702 -1.5490  0.3816
 1383TIP3   OH228343   0.966   4.216  18.760  0.2913  0.1103  0.0224
 1383TIP3    H128344   0.989   4.144  18.818  0.9064 -0.4959 -0.9487
 1383TIP3    H228345   0.890   4.185  18.711 -0.4145  0.7353  0.6931
 1384TIP3   OH228346   3.395   6.310  18.908 -0.3548 -0.5155  0.3484
 1384TIP3    H128347   3.440   6.360  18.977  1.2326 -1.8232  0.3063
 1384TIP3    H228348   3.396   6.220  18.939 -0.0876 -1.0532 -1.1383
 1385TIP3   OH228349   3.652   0.271  19.472  0.2354 -0.3609 -0.3447
 1385TIP3    H128350   3.701   0.348  19.502 -0.2929  0.1708 -0.8193
 1385TIP3    H228351   3.694   0.247  19.389 -0.1587 -0.0310 -0.6461
 1386TIP3   OH228352   5.400   3.811  17.182  0.5016  0.4628  0.0092
 1386TIP3    H128353   5.463   3.881  17.165  0.2335  0.2001 -2.4971
 1386TIP3    H228354   5.357   3.796  17.098 -0.1353 -2.0599  0.6721
 1387TIP3   OH228355   7.380   7.323  17.380 -0.2518  0.4770 -0.7815
 1387TIP3    H128356   7.376   7.236  17.421 -0.4769  1.3046  1.0072
 1387TIP3    H228357   7.423   7.307  17.296 -0.8670 -1.4652 -0.7857
 1388TIP3   OH228358   4.257   7.634  19.338  0.3295  0.2798 -0.3231
 1388TIP3    H128359   4.243   7.571  19.267  1.1266 -1.7658  1.2288
 1388TIP3    H228360   4.192   7.703  19.322 -1.0484 -1.2623 -1.7431
 1389TIP3   OH228361   4.718   6.872  18.954  0.1332 -0.1969 -0.0748
 1389TIP3    H128362   4.751   6.790  18.991 -0.3394 -0.8878 -1.1336
 1389TIP3    H228363   4.634   6.887  18.998 -0.8585 -1.4829 -1.4086
 1390TIP3   OH228364   3.483   2.454  19.421 -0.1015 -0.0677  0.1716
 1390TIP3    H128365   3.394   2.451  19.455 -0.4607  2.7477 -0.2507
 1390TIP3    H228366   3.526   2.376  19.457 -2.1755 -0.4956  1.8973
 1391TIP3   OH228367   6.739   3.818  19.645 -0.5092 -0.3496  0.0111
 1391TIP3    H128368   6.722   3.794  19.554  0.4974  0.1126 -0.3175
 1391TIP3    H228369   6.714   3.741  19.696  1.9124 -1.8596 -0.9230
 1392TIP3   OH228370   7.496   7.587  19.502  0.2473 -0.4254  0.5310
 1392TIP3    H128371   7.502   7.642  19.424 -1.0438 -0.0279  0.6754
 1392TIP3    H228372   7.504   7.498  19.470  0.0359 -0.2526 -0.0158
 1393TIP3   OH228373   4.475   0.978  18.836  0.6852 -0.3437  0.1393
 1393TIP3    H128374   4.526   1.049  18.798 -0.7793  0.1430 -1.0212
 1393TIP3    H228375   4.384   0.999  18.813  0.2193 -2.7436 -0.5123
 1394TIP3   OH228376   7.112   5.711  18.273 -0.0851 -0.2302 -0.4142
 1394TIP3    H128377   7.159   5.774  18.219  0.4485  0.6289  0.9800
 1394TIP3    H228378   7.063   5.657  18.211  0.6289  0.5901 -1.7371
 1395TIP3   OH228379   7.380   1.307  19.127  0.1629  0.5071 -0.6612
 1395TIP3    H128380   7.367   1.252  19.204  0.1843 -0.1114 -1.0907
 1395TIP3    H228381   7.419   1.249  19.062  2.2180  1.5226 -0.4446
 1396TIP3   OH228382   2.291   2.351  18.458  1.1101 -0.3267 -0.1841
 1396TIP3    H128383   2.232   2.307  18.397  0.6436 -0.9583  0.6919
 1396TIP3    H228384   2.299   2.290  18.532  1.7565  0.3591  0.3295
 1397TIP3   OH228385   6.569   6.475  18.312  0.4254  0.4111 -0.1809
 1397TIP3    H128386   6.625   6.542  18.351 -1.2963  1.9548 -0.2008
 1397TIP3    H228387   6.484   6.518  18.304 -0.5988 -1.6257 -0.7395
 1398TIP3   OH228388   7.067   7.095  17.879  0.5316  0.2038 -0.6254
 1398TIP3    H128389   7.148   7.049  17.900  0.1208  0.1896  1.0775
 1398TIP3    H228390   7.061   7.165  17.943 -0.6370  0.4189 -0.9341
 1399TIP3   OH228391   4.977   7.324  18.345  0.4096 -0.0465  0.1348
 1399TIP3    H128392   4.988   7.408  18.301  1.2681 -1.2685 -2.1867
 1399TIP3    H228393   4.928   7.344  18.425 -0.6994  2.4288 -1.0646
 1400TIP3   OH228394   7.626   3.373  18.977  0.0350  0.1387  0.1767
 1400TIP3    H128395   7.644   3.280  18.964 -0.4398 -0.1186  1.2259
 1400TIP3    H228396   7.712   3.411  18.995  0.1013 -0.3122  0.8763
 1401TIP3   OH228397   4.050   4.297  18.971  0.2690  0.0313  0.6776
 1401TIP3    H128398   3.968   4.278  18.924 -0.4004 -0.4384  1.9792
 1401TIP3    H228399   4.032   4.378  19.018  0.8225  0.3252  0.3917
 1402TIP3   OH228400   4.576   2.976  18.199 -0.0116  0.1402 -0.5428
 1402TIP3    H128401   4.497   2.956  18.249 -0.8578  1.2796 -1.3653
 1402TIP3    H228402   4.647   2.969  18.262 -0.9016  0.2303  0.4913
 1403TIP3   OH228403   6.807   7.485  18.124  0.0965 -0.6799 -0.1667
 1403TIP3    H128404   6.831   7.541  18.050  0.0153  0.1751  0.4450
 1403TIP3    H228405   6.734   7.433  18.091 -0.1191 -0.1177 -0.6030
 1404TIP3   OH228406   6.568   6.327  17.534  0.2175  0.6869  0.0881
 1404TIP3    H128407   6.632   6.388  17.497  1.8186 -1.1475 -0.3201
 1404TIP3    H228408   6.496   6.383  17.564  0.6463  2.6023 -2.1492
 1405TIP3   OH228409   1.272   4.668  18.470 -0.3031 -0.4137  0.1559
 1405TIP3    H128410   1.317   4.584  18.483  1.8780  0.9687  2.5753
 1405TIP3    H228411   1.203   4.668  18.536  0.3518  0.0513  0.8625
 1406TIP3   OH228412   7.545   0.851  18.078 -1.1103 -0.3639 -0.7715
 1406TIP3    H128413   7.600   0.779  18.047  2.1996  2.4996 -2.1794
 1406TIP3    H228414   7.496   0.879  18.000 -0.9268  0.0872 -0.7295
 1407TIP3   OH228415   3.063   4.579  19.576  0.8592 -0.3283 -0.8955
 1407TIP3    H128416   2.974   4.574  19.540  0.0338 -1.0705  1.1109
 1407TIP3    H228417   3.063   4.660  19.627  1.1511 -0.5763 -0.4941
 1408TIP3   OH228418   2.726   4.161  18.794 -0.3419 -0.3855 -0.0839
 1408TIP3    H128419   2.766   4.213  18.724 -0.9191  1.0389  0.6074
 1408TIP3    H228420   2.785   4.173  18.868 -1.0036  0.1197  0.3697
 1409TIP3   OH228421   0.115   7.175  19.564 -0.2645  0.3094  0.3857
 1409TIP3    H128422   0.112   7.082  19.542  0.6639  0.3177  0.2169
 1409TIP3    H228423   0.092   7.179  19.657 -0.2761 -0.0900  0.3994
 1410TIP3   OH228424   4.290   3.680  18.020  0.0557 -0.4589  0.5572
 1410TIP3    H128425   4.339   3.760  18.042  1.2215 -0.3882 -1.9201
 1410TIP3    H228426   4.250   3.699  17.935  0.7795 -2.6583 -0.3413
 1411TIP3   OH228427   6.782   1.985  17.826 -0.4641 -0.1032  0.2869
 1411TIP3    H128428   6.865   2.026  17.852 -1.0651  0.1596  1.8783
 1411TIP3    H228429   6.717   2.054  17.837 -0.9977 -0.5031 -0.3155
 1412TIP3   OH228430   6.914   6.758  18.498  0.3156  0.4594 -0.0087
 1412TIP3    H128431   6.868   6.791  18.576 -0.0529 -0.5023  0.1985
 1412TIP3    H228432   6.999   6.728  18.532  1.0689  2.0763 -0.3616
 1413TIP3   OH228433   4.951   3.958  18.351  0.1745  0.2697  0.2470
 1413TIP3    H128434   4.946   3.930  18.260 -0.2540  0.2180  0.2856
 1413TIP3    H228435   4.950   4.053  18.347 -0.9818  0.2777  0.2474
 1414TIP3   OH228436   2.731   4.862  17.342  0.6612  0.1366 -0.2564
 1414TIP3    H128437   2.663   4.815  17.390  0.6828 -0.4146 -0.7631
 1414TIP3    H228438   2.803   4.799  17.334  0.5163  0.0914 -1.3384
 1415TIP3   OH228439   1.851   0.565  17.080 -0.1968  0.2372  0.4008
 1415TIP3    H128440   1.884   0.651  17.108  0.0682  0.8137 -1.5350
 1415TIP3    H228441   1.916   0.503  17.113  0.3493  0.9172  0.6353
 1416TIP3   OH228442   5.205   0.120  18.697 -0.5602 -0.1462 -0.5189
 1416TIP3    H128443   5.277   0.066  18.728 -0.4215  0.7012  0.7053
 1416TIP3    H228444   5.143   0.123  18.769 -0.6661  1.1238 -0.6246
 1417TIP3   OH228445   7.450   5.358  17.812  0.0718  0.2726 -0.5806
 1417TIP3    H128446   7.529   5.378  17.863  0.5074 -0.5849 -0.9082
 1417TIP3    H228447   7.474   5.377  17.722 -0.7974  2.0828 -0.4857
 1418TIP3   OH228448   5.276   3.128  19.538 -0.0811  0.2973  0.1184
 1418TIP3    H128449   5.226   3.183  19.598  1.2236  1.4048  0.2613
 1418TIP3    H228450   5.336   3.190  19.494 -0.2253 -0.6538 -1.4956
 1419TIP3   OH228451   3.347   3.306  19.863  0.2651 -0.5686  0.3082
 1419TIP3    H128452   3.313   3.276  19.779  1.2712  0.5409 -0.5174
 1419TIP3    H228453   3.271   3.307  19.921 -0.2913 -2.0977 -0.3517
 1420TIP3   OH228454   0.342   5.104  18.157  0.1170 -0.1186 -0.3012
 1420TIP3    H128455   0.280   5.061  18.215  0.2776 -1.8217 -1.3110
 1420TIP3    H228456   0.428   5.087  18.195  0.1383 -0.0333 -0.3096
 1421TIP3   OH228457   1.794   0.446  18.813  0.3539 -0.2136 -0.0863
 1421TIP3    H128458   1.796   0.525  18.759 -0.0561  0.3715  0.7434
 1421TIP3    H228459   1.761   0.475  18.898 -2.3792 -1.6767 -0.5109
 1422TIP3   OH228460   3.543   3.876  17.865  0.3831  0.5703 -0.4361
 1422TIP3    H128461   3.639   3.878  17.862  0.3827  1.6441 -3.2180
 1422TIP3    H228462   3.518   3.967  17.877 -0.2245  0.6143 -1.7708
 1423TIP3   OH228463   3.343   2.694  19.218  0.8117 -0.2988 -0.3302
 1423TIP3    H128464   3.286   2.617  19.211  0.8394 -0.3337 -0.1766
 1423TIP3    H228465   3.314   2.738  19.298 -0.4414  0.8702 -1.3876
 1424TIP3   OH228466   4.285   1.802  19.231  0.0442 -0.7364 -0.3797
 1424TIP3    H128467   4.347   1.737  19.198  0.7254  0.0868 -0.7363
 1424TIP3    H228468   4.340   1.871  19.267 -0.6096  0.6430 -1.8999
 1425TIP3   OH228469   2.068   6.172  18.991 -0.7355 -0.4444  0.4466
 1425TIP3    H128470   2.030   6.202  18.908  0.1809  0.0433  0.1903
 1425TIP3    H228471   2.007   6.106  19.023 -2.0994  0.7213  0.3388
 1426TIP3   OH228472   1.502   6.994  19.718  0.1020  0.3144 -0.2711
 1426TIP3    H128473   1.473   6.915  19.763 -1.0506  1.0599  0.3347
 1426TIP3    H228474   1.576   7.026  19.770  0.6092 -0.3858 -0.5528
 1427TIP3   OH228475   5.856   6.966  18.849 -0.1467 -0.1324 -0.1332
 1427TIP3    H128476   5.806   6.994  18.773 -1.4675 -1.1890  0.3106
 1427TIP3    H228477   5.796   6.975  18.923  0.8494  0.1034  0.6662
 1428TIP3   OH228478   6.779   5.075  17.228 -0.1906  0.4978  0.7483
 1428TIP3    H128479   6.761   5.095  17.319 -0.0496  1.2255  0.6239
 1428TIP3    H228480   6.865   5.113  17.212  0.6133 -1.2182  0.8074
 1429TIP3   OH228481   3.215   1.488  18.479  0.6748 -0.4346  0.1833
 1429TIP3    H128482   3.311   1.488  18.489  0.7916 -0.9260 -0.8276
 1429TIP3    H228483   3.194   1.577  18.450  0.9083 -0.5518 -0.3408
 1430TIP3   OH228484   1.306   7.623  19.747  0.1911  0.3292 -0.2298
 1430TIP3    H128485   1.314   7.540  19.700 -1.0133  0.0960 -0.0641
 1430TIP3    H228486   1.364   7.614  19.822  0.9287  0.0880 -0.8197
 1431TIP3   OH228487   3.681   4.876  18.741 -0.0700 -0.3340 -0.0568
 1431TIP3    H128488   3.585   4.877  18.746 -0.1045  1.8962 -0.2571
 1431TIP3    H228489   3.703   4.785  18.721 -2.2111 -0.6477 -1.2681
 1432TIP3   OH228490   1.497   4.962  17.502 -0.1677  0.3527  0.9410
 1432TIP3    H128491   1.514   5.038  17.446  1.5250 -0.5137  0.2047
 1432TIP3    H228492   1.409   4.934  17.478  0.1600  0.5661 -0.6434
 1433TIP3   OH228493   2.409   7.003  19.684 -0.1862  0.2148 -0.2503
 1433TIP3    H128494   2.324   7.000  19.641 -0.6813 -0.8872  0.7446
 1433TIP3    H228495   2.391   7.038  19.771  0.5556  0.9340 -0.3692
 1434TIP3   OH228496   2.426   5.182  19.141 -0.6048  0.3938  0.1625
 1434TIP3    H128497   2.350   5.235  19.167 -1.8209 -0.5315 -1.3103
 1434TIP3    H228498   2.470   5.234  19.075 -1.0875  0.1341 -0.3778
 1435TIP3   OH228499   6.727   6.544  17.450  0.0985  0.1137 -0.2041
 1435TIP3    H128500   6.800   6.495  17.489 -0.6950 -1.6998 -0.8699
 1435TIP3    H228501   6.728   6.629  17.494  0.2592 -1.2236  2.5668
 1436TIP3   OH228502   0.248   6.292  19.419 -1.1144  0.5192  0.2560
 1436TIP3    H128503   0.311   6.342  19.471 -0.5176 -1.0531  1.1389
 1436TIP3    H228504   0.203   6.237  19.484 -0.6080 -1.2436 -0.8080
 1437TIP3   OH228505   5.676   0.507  18.756  0.4110  0.1475 -0.2722
 1437TIP3    H128506   5.770   0.508  18.774  0.3396 -0.5703  0.2015
 1437TIP3    H228507   5.668   0.542  18.668  1.0747  0.6945 -0.1296
 1438TIP3   OH228508   0.127   6.800  17.418 -0.1610 -0.4179 -0.2528
 1438TIP3    H128509   0.052   6.786  17.361 -1.0186 -1.4714  1.0748
 1438TIP3    H228510   0.201   6.762  17.369 -0.3664  0.9892 -1.7426
 1439TIP3   OH228511   5.817   7.170  19.409  0.1730  0.2326  0.1214
 1439TIP3    H128512   5.802   7.178  19.503  0.1992  0.2661  0.1224
 1439TIP3    H228513   5.894   7.114  19.401 -0.6156 -0.8688  0.0830
 1440TIP3   OH228514   7.023   3.863  18.176  0.3433  0.1347 -0.2331
 1440TIP3    H128515   6.967   3.878  18.252 -0.9138  0.4560 -1.1982
 1440TIP3    H228516   7.018   3.945  18.126 -1.6836 -1.2361 -2.4468
 1441TIP3   OH228517   3.031   3.101  19.713  0.1985  0.3846  0.3204
 1441TIP3    H128518   3.103   3.135  19.660  0.6897 -1.2798 -0.1244
 1441TIP3    H228519   3.054   3.010  19.730 -3.3868 -1.3796 -2.7898
 1442TIP3   OH228520   2.839   5.316  17.525  0.2934 -0.5181  0.6987
 1442TIP3    H128521   2.783   5.282  17.455  3.3639 -1.0523 -1.7453
 1442TIP3    H228522   2.848   5.409  17.505  2.0482 -0.8725 -0.4191
 1443TIP3   OH228523   7.399   4.769  19.211 -0.6136  0.3450 -0.0874
 1443TIP3    H128524   7.472   4.738  19.263 -1.1155  1.3106  1.2409
 1443TIP3    H228525   7.439   4.824  19.143 -0.0151 -0.3342 -0.2946
 1444TIP3   OH228526   0.874   5.548  18.394  0.4998 -0.3381  0.2918
 1444TIP3    H128527   0.797   5.600  18.373  1.7107  1.6587  0.6041
 1444TIP3    H228528   0.933   5.562  18.319  0.8195 -1.3590  0.3389
 1445TIP3   OH228529   6.673   5.664  17.687  0.2678 -0.1943 -0.2469
 1445TIP3    H128530   6.723   5.718  17.748 -0.3356  0.1850 -0.0705
 1445TIP3    H228531   6.657   5.583  17.735  0.0323 -0.0038  0.0029
 1446TIP3   OH228532   3.833   3.715  18.528  0.7731 -0.1504 -0.2802
 1446TIP3    H128533   3.894   3.646  18.553  0.5823 -0.9713 -1.9260
 1446TIP3    H228534   3.888   3.786  18.495  0.9035 -0.1423 -0.0435
 1447TIP3   OH228535   6.759   7.319  19.211  0.2225  0.6299  0.3240
 1447TIP3    H128536   6.792   7.398  19.255 -0.4927  1.9571 -1.4294
 1447TIP3    H228537   6.800   7.247  19.259 -1.7082  1.8324  4.2158
 1448TIP3   OH228538   4.363   3.313  18.904 -0.0251  0.7657 -0.1608
 1448TIP3    H128539   4.337   3.396  18.943 -0.3705  0.6138 -0.0623
 1448TIP3    H228540   4.392   3.260  18.978 -1.9216  0.0061  0.0989
 1449TIP3   OH228541   2.905   0.458  17.345 -0.3576 -0.4780  0.7141
 1449TIP3    H128542   2.905   0.500  17.259 -0.2680 -0.7027  0.6054
 1449TIP3    H228543   2.836   0.503  17.394  1.2013  1.3622  1.3735
 1450TIP3   OH228544   6.421   7.517  19.080 -0.6346 -0.1343 -0.1730
 1450TIP3    H128545   6.450   7.556  18.998  0.9028 -1.0133 -0.0777
 1450TIP3    H228546   6.413   7.591  19.140  2.2979  0.1462  0.0242
 1451TIP3   OH228547   0.412   1.657  17.430 -1.1226  0.9218 -0.3253
 1451TIP3    H128548   0.409   1.750  17.406 -0.2428  0.8441 -0.7726
 1451TIP3    H228549   0.466   1.616  17.362  0.8134  0.5649  1.3214
 1452TIP3   OH228550   1.964   1.801  17.756  0.2072  0.1135 -0.8924
 1452TIP3    H128551   1.912   1.790  17.676 -0.8190  0.5605 -0.2933
 1452TIP3    H228552   1.997   1.891  17.752 -2.1787  1.1355  0.5130
 1453TIP3   OH228553   3.702   0.743  17.605  0.2177  0.4403 -0.1982
 1453TIP3    H128554   3.619   0.790  17.597  0.1085  0.2829  0.0192
 1453TIP3    H228555   3.711   0.727  17.699  1.7492  2.7557  0.1458
 1454TIP3   OH228556   2.747   5.733  16.999  0.2256  0.2428  0.5545
 1454TIP3    H128557   2.809   5.661  17.007 -0.0622  0.1927  3.7639
 1454TIP3    H228558   2.739   5.768  17.088  0.6745  4.5674 -0.8796
 1455TIP3   OH228559   4.653   0.272  17.989  0.1747  0.1425 -0.0713
 1455TIP3    H128560   4.635   0.280  18.083  0.4725  0.9866 -0.0731
 1455TIP3    H228561   4.617   0.187  17.964 -0.0964  0.0060  0.7642
 1456TIP3   OH228562   6.228   2.504  16.880 -0.0964 -0.0092  0.0098
 1456TIP3    H128563   6.293   2.568  16.907  0.2291 -0.8714  1.3578
 1456TIP3    H228564   6.277   2.441  16.827  0.0783 -0.4258  0.6659
 1457TIP3   OH228565   3.681   1.990  18.043  0.5962  0.6438  0.5748
 1457TIP3    H128566   3.686   1.969  17.950  2.1200 -0.2843  0.8400
 1457TIP3    H228567   3.768   1.969  18.077 -0.4783 -0.8987  2.5841
 1458TIP3   OH228568   5.286   5.187  17.713 -0.5191  0.1660  0.5978
 1458TIP3    H128569   5.313   5.186  17.622  0.5693  0.3237  0.9003
 1458TIP3    H228570   5.366   5.168  17.762 -1.1303 -0.1567  1.5082
 1459TIP3   OH228571   0.916   6.076  17.480 -0.6809  0.3596  0.0165
 1459TIP3    H128572   0.846   6.045  17.537 -1.2678  1.2004 -0.2248
 1459TIP3    H228573   0.881   6.067  17.392 -0.3113  0.3641 -0.1345
 1460TIP3   OH228574   4.415   0.309  19.625 -0.0220  0.4795  0.0724
 1460TIP3    H128575   4.329   0.277  19.596  0.2980  1.0488 -1.6341
 1460TIP3    H228576   4.405   0.404  19.630 -0.0829  0.4020  2.0468
 1461TIP3   OH228577   6.652   2.439  19.757 -0.2790  0.1222 -0.4832
 1461TIP3    H128578   6.745   2.415  19.758  0.0214  1.0491  2.4056
 1461TIP3    H228579   6.606   2.358  19.736  1.0345 -1.3640  1.9919
 1462TIP3   OH228580   5.314   0.832  18.884  0.4400 -0.1868  0.2940
 1462TIP3    H128581   5.347   0.857  18.970  0.2246  0.4513  0.1994
 1462TIP3    H228582   5.391   0.831  18.827  0.2500  1.9718 -0.0840
 1463TIP3   OH228583   7.314   6.539  19.577 -0.5749 -0.5295 -0.2359
 1463TIP3    H128584   7.276   6.610  19.627 -2.0359 -0.3407 -1.5317
 1463TIP3    H228585   7.262   6.462  19.601  0.7286 -1.1064  0.8480
 1464TIP3   OH228586   6.602   7.653  19.319 -0.4592  0.4367  0.2249
 1464TIP3    H128587   6.695   7.635  19.331 -0.5032  1.5662  2.9644
 1464TIP3    H228588   6.597   7.705  19.239  1.4127  1.3421  0.6490
 1465TIP3   OH228589   2.379   0.045  17.594 -0.1222 -0.7196 -0.1789
 1465TIP3    H128590   2.335   0.120  17.554  0.6665  0.3329  0.8442
 1465TIP3    H228591   2.375  -0.024  17.527  0.7144  0.7949 -1.8916
 1466TIP3   OH228592   5.788   2.390  17.907 -0.2902 -0.4456  0.6310
 1466TIP3    H128593   5.758   2.407  17.817  1.0987 -0.8130  0.0738
 1466TIP3    H228594   5.757   2.302  17.926  0.0594 -0.6611  0.2214
 1467TIP3   OH228595   1.346   2.127  19.510  0.1720 -0.9869  0.1935
 1467TIP3    H128596   1.437   2.152  19.524  0.2094 -0.9898 -0.0357
 1467TIP3    H228597   1.295   2.197  19.551  0.2767 -1.0820  0.4892
 1468TIP3   OH228598   3.416   1.691  19.540  0.2226  0.0045  0.1489
 1468TIP3    H128599   3.466   1.687  19.458  1.0762 -1.5405  0.7059
 1468TIP3    H228600   3.471   1.741  19.600  0.3904 -0.3596  0.2988
 1469TIP3   OH228601   0.581   1.079  18.627  0.6543  0.3506  0.6989
 1469TIP3    H128602   0.566   0.987  18.650 -0.6160  0.7831  1.7007
 1469TIP3    H228603   0.674   1.093  18.647  0.2318 -0.0093  3.2484
 1470TIP3   OH228604   3.032   5.404  18.765 -0.4996 -0.2579 -0.0031
 1470TIP3    H128605   3.007   5.350  18.840 -1.3172 -1.1684 -0.9153
 1470TIP3    H228606   3.123   5.428  18.783 -1.3482  1.5079  2.4189
 1471TIP3   OH228607   6.447   1.628  18.844  0.2793  0.0693  0.4602
 1471TIP3    H128608   6.418   1.589  18.927  1.2464  0.4086  0.9814
 1471TIP3    H228609   6.538   1.600  18.836  0.3022  0.3561 -0.3108
 1472TIP3   OH228610   0.318   2.074  19.347 -0.8101  0.5248 -0.0447
 1472TIP3    H128611   0.322   1.986  19.385  1.1542  1.1807  1.4576
 1472TIP3    H228612   0.309   2.059  19.253  1.2632 -1.3781 -0.0197
 1473TIP3   OH228613   4.335   3.764  19.419  0.1518 -0.0356 -0.6239
 1473TIP3    H128614   4.281   3.824  19.471  2.1458  0.8840  0.5240
 1473TIP3    H228615   4.273   3.704  19.379 -1.5649 -0.7436  2.7391
 1474TIP3   OH228616   5.292   4.008  18.785 -0.5157  0.4336  0.1932
 1474TIP3    H128617   5.296   4.070  18.858  0.1985 -0.6630  1.1205
 1474TIP3    H228618   5.203   3.974  18.787 -0.2356 -0.2901  1.1831
 1475TIP3   OH228619   1.455   1.471  17.647  0.1262  0.4622 -0.0122
 1475TIP3    H128620   1.494   1.504  17.566  0.4211 -0.0086 -0.0681
 1475TIP3    H228621   1.511   1.504  17.717 -1.0971  2.3191  0.1596
 1476TIP3   OH228622   2.391   0.310  17.699 -0.0198 -0.3073  0.4396
 1476TIP3    H128623   2.458   0.328  17.764  1.2688  0.7094 -1.1062
 1476TIP3    H228624   2.416   0.225  17.662  0.5075  0.1238 -0.2150
 1477TIP3   OH228625   2.237   5.601  17.285 -0.5241 -0.4905 -0.1022
 1477TIP3    H128626   2.281   5.519  17.262  0.2015 -0.4506  1.0403
 1477TIP3    H228627   2.247   5.607  17.380  0.4860  1.4861 -0.2754
 1478TIP3   OH228628   5.774   1.399  19.206  0.1471 -0.4118  0.0121
 1478TIP3    H128629   5.739   1.416  19.293  0.6620  0.2632  0.0923
 1478TIP3    H228630   5.723   1.325  19.174 -0.5876 -0.1552  0.5651
 1479TIP3   OH228631   3.416   6.191  17.071  0.3676 -0.7865 -0.0287
 1479TIP3    H128632   3.350   6.230  17.127  0.1154 -1.8060  0.4123
 1479TIP3    H228633   3.447   6.263  17.015  0.6530  0.2602  1.4258
 1480TIP3   OH228634   4.558   2.006  19.792  0.1026  0.0141  0.2726
 1480TIP3    H128635   4.590   2.091  19.763  0.3076  0.2111  1.0590
 1480TIP3    H228636   4.613   1.943  19.746  2.0972  0.3469  2.0296
 1481TIP3   OH228637   4.567   3.154  19.652  0.0706 -0.2994 -0.0316
 1481TIP3    H128638   4.620   3.231  19.671  0.3226 -0.3144 -0.6597
 1481TIP3    H228639   4.500   3.153  19.721  0.7253 -0.1371  0.6234
 1482TIP3   OH228640   7.135   2.155  18.424 -0.4671 -0.2437 -0.0396
 1482TIP3    H128641   7.222   2.124  18.400 -0.1364  0.3794  0.3199
 1482TIP3    H228642   7.143   2.250  18.423 -1.4425 -0.1536 -1.0639
 1483TIP3   OH228643   4.024   0.226  19.794 -0.2216 -0.0197  0.0312
 1483TIP3    H128644   4.063   0.250  19.710  0.4783 -0.3137  0.2608
 1483TIP3    H228645   3.973   0.303  19.820  1.3107  0.9161  0.3633
 1484TIP3   OH228646   5.688   4.590  19.410 -0.2126 -0.1571 -0.1434
 1484TIP3    H128647   5.780   4.569  19.424  0.0701  0.7997 -0.4421
 1484TIP3    H228648   5.689   4.668  19.354 -1.1997 -0.1407 -0.1718
 1485TIP3   OH228649   4.572   1.496  17.834 -0.2782 -0.3699  0.1414
 1485TIP3    H128650   4.588   1.553  17.909  3.3099 -1.1827  0.1804
 1485TIP3    H228651   4.496   1.444  17.860 -1.4502  1.8534  1.5707
 1486TIP3   OH228652   0.221   5.204  17.938 -0.0038  0.7662 -0.5479
 1486TIP3    H128653   0.137   5.221  17.981  0.2317  2.6434 -0.7293
 1486TIP3    H228654   0.253   5.123  17.978 -0.9476  1.1295  1.0122
 1487TIP3   OH228655   7.387   5.856  18.791  0.5211  0.5476  0.1493
 1487TIP3    H128656   7.353   5.921  18.731 -0.3923  0.3587  0.4441
 1487TIP3    H228657   7.463   5.819  18.746 -1.7274 -1.6162 -2.2397
 1488TIP3   OH228658   2.505   1.641  19.213 -0.2970  0.0454  0.3843
 1488TIP3    H128659   2.539   1.721  19.173  0.2490 -0.0362  0.6821
 1488TIP3    H228660   2.438   1.611  19.152  0.5506 -0.1083 -0.4914
 1489TIP3   OH228661   0.063   3.205  18.497  0.1929 -0.0784 -0.1030
 1489TIP3    H128662   0.047   3.238  18.586  1.2762  2.0440 -0.6426
 1489TIP3    H228663   0.035   3.276  18.439  1.2963 -0.6511 -1.3843
 1490TIP3   OH228664   1.738   6.919  17.170  0.2172 -0.3615 -0.7812
 1490TIP3    H128665   1.650   6.911  17.208  2.0956  0.5445  4.6607
 1490TIP3    H228666   1.741   7.008  17.137 -0.5469  0.1150  0.3334
 1491TIP3   OH228667   6.351   4.249  18.431  0.2222 -0.4385  0.9723
 1491TIP3    H128668   6.293   4.323  18.448 -0.2142  0.3526 -3.0176
 1491TIP3    H228669   6.439   4.283  18.450  0.6939  3.2224 -5.1195
 1492TIP3   OH228670   6.646   7.352  18.813 -0.4275 -0.1323 -0.5375
 1492TIP3    H128671   6.714   7.368  18.748  2.3351 -3.0778  1.2930
 1492TIP3    H228672   6.668   7.412  18.885 -0.3969 -0.3785 -0.3411
 1493TIP3   OH228673   5.617   1.757  17.947  0.3643  0.0564  0.1354
 1493TIP3    H128674   5.565   1.818  17.999  1.9769  0.4662  1.3479
 1493TIP3    H228675   5.615   1.675  17.996  2.3865  0.6070  1.2703
 1494TIP3   OH228676   1.871   4.880  18.004 -0.4467 -0.2316 -0.4499
 1494TIP3    H128677   1.918   4.958  18.031 -1.6924  0.2813  0.3265
 1494TIP3    H228678   1.903   4.862  17.916 -0.6851  1.6201 -0.9655
 1495TIP3   OH228679   5.597   1.060  18.839  0.1514 -0.4308 -0.1821
 1495TIP3    H128680   5.629   1.125  18.776  0.6574  0.0100  0.5111
 1495TIP3    H228681   5.553   0.994  18.785  0.3845  0.0444 -0.9757
 1496TIP3   OH228682   7.490   6.428  17.749 -0.2490 -0.0324 -0.1349
 1496TIP3    H128683   7.471   6.355  17.808  0.7710  0.9901  1.5439
 1496TIP3    H228684   7.559   6.478  17.794 -0.2471  1.4313 -1.6685
 1497TIP3   OH228685   0.613   2.013  19.324 -0.1439 -0.0337  0.0044
 1497TIP3    H128686   0.586   1.921  19.329 -0.6184  0.1011  0.0241
 1497TIP3    H228687   0.558   2.057  19.390  1.1976  0.0063  1.1329
 1498TIP3   OH228688   6.874   3.609  18.505 -0.0217  0.0171 -0.5102
 1498TIP3    H128689   6.832   3.540  18.556  0.5788  0.4794  0.6359
 1498TIP3    H228690   6.832   3.690  18.535 -0.0139  0.2515 -1.1192
 1499TIP3   OH228691   0.499   3.122  18.365  0.5354  0.8838  0.0160
 1499TIP3    H128692   0.510   3.101  18.272 -0.7100 -1.0717  0.2399
 1499TIP3    H228693   0.570   3.076  18.409  0.8379  1.4127  0.0918
 1500TIP3   OH228694   7.062   5.355  16.881 -0.2962 -0.6638  0.5982
 1500TIP3    H128695   6.994   5.335  16.946  0.3243 -0.8806  1.1974
 1500TIP3    H228696   7.124   5.283  16.889 -1.0645 -1.6227 -1.4694
 1501TIP3   OH228697   0.186   5.764  16.970 -0.1058 -0.3235  0.4056
 1501TIP3    H128698   0.195   5.748  16.876 -2.7340 -1.7272  0.2931
 1501TIP3    H228699   0.219   5.685  17.011 -0.7330 -0.5203  0.5424
 1502TIP3   OH228700   7.238   1.618  17.439 -0.2545 -0.9007  0.2130
 1502TIP3    H128701   7.321   1.578  17.464 -0.4242 -0.7305  1.0701
 1502TIP3    H228702   7.247   1.710  17.463 -0.1074 -0.5300 -1.1587
 1503TIP3   OH228703   0.110   6.999  19.131  0.4556 -0.3803  0.4647
 1503TIP3    H128704   0.156   7.044  19.060  1.4497 -0.5842  0.9744
 1503TIP3    H228705   0.051   6.938  19.086  0.3696  0.1750 -0.1949
 1504TIP3   OH228706   0.586   6.700  18.938  0.5174 -0.1405 -0.1349
 1504TIP3    H128707   0.514   6.670  18.994 -0.5557  2.3378 -0.0485
 1504TIP3    H228708   0.557   6.679  18.849  0.7013 -1.0997  0.0233
 1505TIP3   OH228709   5.551   5.962  19.081  0.3652 -0.0729  0.4209
 1505TIP3    H128710   5.541   5.901  19.008  2.5066 -2.0488  1.6263
 1505TIP3    H228711   5.578   5.907  19.154 -1.7210  1.8033  2.7871
 1506TIP3   OH228712   1.900   7.213  18.039  0.0485 -0.1978 -0.0530
 1506TIP3    H128713   1.861   7.299  18.025 -0.3943 -0.5392 -0.9947
 1506TIP3    H228714   1.827   7.158  18.067  0.3140 -0.2978  0.4652
 1507TIP3   OH228715   3.636   5.394  17.129  0.4406  0.6660 -0.0917
 1507TIP3    H128716   3.582   5.457  17.178 -0.9403  0.8895 -1.7902
 1507TIP3    H228717   3.576   5.322  17.108  1.0493  0.4532 -1.1836
 1508TIP3   OH228718   0.922   5.531  18.074 -0.3853  0.5734 -0.0791
 1508TIP3    H128719   0.834   5.532  18.037 -0.7174  2.8619  0.5915
 1508TIP3    H228720   0.969   5.598  18.025  1.0770 -0.7713 -0.5662
 1509TIP3   OH228721   3.363   0.204  19.159  0.0735 -0.1700 -0.4711
 1509TIP3    H128722   3.328   0.200  19.070  0.0102  0.6874 -0.4908
 1509TIP3    H228723   3.323   0.282  19.196  0.3465 -0.3548  0.2111
 1510TIP3   OH228724   4.018   0.691  17.962 -0.0221  0.1621 -0.4212
 1510TIP3    H128725   4.107   0.660  17.979  0.0227  0.2288 -0.5303
 1510TIP3    H228726   4.026   0.787  17.965 -0.4142  0.1749  1.2641
 1511TIP3   OH228727   5.888   0.572  17.973 -0.1437 -0.5462 -0.1573
 1511TIP3    H128728   5.825   0.540  17.909 -1.9922  0.9862  0.8139
 1511TIP3    H228729   5.857   0.659  17.998  2.4147  0.3400  0.3220
 1512TIP3   OH228730   4.346   2.389  18.952  0.4934  0.5379 -0.3609
 1512TIP3    H128731   4.341   2.485  18.951 -0.5145  0.5132  0.8446
 1512TIP3    H228732   4.266   2.361  18.995  0.8762 -0.8593 -0.5136
 1513TIP3   OH228733   1.474   4.582  17.743 -0.2241  0.6512  0.0888
 1513TIP3    H128734   1.529   4.543  17.810 -0.3543  0.1209 -0.1033
 1513TIP3    H228735   1.394   4.529  17.745 -0.3196  0.7781 -0.3207
 1514TIP3   OH228736   7.560   2.669  19.038 -0.0535 -0.0411  0.3940
 1514TIP3    H128737   7.564   2.577  19.012  0.6659  0.1954 -0.3728
 1514TIP3    H228738   7.468   2.693  19.027 -0.4642 -0.9555  1.6514
 1515TIP3   OH228739   6.350   0.441  18.160  0.0827  0.4119  0.8100
 1515TIP3    H128740   6.361   0.505  18.230 -0.5615 -0.9111  2.1712
 1515TIP3    H228741   6.430   0.388  18.163  0.6856  1.2208 -0.4138
 1516TIP3   OH228742   3.881   1.622  17.853  0.3389  0.1445  0.2645
 1516TIP3    H128743   3.850   1.576  17.775 -0.3166 -0.0202  0.6085
 1516TIP3    H228744   3.960   1.574  17.880  1.6859  1.3455 -1.3607
 1517TIP3   OH228745   3.753   3.952  18.219  0.1410  0.3228  0.5017
 1517TIP3    H128746   3.833   3.903  18.239  0.4219  1.1724  1.5340
 1517TIP3    H228747   3.779   4.044  18.225 -0.6755  0.6149 -0.1878
 1518TIP3   OH228748   5.439   6.434  18.031  0.2733 -0.7347 -0.1842
 1518TIP3    H128749   5.371   6.462  17.970 -0.6779 -0.6923  0.8752
 1518TIP3    H228750   5.451   6.341  18.012  0.0126 -0.7162 -0.4445
 1519TIP3   OH228751   0.848   4.130  19.046  0.7094 -0.1658  0.2631
 1519TIP3    H128752   0.915   4.128  18.978  1.3434  0.4646  0.8485
 1519TIP3    H228753   0.889   4.177  19.118 -0.5871  0.8061  0.4027
 1520TIP3   OH228754   1.276   5.537  20.087  0.4074 -0.3574  0.2867
 1520TIP3    H128755   1.203   5.595  20.067  1.7315  0.8000 -1.4499
 1520TIP3    H228756   1.313   5.572  20.169  0.4181  0.5062 -0.0732
 1521TIP3   OH228757   3.590   1.742  19.755 -0.0555  0.3374 -0.0975
 1521TIP3    H128758   3.661   1.803  19.735  0.4588  0.1360  1.0230
 1521TIP3    H228759   3.634   1.659  19.773 -0.5721  0.1865  0.5262
 1522TIP3   OH228760   4.905   4.477  17.722  0.2984  0.0802 -0.4438
 1522TIP3    H128761   4.890   4.439  17.635  0.2840 -2.3565  0.5630
 1522TIP3    H228762   4.877   4.569  17.712  1.1137  0.1290 -3.2109
 1523TIP3   OH228763   1.093   5.640  17.625  0.0361  0.3314  0.0859
 1523TIP3    H128764   1.014   5.649  17.572  1.2453  1.0031 -1.7307
 1523TIP3    H228765   1.140   5.567  17.586  0.0166 -0.5393  1.6060
 1524TIP3   OH228766   6.754   3.125  19.643  0.1713 -0.6968  0.0777
 1524TIP3    H128767   6.670   3.148  19.604  0.6130  0.6539 -0.1155
 1524TIP3    H228768   6.736   3.120  19.737 -0.2004 -0.8150  0.0040
 1525TIP3   OH228769   7.115   5.093  19.371  0.3924 -0.0702 -0.3444
 1525TIP3    H128770   7.184   5.032  19.395 -0.9956 -1.1885  0.9903
 1525TIP3    H228771   7.034   5.044  19.384 -0.7052  1.4885 -0.9754
 1526TIP3   OH228772   2.263   4.200  18.578  0.0149  0.4077 -0.1964
 1526TIP3    H128773   2.342   4.201  18.631 -0.4162 -1.5281  0.5653
 1526TIP3    H228774   2.218   4.120  18.603 -1.4632  0.7054 -1.6906
 1527TIP3   OH228775   4.135   0.550  18.872  1.1311 -1.1553 -0.0658
 1527TIP3    H128776   4.120   0.559  18.778 -0.0818  0.9488  0.2532
 1527TIP3    H228777   4.230   0.561  18.882  1.4133 -2.4722 -1.1152
 1528TIP3   OH228778   1.763   3.311  18.101  0.7469  0.3723  0.2777
 1528TIP3    H128779   1.769   3.315  18.005 -1.6104  0.8328  0.1107
 1528TIP3    H228780   1.764   3.402  18.130 -1.0767  0.3722  0.4545
 1529TIP3   OH228781   4.902   7.186  17.559 -0.7709 -0.2856 -0.1999
 1529TIP3    H128782   4.951   7.266  17.538  0.4560 -0.9450  0.0490
 1529TIP3    H228783   4.810   7.213  17.557 -0.3771  1.1565  0.0084
 1530TIP3   OH228784   6.299   2.791  18.066  0.2676 -0.2819 -0.0537
 1530TIP3    H128785   6.394   2.781  18.053 -0.2164 -2.6719 -2.3809
 1530TIP3    H228786   6.262   2.708  18.040 -2.3735 -0.3822  3.3510
 1531TIP3   OH228787   0.500   4.078  16.777 -0.2212  0.1002  0.1369
 1531TIP3    H128788   0.472   4.030  16.855 -1.0381  1.2902  0.6093
 1531TIP3    H228789   0.432   4.144  16.764 -0.2520 -0.2511 -1.7649
 1532TIP3   OH228790   6.609   2.935  18.905 -0.3162  0.1343 -0.8909
 1532TIP3    H128791   6.601   2.860  18.846 -3.2038 -0.7171  0.3825
 1532TIP3    H228792   6.576   3.009  18.853 -0.4901 -0.1154 -1.1456
 1533TIP3   OH228793   2.956   2.531  29.132 -0.7275  0.3287 -0.0579
 1533TIP3    H128794   2.975   2.572  29.217 -0.2394 -0.8941  0.4352
 1533TIP3    H228795   3.019   2.572  29.073 -0.1381  0.1910  0.4607
 1534TIP3   OH228796   5.315   2.994  17.757 -0.1358  0.3060  0.2280
 1534TIP3    H128797   5.253   2.937  17.711 -1.6614  3.0486 -1.3928
 1534TIP3    H228798   5.310   2.966  17.848 -2.0419 -1.0857 -0.2305
 1535TIP3   OH228799   7.673   6.896  19.635 -0.6017 -0.0736 -0.4370
 1535TIP3    H128800   7.711   6.876  19.549  0.9001 -0.9311  0.3926
 1535TIP3    H228801   7.667   6.812  19.679  1.5990  0.6789  1.4463
 1536TIP3   OH228802   0.893   6.400  19.268 -0.7020 -0.1853  0.3717
 1536TIP3    H128803   0.870   6.353  19.187 -0.5596  0.7313 -0.2173
 1536TIP3    H228804   0.885   6.334  19.337 -0.3327 -1.1233 -0.4511
 1537TIP3   OH228805   3.554   0.159  16.880  0.1034  0.1586 -0.1709
 1537TIP3    H128806   3.636   0.175  16.834  0.1090  0.5415 -0.0266
 1537TIP3    H228807   3.491   0.140  16.811  0.1325  0.6414 -0.3277
 1538TIP3   OH228808   5.764   2.467  18.279 -0.4956 -0.4621 -0.0937
 1538TIP3    H128809   5.743   2.511  18.197 -0.2969  0.9020  0.5663
 1538TIP3    H228810   5.716   2.516  18.346 -1.8325 -2.4079  0.4931
 1539TIP3   OH228811   4.672   5.295  18.966 -0.1799  0.2898 -0.3583
 1539TIP3    H128812   4.680   5.324  18.875 -2.5771 -1.1657 -1.1393
 1539TIP3    H228813   4.730   5.219  18.971 -0.7778 -0.2270 -0.9985
 1540TIP3   OH228814   0.672   4.231  17.535  0.0452  0.0103  0.6006
 1540TIP3    H128815   0.609   4.169  17.498 -1.1325  1.0390  0.8103
 1540TIP3    H228816   0.662   4.222  17.629  2.0024 -1.5611  0.7155
 1541TIP3   OH228817   1.385   6.443  18.709  0.5176 -0.4396 -0.5061
 1541TIP3    H128818   1.366   6.532  18.738  0.4092  0.0790 -2.0928
 1541TIP3    H228819   1.474   6.426  18.741  0.3990  0.0858  0.1230
 1542TIP3   OH228820   5.814   3.043  17.549 -0.0670 -0.0964  0.3274
 1542TIP3    H128821   5.725   3.048  17.585  0.0292  1.2922  0.4369
 1542TIP3    H228822   5.871   3.051  17.625  0.1595 -0.8558  0.2413
 1543TIP3   OH228823   6.772   0.109  17.621  0.0227 -0.0362 -0.3053
 1543TIP3    H128824   6.844   0.047  17.612  0.0320  0.0074 -0.5299
 1543TIP3    H228825   6.740   0.122  17.532 -0.8556 -0.7585 -0.1060
 1544TIP3   OH228826   4.992   4.606  18.931 -0.0060  0.2013  0.4124
 1544TIP3    H128827   5.004   4.514  18.956 -0.0679  0.6042  2.0274
 1544TIP3    H228828   4.898   4.620  18.932 -0.0639  0.0629 -0.7974
 1545TIP3   OH228829   5.180   4.507  17.842 -0.2997  0.1302 -1.3206
 1545TIP3    H128830   5.089   4.491  17.816  0.4820 -1.3801 -3.3191
 1545TIP3    H228831   5.192   4.601  17.830 -2.4124  1.0134  2.0164
 1546TIP3   OH228832   0.160   6.939  19.405  0.3108  0.3453  0.0378
 1546TIP3    H128833   0.159   6.975  19.317  0.5859  1.4773  0.4804
 1546TIP3    H228834   0.247   6.900  19.415  0.4413  0.6239 -0.0262
 1547TIP3   OH228835   7.040   0.983  19.538 -0.2036  0.2473 -0.2597
 1547TIP3    H128836   7.017   0.926  19.611  0.3978  1.0791  0.6142
 1547TIP3    H228837   7.090   0.928  19.478 -1.1604 -0.5834 -0.3200
 1548TIP3   OH228838   3.097   2.865  19.177 -0.0370 -0.6068  0.2089
 1548TIP3    H128839   3.088   2.892  19.268  0.1554  0.1739 -0.0000
 1548TIP3    H228840   3.184   2.825  19.173  0.5535  0.6326  0.0722
 1549TIP3   OH228841   4.566   2.542  19.098  0.3362  0.6317  0.3153
 1549TIP3    H128842   4.549   2.490  19.020 -0.1154 -0.0870  0.8794
 1549TIP3    H228843   4.661   2.542  19.108  0.7540  3.5648 -2.1198
 1550TIP3   OH228844   4.365   2.636  18.090 -0.1645  0.4741 -0.0003
 1550TIP3    H128845   4.427   2.567  18.068 -1.9435 -1.0292 -0.5343
 1550TIP3    H228846   4.378   2.651  18.184 -0.3644 -1.2870  0.3458
 1551TIP3   OH228847   2.720   5.556  19.923 -0.2413 -0.0001  0.3457
 1551TIP3    H128848   2.712   5.502  19.845 -1.2372 -1.2070  1.2359
 1551TIP3    H228849   2.646   5.617  19.918 -1.0791 -0.9348  0.9529
 1552TIP3   OH228850   5.164   5.597  17.128 -0.3989  0.4903 -0.6445
 1552TIP3    H128851   5.103   5.556  17.066 -1.0310 -0.1512  0.3755
 1552TIP3    H228852   5.204   5.523  17.174 -0.7445  0.9801  0.4638
 1553TIP3   OH228853   6.182   7.468  18.409  0.5126 -0.3968  0.0891
 1553TIP3    H128854   6.235   7.547  18.418 -0.8118  0.6180 -0.6948
 1553TIP3    H228855   6.246   7.398  18.396  1.7798  0.3061  2.0504
 1554TIP3   OH228856   6.473   6.667  19.360 -0.1490  0.0051  0.0096
 1554TIP3    H128857   6.476   6.665  19.456  0.1458 -0.4375 -0.0114
 1554TIP3    H228858   6.550   6.618  19.332  0.0579  0.5799 -0.4572
 1555TIP3   OH228859   4.698   1.805  19.334 -0.5132 -0.6144 -0.3325
 1555TIP3    H128860   4.790   1.809  19.308 -0.4260  1.9930  0.0969
 1555TIP3    H228861   4.656   1.754  19.266  1.2369 -1.9575 -0.4912
 1556TIP3   OH228862   3.538   3.708  18.777  0.0025  0.1734 -0.1235
 1556TIP3    H128863   3.536   3.649  18.702  0.6019 -1.4823  1.0942
 1556TIP3    H228864   3.448   3.742  18.783 -0.4452 -0.8552 -0.6894
 1557TIP3   OH228865   5.481   6.219  19.568  0.5543 -0.1546 -0.1734
 1557TIP3    H128866   5.486   6.125  19.555  1.3521 -0.0783 -0.4341
 1557TIP3    H228867   5.406   6.247  19.515  0.2984 -0.6337 -0.0733
 1558TIP3   OH228868   5.250   5.416  17.354 -0.3622 -0.0282 -0.2220
 1558TIP3    H128869   5.159   5.392  17.371  0.0259  0.5262  3.4722
 1558TIP3    H228870   5.302   5.350  17.400  1.0528  0.6688 -0.7505
 1559TIP3   OH228871   2.855   1.729  18.701  0.4572 -0.6097  0.4721
 1559TIP3    H128872   2.816   1.667  18.640  2.2647  0.5064 -2.0307
 1559TIP3    H228873   2.944   1.696  18.715  0.3398 -0.3902  1.9226
 1560TIP3   OH228874   4.682   0.372  18.943 -0.6353  0.2011 -0.0228
 1560TIP3    H128875   4.645   0.460  18.951 -0.5242  0.2077  0.4713
 1560TIP3    H228876   4.713   0.351  19.031 -1.6448 -0.7711  0.1259
 1561TIP3   OH228877   3.143   5.397  17.337 -0.1483  0.3845 -0.3539
 1561TIP3    H128878   3.079   5.436  17.396  2.1925  2.8635  0.7763
 1561TIP3    H228879   3.106   5.412  17.249 -2.2789 -0.6905  0.2874
 1562TIP3   OH228880   6.479   7.440  18.143  0.0621  0.2521  0.7755
 1562TIP3    H128881   6.476   7.525  18.188  3.5621 -0.3939  2.5619
 1562TIP3    H228882   6.444   7.378  18.207 -0.5706  0.0625  0.2538
 1563TIP3   OH228883   1.522   2.134  18.718 -0.4083 -0.7479  0.7597
 1563TIP3    H128884   1.463   2.061  18.736 -2.0139  0.6713  1.5667
 1563TIP3    H228885   1.464   2.206  18.692  1.1468  0.1481 -0.3712
 1564TIP3   OH228886   2.443   1.182  17.835  0.5196 -0.6877  0.3494
 1564TIP3    H128887   2.498   1.116  17.794  0.6864 -2.6859  3.4072
 1564TIP3    H228888   2.500   1.258  17.846  0.7252 -0.4386 -2.0580
 1565TIP3   OH228889   4.418   0.020  17.299 -0.3243  0.6043 -0.0796
 1565TIP3    H128890   4.356  -0.032  17.249  1.0496 -0.5074 -0.6943
 1565TIP3    H228891   4.500   0.014  17.249 -0.0242  3.1393 -0.0260
 1566TIP3   OH228892   6.788   2.787  17.827  0.5346 -0.3720  0.2620
 1566TIP3    H128893   6.727   2.743  17.768  1.0438  1.5754 -1.8864
 1566TIP3    H228894   6.861   2.726  17.837  0.3189 -0.8446 -0.9531
 1567TIP3   OH228895   6.289   2.725  18.850 -0.4440 -0.1318 -0.2445
 1567TIP3    H128896   6.253   2.690  18.769 -0.6563 -0.8942  0.1742
 1567TIP3    H228897   6.229   2.696  18.918 -1.9105  2.8932 -0.0776
 1568TIP3   OH228898   5.199   1.410  18.670  0.1887 -0.3035 -0.0005
 1568TIP3    H128899   5.256   1.364  18.731 -0.1924 -0.3740  0.3063
 1568TIP3    H228900   5.113   1.369  18.682  0.1680 -0.5032 -0.7802
 1569TIP3   OH228901   4.959   1.980  18.350  0.0395  1.0574  0.0672
 1569TIP3    H128902   5.029   1.930  18.392 -0.2787  0.1662 -0.4193
 1569TIP3    H228903   4.905   2.012  18.422 -0.1653  0.0536  0.3736
 1570TIP3   OH228904   0.891   6.522  18.202 -0.5400  0.2092 -0.6019
 1570TIP3    H128905   0.828   6.568  18.146 -0.7036  1.2656  0.4332
 1570TIP3    H228906   0.842   6.448  18.237 -0.2623 -0.8529 -2.3058
 1571TIP3   OH228907   0.419   1.659  18.501  0.3672  0.4551  0.1826
 1571TIP3    H128908   0.338   1.627  18.461  0.8513  0.4779 -0.8326
 1571TIP3    H228909   0.396   1.673  18.593 -0.5411 -0.3825  0.0968
 1572TIP3   OH228910   2.674   6.885  18.810  0.3968 -0.1707  0.0609
 1572TIP3    H128911   2.763   6.892  18.776 -0.1021  2.8854 -0.9081
 1572TIP3    H228912   2.618   6.881  18.732 -0.3851 -1.7580  0.6520
 1573TIP3   OH228913   2.636   5.962  18.753 -0.5931 -0.7251  0.2393
 1573TIP3    H128914   2.577   6.034  18.731  1.9110  1.7326  0.9804
 1573TIP3    H228915   2.655   5.921  18.669 -1.5038 -0.0559 -0.3230
 1574TIP3   OH228916   4.625   4.071  18.597 -0.1802 -0.1918 -0.1578
 1574TIP3    H128917   4.624   4.101  18.688  1.5543  0.7701 -0.4270
 1574TIP3    H228918   4.620   3.976  18.603 -0.2580 -0.1311  0.9233
 1575TIP3   OH228919   2.887   1.009  19.257  0.1816  1.0993  0.0209
 1575TIP3    H128920   2.849   1.002  19.345  3.1692 -2.2666  1.2830
 1575TIP3    H228921   2.964   1.063  19.268  1.7293 -0.9905  0.0788
 1576TIP3   OH228922   6.702   0.496  19.090 -0.4238 -0.1571  0.6522
 1576TIP3    H128923   6.707   0.568  19.027  1.1953 -1.7909 -1.2090
 1576TIP3    H228924   6.785   0.449  19.079 -1.0956 -1.8694  2.3676
 1577TIP3   OH228925   5.566   3.829  18.303  0.1644 -0.0332 -0.1917
 1577TIP3    H128926   5.570   3.747  18.353 -1.7898 -2.1052 -3.0710
 1577TIP3    H228927   5.631   3.817  18.233 -1.1138  0.2043 -1.4651
 1578TIP3   OH228928   3.061   4.959  17.561 -0.4516 -0.1079  0.3482
 1578TIP3    H128929   3.076   4.998  17.475  1.0246  0.0588  0.6438
 1578TIP3    H228930   3.088   5.027  17.623  0.1283 -0.8264  0.9044
 1579TIP3   OH228931   6.893   3.086  18.117 -0.1597 -0.3934 -0.6712
 1579TIP3    H128932   6.799   3.078  18.129 -0.1723  0.2994 -0.2199
 1579TIP3    H228933   6.905   3.101  18.024 -0.6419  1.1984 -0.5094
 1580TIP3   OH228934   0.726   4.367  18.455  0.6375  0.4218 -0.1899
 1580TIP3    H128935   0.804   4.418  18.477 -0.1812  1.7294 -0.2148
 1580TIP3    H228936   0.711   4.385  18.362 -0.1104  0.7969 -0.0084
 1581TIP3   OH228937   1.847   6.360  17.388 -0.1771  0.1660 -0.2050
 1581TIP3    H128938   1.837   6.303  17.464 -0.4429  2.7210  1.8052
 1581TIP3    H228939   1.759   6.369  17.352 -0.8412  2.1031  1.7142
 1582TIP3   OH228940   5.863   0.839  17.468  0.1605  0.1444  0.2665
 1582TIP3    H128941   5.830   0.859  17.381  0.0029  1.3686  0.5843
 1582TIP3    H228942   5.942   0.788  17.453  0.0042  0.1381 -0.5873
 1583TIP3   OH228943   3.449   6.962  17.806 -0.3554 -0.4065  0.0709
 1583TIP3    H128944   3.469   6.955  17.713 -0.2972 -0.0612  0.0569
 1583TIP3    H228945   3.375   7.023  17.810 -0.6760 -0.8005  0.2126
 1584TIP3   OH228946   2.609   6.652  19.788  0.1678  0.7512  0.3634
 1584TIP3    H128947   2.679   6.632  19.727 -0.4905  2.8906 -1.1818
 1584TIP3    H228948   2.639   6.730  19.835 -0.5682  0.8237  0.7307
 1585TIP3   OH228949   4.674   5.938  19.609 -0.3341 -0.7620 -0.3825
 1585TIP3    H128950   4.745   5.936  19.545 -0.4556 -1.3497 -0.5063
 1585TIP3    H228951   4.638   5.850  19.607 -0.6682 -0.6394  0.1316
 1586TIP3   OH228952   4.143   2.526  16.860  0.3582  0.7312  0.2770
 1586TIP3    H128953   4.238   2.533  16.873  0.4106  0.2726  0.1666
 1586TIP3    H228954   4.129   2.433  16.842  0.0761  1.0380 -1.1981
 1587TIP3   OH228955   6.339   4.394  17.951  0.1276  0.0434 -0.8390
 1587TIP3    H128956   6.434   4.392  17.955  0.1686  1.9974  2.9985
 1587TIP3    H228957   6.319   4.456  17.880  1.6753 -0.0177 -1.3588
 1588TIP3   OH228958   4.208   5.613  18.219 -0.0691  0.0092  0.1435
 1588TIP3    H128959   4.126   5.568  18.195 -1.7628  1.9691  1.8158
 1588TIP3    H228960   4.215   5.600  18.313  0.8477  1.0032  0.2243
 1589TIP3   OH228961   2.846   4.140  18.050  0.0262  0.3628 -0.4891
 1589TIP3    H128962   2.762   4.132  18.096  1.1889  0.6380  1.8432
 1589TIP3    H228963   2.827   4.113  17.961 -2.0613 -1.7998  0.4949
 1590TIP3   OH228964   2.784   5.604  17.577 -0.0951  0.2847  0.6818
 1590TIP3    H128965   2.696   5.572  17.556  0.0852 -0.9054  1.6152
 1590TIP3    H228966   2.785   5.612  17.672  0.7943  0.3227  0.6783
 1591TIP3   OH228967   6.382   0.678  19.396 -0.3019  0.4810  0.0335
 1591TIP3    H128968   6.470   0.643  19.407 -1.0890 -1.6429 -0.0129
 1591TIP3    H228969   6.377   0.700  19.303 -0.0575 -0.1005 -0.1228
 1592TIP3   OH228970   5.636   4.795  18.951 -0.3700 -0.1409  0.4064
 1592TIP3    H128971   5.661   4.849  19.025 -2.6888  1.4430  0.1243
 1592TIP3    H228972   5.617   4.709  18.988  1.9443 -0.4458  1.0599
 1593TIP3   OH228973   2.177   0.993  19.283  0.5968 -0.7587 -0.3003
 1593TIP3    H128974   2.084   1.016  19.285  1.1016  1.5803  1.0271
 1593TIP3    H228975   2.185   0.920  19.344 -0.1939  0.0861  0.8736
 1594TIP3   OH228976   0.197   0.308  17.377 -0.0181 -0.3584  0.4337
 1594TIP3    H128977   0.228   0.332  17.289  0.8440  0.0294  0.8322
 1594TIP3    H228978   0.118   0.359  17.389 -1.1494 -1.7149 -0.7955
 1595TIP3   OH228979   7.270   2.190  17.579 -0.2509 -0.0795 -0.0618
 1595TIP3    H128980   7.249   2.173  17.488  0.7855  2.1516 -0.8050
 1595TIP3    H228981   7.233   2.277  17.597  1.8316  0.7356  0.7454
 1596TIP3   OH228982   5.823   3.582  18.355 -0.2716 -0.3005  0.1785
 1596TIP3    H128983   5.785   3.514  18.411 -0.0939 -1.2993 -0.8733
 1596TIP3    H228984   5.779   3.571  18.271 -1.2083  1.7754  0.3284
 1597TIP3   OH228985   0.491   0.673  18.207 -0.2573 -0.2811 -0.0672
 1597TIP3    H128986   0.530   0.610  18.147  0.7187  1.1068 -0.9526
 1597TIP3    H228987   0.549   0.672  18.283  0.4916  0.4412 -0.6123
 1598TIP3   OH228988   5.714   0.745  18.136  0.1590 -0.2458  0.3349
 1598TIP3    H128989   5.672   0.830  18.124 -2.4116 -1.4474  0.2994
 1598TIP3    H228990   5.778   0.760  18.206 -0.6857  1.5566  0.7819
 1599TIP3   OH228991   5.645   2.651  17.274 -0.4841  0.6786 -0.0099
 1599TIP3    H128992   5.680   2.712  17.209 -1.5119  0.2878 -0.9423
 1599TIP3    H228993   5.709   2.579  17.276 -1.5967 -0.4748 -2.3677
 1600TIP3   OH228994   1.200   7.492  18.720  0.1303  0.0602  0.0513
 1600TIP3    H128995   1.136   7.547  18.767  1.6459  0.3788  1.8612
 1600TIP3    H228996   1.283   7.539  18.730  1.2387 -1.9216  0.5592
 1601TIP3   OH228997   0.651   1.493  17.747  0.0263  0.0769  0.5374
 1601TIP3    H128998   0.594   1.424  17.712  0.2846 -0.2612  0.7766
 1601TIP3    H228999   0.662   1.554  17.675 -1.3880  0.6307  0.7538
 1602TIP3   OH229000   1.844   6.969  17.504  0.6236  0.2849 -0.3222
 1602TIP3    H129001   1.804   6.915  17.435  0.2973 -0.0534  0.1239
 1602TIP3    H229002   1.928   6.997  17.467  0.4473  0.1184 -0.8605
 1603TIP3   OH229003   1.918   0.942  18.947  0.4547 -0.7017 -0.2145
 1603TIP3    H129004   1.956   0.942  18.860  2.6132 -0.9989  0.6614
 1603TIP3    H229005   1.834   0.897  18.937 -0.2519  0.9402 -2.4512
 1604TIP3   OH229006   6.833   2.039  18.510 -0.5937 -0.0589  0.9711
 1604TIP3    H129007   6.758   2.042  18.451 -0.4741 -0.6020  0.7859
 1604TIP3    H229008   6.797   2.010  18.593 -0.4245 -1.4789  0.5831
 1605TIP3   OH229009   2.737   2.954  19.715  0.1395  0.5525  0.2899
 1605TIP3    H129010   2.711   3.034  19.669 -1.0348 -0.8001 -1.5350
 1605TIP3    H229011   2.804   2.916  19.658 -0.9899 -0.9122 -0.1163
 1606TIP3   OH229012   1.902   4.983  19.084  0.2154  0.1741  0.2591
 1606TIP3    H129013   1.977   4.949  19.036 -0.6634 -0.2066 -0.8801
 1606TIP3    H229014   1.911   5.078  19.080  0.4023  0.1376 -0.2696
 1607TIP3   OH229015   6.875   0.068  19.607  0.1041  0.2072  0.2988
 1607TIP3    H129016   6.945   0.030  19.660 -1.2199 -0.9930  1.2788
 1607TIP3    H229017   6.878   0.019  19.525  1.4024  1.2660 -0.3313
 1608TIP3   OH229018   4.841   0.925  18.891  0.0622 -0.0016  0.6351
 1608TIP3    H129019   4.791   0.875  18.827  1.7895 -0.8075 -0.1300
 1608TIP3    H229020   4.787   0.924  18.970 -0.7131 -1.5959  0.1103
 1609TIP3   OH229021   6.430   3.803  18.223  0.2843 -0.4811  0.4878
 1609TIP3    H129022   6.404   3.890  18.195 -1.5066 -1.1524 -0.0780
 1609TIP3    H229023   6.505   3.781  18.167 -0.5950 -0.1386 -0.8588
 1610TIP3   OH229024   5.529   4.460  17.964 -0.1388  0.0253 -0.0755
 1610TIP3    H129025   5.493   4.513  18.035 -0.8246  1.1037 -1.1944
 1610TIP3    H229026   5.614   4.430  17.998  0.3151  1.9143  0.5630
 1611TIP3   OH229027   2.558   2.101  17.466  0.2923 -0.4402  0.2726
 1611TIP3    H129028   2.532   2.011  17.489 -1.7814  0.4255  1.5384
 1611TIP3    H229029   2.608   2.131  17.542 -2.3978  0.7537  1.6875
 1612TIP3   OH229030   4.581   2.650  17.062 -0.4442  0.3461 -0.4118
 1612TIP3    H129031   4.559   2.576  17.006  1.0019 -1.2770  1.0609
 1612TIP3    H229032   4.544   2.628  17.147 -0.2054  1.4403 -0.0038
 1613TIP3   OH229033   5.627   0.222  19.133 -0.1440  0.1626  0.4365
 1613TIP3    H129034   5.548   0.167  19.130  0.1096 -0.1734 -0.8896
 1613TIP3    H229035   5.695   0.164  19.169 -0.1846  0.0166  0.2795
 1614TIP3   OH229036   3.481   0.767  17.970 -0.3553 -0.0254 -0.3762
 1614TIP3    H129037   3.471   0.834  18.037 -0.2661  0.0956 -0.4817
 1614TIP3    H229038   3.572   0.737  17.980 -0.1302  0.4706 -0.8804
 1615TIP3   OH229039   2.116   7.137  18.339 -0.0620  0.5562  0.4858
 1615TIP3    H129040   2.068   7.058  18.365  0.5104  0.0323 -0.0141
 1615TIP3    H229041   2.207   7.118  18.362  0.1971  0.7575 -0.3439
 1616TIP3   OH229042   4.122   5.844  17.438  0.0423 -0.3443 -1.1125
 1616TIP3    H129043   4.166   5.793  17.506  1.7444 -0.0790 -1.9466
 1616TIP3    H229044   4.036   5.804  17.429  0.7822 -2.1321 -0.6976
 1617TIP3   OH229045   0.959   4.624  17.632  0.1431 -0.1617 -0.3072
 1617TIP3    H129046   0.879   4.607  17.582 -0.1723  0.5503 -0.0614
 1617TIP3    H229047   1.027   4.577  17.585 -0.5381 -1.3738 -0.1133
 1618TIP3   OH229048   4.360   1.361  17.952 -0.2607 -0.2999  0.2913
 1618TIP3    H129049   4.372   1.311  18.033  0.4552 -0.6631 -0.0266
 1618TIP3    H229050   4.315   1.441  17.979  0.6682 -0.0532  1.1821
 1619TIP3   OH229051   4.691   1.340  16.854  0.0746  0.4817  0.2962
 1619TIP3    H129052   4.750   1.307  16.923  1.0546  1.9419  0.1961
 1619TIP3    H229053   4.604   1.338  16.894  0.4265 -0.0604  1.0635
 1620TIP3   OH229054   2.214   0.167  18.359  0.2104 -0.3679  0.4210
 1620TIP3    H129055   2.151   0.126  18.300  0.4788 -0.6408  0.3174
 1620TIP3    H229056   2.295   0.118  18.344  0.7065  0.6086 -0.1545
 1621TIP3   OH229057   5.001   3.982  19.769 -0.4582  0.9015 -0.8173
 1621TIP3    H129058   4.924   4.031  19.739  0.3573  1.3993 -2.1975
 1621TIP3    H229059   5.008   3.909  19.708 -1.8785 -1.2617  1.4361
 1622TIP3   OH229060   1.052   1.704  19.366  0.5124 -0.4245  0.1311
 1622TIP3    H129061   1.115   1.708  19.294  0.8801 -1.4223  0.3839
 1622TIP3    H229062   1.000   1.784  19.356  0.3709 -0.6664 -1.4003
 1623TIP3   OH229063   1.886   3.076  18.192  0.5856  0.4831  0.5628
 1623TIP3    H129064   1.862   3.027  18.113 -1.6623  0.2254  1.3233
 1623TIP3    H229065   1.839   3.159  18.183  1.0474  0.8234  1.2146
 1624TIP3   OH229066   6.856   6.796  18.128 -0.2397 -0.0671  0.0923
 1624TIP3    H129067   6.793   6.854  18.170 -1.2157 -1.0596  0.0403
 1624TIP3    H229068   6.854   6.715  18.179 -0.1912 -0.6789 -0.8295
 1625TIP3   OH229069   6.780   6.068  16.804  0.6415 -0.2199  0.5091
 1625TIP3    H129070   6.850   6.057  16.867  0.2417  0.0746  1.0184
 1625TIP3    H229071   6.746   5.980  16.790 -0.5680 -0.0906  2.2431
 1626TIP3   OH229072   1.379   1.918  18.239  0.0744  0.4617  0.4331
 1626TIP3    H129073   1.339   1.859  18.304  2.4133 -0.5790  1.0455
 1626TIP3    H229074   1.464   1.940  18.277  1.5717 -0.2434 -2.3074
 1627TIP3   OH229075   4.257   0.851  18.245 -0.0077  0.7302 -0.8477
 1627TIP3    H129076   4.337   0.877  18.199  0.5643 -0.9968 -0.8852
 1627TIP3    H229077   4.234   0.766  18.207 -1.4400  0.8481 -0.2971
 1628TIP3   OH229078   2.501   6.525  17.705  0.5698  0.2129  0.3810
 1628TIP3    H129079   2.449   6.494  17.779  0.6744  0.3989  0.5335
 1628TIP3    H229080   2.587   6.546  17.743  0.5259  0.6072  0.2653
 1629TIP3   OH229081   6.027   4.693  17.922  0.3216 -0.2111 -0.2677
 1629TIP3    H129082   6.016   4.719  18.014  0.0593 -0.5280 -0.2097
 1629TIP3    H229083   6.024   4.598  17.924 -2.1884 -0.1953 -0.9212
 1630TIP3   OH229084   5.198   0.841  17.127 -0.5914 -0.3874  0.2638
 1630TIP3    H129085   5.286   0.819  17.098  0.2195  0.3138  2.0376
 1630TIP3    H229086   5.181   0.780  17.200 -0.7537  0.7705  1.2279
 1631TIP3   OH229087   3.624   7.393  17.774 -0.7310  0.2888 -0.1933
 1631TIP3    H129088   3.634   7.474  17.825  0.6235 -0.2120  0.3950
 1631TIP3    H229089   3.699   7.393  17.715 -1.4674  0.1084 -1.1335
 1632TIP3   OH229090   7.171   5.630  17.556 -0.1994  0.0015  0.1244
 1632TIP3    H129091   7.264   5.643  17.539 -0.4619  1.4005 -0.4031
 1632TIP3    H229092   7.127   5.680  17.488 -1.3614 -1.2046 -0.0497
 1633TIP3   OH229093   0.165   6.931  18.112  0.2757  0.0225 -0.3363
 1633TIP3    H129094   0.099   6.991  18.077  1.3064  0.7361 -1.1377
 1633TIP3    H229095   0.172   6.954  18.204  1.9783  2.4976 -0.9847
 1634TIP3   OH229096   5.997   4.321  19.566  0.2205 -0.3727 -0.2986
 1634TIP3    H129097   6.091   4.326  19.582  0.2224  0.1361 -0.4270
 1634TIP3    H229098   5.965   4.255  19.627  0.4264  0.5937  0.8930
 1635TIP3   OH229099   4.867   4.688  19.467  0.1624 -0.0194  0.0029
 1635TIP3    H129100   4.947   4.715  19.422 -0.5180  1.8109 -0.1828
 1635TIP3    H229101   4.826   4.770  19.494 -1.9281 -0.8818 -0.3839
 1636TIP3   OH229102   4.923   5.125  18.926  0.4249 -0.5712  0.1285
 1636TIP3    H129103   5.004   5.163  18.891 -0.2715 -0.4164 -1.3770
 1636TIP3    H229104   4.952   5.044  18.968  1.3029 -0.8991 -1.0367
 1637TIP3   OH229105   5.007   4.467  18.203  0.6305 -0.3747 -0.2205
 1637TIP3    H129106   5.049   4.522  18.136  1.5096 -0.2554  0.4089
 1637TIP3    H229107   5.078   4.412  18.236  0.1464 -0.6205  0.4235
 1638TIP3   OH229108   3.887   3.292  18.422  0.4354 -0.2557 -0.9826
 1638TIP3    H129109   3.956   3.346  18.384  0.0414 -0.9253 -2.7414
 1638TIP3    H229110   3.875   3.221  18.360 -0.3817 -1.3324  0.3394
 1639TIP3   OH229111   7.640   3.426  18.361  0.6927  0.4278  0.4544
 1639TIP3    H129112   7.546   3.444  18.371  0.5644 -0.2105  0.4233
 1639TIP3    H229113   7.682   3.494  18.413  0.2255  0.9620  0.1487
 1640TIP3   OH229114   1.240   1.649  18.969  0.3432 -0.2543 -0.0029
 1640TIP3    H129115   1.335   1.661  18.966  0.6571 -2.2554  0.7505
 1640TIP3    H229116   1.212   1.699  19.046  0.5861  1.3325 -0.9113
 1641TIP3   OH229117   6.173   3.791  18.681 -0.1125  0.4054 -0.9409
 1641TIP3    H129118   6.079   3.774  18.673  0.1264 -1.6233  0.0022
 1641TIP3    H229119   6.179   3.861  18.746 -0.9695 -0.2480 -0.1144
 1642TIP3   OH229120   5.837   1.395  17.446 -0.4082 -0.2647 -0.3462
 1642TIP3    H129121   5.888   1.477  17.442 -0.4106 -0.1813  0.8827
 1642TIP3    H229122   5.838   1.362  17.357  0.5745  0.4966 -0.6408
 1643TIP3   OH229123   2.575   4.868  20.089 -0.2579 -0.1204  0.2200
 1643TIP3    H129124   2.654   4.922  20.093 -0.6580  0.4340  0.7550
 1643TIP3    H229125   2.519   4.913  20.026 -0.2009 -0.4518 -0.0717
 1644TIP3   OH229126   1.207   4.150  19.219 -0.3451 -0.8291 -0.3307
 1644TIP3    H129127   1.120   4.190  19.223 -0.1374 -0.1437 -1.8438
 1644TIP3    H229128   1.267   4.220  19.247 -0.2929 -1.4664  1.2442
 1645TIP3   OH229129   7.607   4.754  19.392 -0.6814  0.1880  0.0673
 1645TIP3    H129130   7.676   4.702  19.434 -1.5176 -0.9686  0.0845
 1645TIP3    H229131   7.601   4.833  19.445  0.2415  0.0507  0.3968
 1646TIP3   OH229132   6.807   4.142  18.339 -0.3582 -0.4211  0.2804
 1646TIP3    H129133   6.835   4.230  18.363  1.6106 -1.1071  0.6966
 1646TIP3    H229134   6.718   4.153  18.306 -0.5791  1.5428  1.4027
 1647TIP3   OH229135   6.536   3.189  17.675 -0.3311  0.7720 -0.4000
 1647TIP3    H129136   6.629   3.184  17.654 -0.1593  0.9920  0.2592
 1647TIP3    H229137   6.507   3.273  17.639 -0.1767  0.8875 -0.2547
 1648TIP3   OH229138   5.449   1.077  19.291  0.1429 -0.1605  0.5721
 1648TIP3    H129139   5.463   1.060  19.384 -2.2835  1.5097  1.3429
 1648TIP3    H229140   5.361   1.114  19.286  1.5029  3.3358 -1.9090
 1649TIP3   OH229141   3.515   7.639  18.467 -0.1827  0.2964  0.2211
 1649TIP3    H129142   3.471   7.718  18.434 -0.3725  0.1222  0.0557
 1649TIP3    H229143   3.602   7.642  18.426 -0.9824 -0.8112 -1.7236
 1650TIP3   OH229144   7.597   5.496  18.070 -0.7417 -0.4168 -0.6700
 1650TIP3    H129145   7.531   5.528  18.132  0.8477  0.9154  0.3927
 1650TIP3    H229146   7.627   5.413  18.108  1.1158  0.9696  1.1460
 1651TIP3   OH229147   5.914   2.808  18.106  0.0605  0.1347  0.9439
 1651TIP3    H129148   5.942   2.736  18.050  1.8976  1.0403  0.6367
 1651TIP3    H229149   5.964   2.798  18.186  1.0288  1.5504  0.5533
 1652TIP3   OH229150   4.434   3.251  18.193  0.4561  0.2574  0.3115
 1652TIP3    H129151   4.379   3.173  18.198  1.2155 -0.2828  0.3546
 1652TIP3    H229152   4.513   3.222  18.147  1.3675  0.6269  1.5949
 1653TIP3   OH229153   7.081   4.130  18.388  0.7181  0.3904 -0.8882
 1653TIP3    H129154   7.088   4.221  18.418  1.0322  0.2098 -0.4088
 1653TIP3    H229155   6.995   4.126  18.346  0.7729  0.9548 -1.0654
 1654TIP3   OH229156   4.342   0.726  18.955 -0.2996 -0.6689  0.0367
 1654TIP3    H129157   4.413   0.771  18.910  0.2302 -0.1207  1.3723
 1654TIP3    H229158   4.304   0.792  19.013 -0.7089 -1.4343  0.6716
 1655TIP3   OH229159   0.893   3.228  18.830  0.4118 -0.1436 -0.3460
 1655TIP3    H129160   0.945   3.157  18.794  0.3641 -0.2935 -0.1191
 1655TIP3    H229161   0.881   3.289  18.756  3.1864  1.2761  0.2290
 1656TIP3   OH229162   2.622   5.892  19.645 -0.0360 -1.1316  0.6099
 1656TIP3    H129163   2.568   5.835  19.590 -0.3127 -0.9256  0.6637
 1656TIP3    H229164   2.613   5.979  19.604 -0.9196 -0.8020  1.4563
 1657TIP3   OH229165   6.960   6.430  17.589 -0.1466  0.4357  0.0398
 1657TIP3    H129166   7.051   6.402  17.599 -0.0766  0.2294 -1.1380
 1657TIP3    H229167   6.917   6.397  17.669  0.8587  0.8038  0.7512
 1658TIP3   OH229168   0.624   0.832  19.031 -0.6550 -0.4537  0.2937
 1658TIP3    H129169   0.667   0.916  19.013 -1.3761  0.4017  2.2194
 1658TIP3    H229170   0.691   0.778  19.072 -0.5400 -0.3018  0.3055
 1659TIP3   OH229171   7.034   6.444  18.691 -0.1911 -0.8895  0.2713
 1659TIP3    H129172   6.953   6.441  18.740 -0.3906 -0.0477 -0.0018
 1659TIP3    H229173   7.096   6.391  18.743 -0.7163 -0.9740  0.8133
 1660TIP3   OH229174   0.089   3.967  17.240  0.2735 -0.9032  0.6145
 1660TIP3    H129175   0.156   3.976  17.308  0.2874 -0.5898  0.5577
 1660TIP3    H229176   0.115   4.028  17.171 -1.5602  1.3243  1.7851
 1661TIP3   OH229177   6.145   0.734  18.920 -0.0187 -0.0436  0.1472
 1661TIP3    H129178   6.090   0.691  18.855 -0.8477  0.0363  0.7855
 1661TIP3    H229179   6.149   0.825  18.891  0.8773 -0.2987 -0.6201
 1662TIP3   OH229180   6.245   3.253  18.607 -0.1245 -0.1320  0.4536
 1662TIP3    H129181   6.302   3.258  18.529 -0.0878 -2.4485  0.2705
 1662TIP3    H229182   6.260   3.165  18.642  0.1052  0.9435  3.3226
 1663TIP3   OH229183   2.822   5.751  18.233  0.3337 -0.1820  0.2244
 1663TIP3    H129184   2.875   5.671  18.239  0.6428  0.1207  1.9877
 1663TIP3    H229185   2.882   5.821  18.257 -0.8068  0.1578  2.3672
 1664TIP3   OH229186   5.195   5.986  18.272  0.0434 -0.4706 -0.3829
 1664TIP3    H129187   5.284   6.016  18.254 -0.2602  2.8108  2.7115
 1664TIP3    H229188   5.206   5.919  18.339  0.2023 -0.5117 -0.4487
 1665TIP3   OH229189   2.698   4.242  17.600  0.1571 -0.2991  0.5187
 1665TIP3    H129190   2.761   4.249  17.528 -2.0935  0.7932 -1.4909
 1665TIP3    H229191   2.665   4.331  17.613 -1.4887 -0.9300  0.9774
 1666TIP3   OH229192   6.486   0.504  18.815 -0.3239  0.0942  0.3198
 1666TIP3    H129193   6.572   0.544  18.805 -0.8383  1.2245  0.2316
 1666TIP3    H229194   6.469   0.463  18.730  0.1241 -0.1500  0.3433
 1667TIP3   OH229195   2.278   1.048  18.899  0.0066 -0.2235  0.3903
 1667TIP3    H129196   2.353   1.098  18.865 -0.2548 -0.8344 -1.1202
 1667TIP3    H229197   2.202   1.102  18.879 -0.1473 -0.5645  0.0593
 1668TIP3   OH229198   5.002   2.288  19.374 -0.0393  0.1207 -0.0799
 1668TIP3    H129199   5.023   2.358  19.436 -0.3799 -0.1974  0.4094
 1668TIP3    H229200   4.932   2.324  19.319 -1.7914 -0.5461  1.5776
 1669TIP3   OH229201   0.179   1.425  18.978 -0.1327 -0.0128 -0.0229
 1669TIP3    H129202   0.245   1.415  18.909 -1.8841  2.1989 -2.1927
 1669TIP3    H229203   0.100   1.384  18.942 -0.8356  0.3359  1.0862
 1670TIP3   OH229204   0.886   4.913  18.299  0.1738  0.3464  0.1595
 1670TIP3    H129205   0.910   4.882  18.212 -1.6057  0.9266 -0.5894
 1670TIP3    H229206   0.942   4.989  18.314 -0.4425  1.0940 -1.1147
 1671TIP3   OH229207   5.250   7.254  18.928 -0.5353 -0.3774 -0.3576
 1671TIP3    H129208   5.292   7.316  18.987  1.6182  0.1824 -2.3470
 1671TIP3    H229209   5.304   7.176  18.933 -1.0925 -0.7872 -0.6354
 1672TIP3   OH229210   3.434   5.976  17.252  0.2617  0.6137 -0.4957
 1672TIP3    H129211   3.423   6.034  17.176  0.0096  0.9869 -0.1838
 1672TIP3    H229212   3.496   5.910  17.223 -1.3021 -0.4028 -1.6833
 1673TIP3   OH229213   2.586   2.800  18.236 -0.1113  0.1009  0.0024
 1673TIP3    H129214   2.665   2.749  18.256  0.4192  0.3146 -1.4357
 1673TIP3    H229215   2.521   2.735  18.211  0.3904  0.0689 -1.2720
 1674TIP3   OH229216   5.510   0.838  18.698 -0.2034 -0.2139  0.2154
 1674TIP3    H129217   5.578   0.779  18.665 -1.0481 -0.8129 -0.5105
 1674TIP3    H229218   5.440   0.832  18.634 -0.4146  1.4377  0.2415
 1675TIP3   OH229219   0.463   6.647  18.698  0.1144  0.0549 -0.0219
 1675TIP3    H129220   0.429   6.559  18.683 -1.2247  0.7963 -1.6526
 1675TIP3    H229221   0.528   6.660  18.629  1.2249 -0.0530  0.9541
 1676TIP3   OH229222   4.363   5.720  17.219 -0.2974 -0.2378 -0.0797
 1676TIP3    H129223   4.435   5.782  17.237 -0.6601  0.2778 -0.3643
 1676TIP3    H229224   4.336   5.689  17.305  0.2624 -0.4286  0.0294
 1677TIP3   OH229225   0.863   2.523  17.392 -0.2088 -0.3161  0.3669
 1677TIP3    H129226   0.799   2.490  17.456  0.0753 -0.3527  0.6322
 1677TIP3    H229227   0.893   2.445  17.346  0.5179 -0.4458  1.0446
 1678TIP3   OH229228   7.124   0.996  18.211  0.2428  0.1770  0.4101
 1678TIP3    H129229   7.181   1.067  18.240  1.5204 -0.3249 -0.7922
 1678TIP3    H229230   7.177   0.917  18.221 -0.1051 -0.2648 -1.0362
 1679TIP3   OH229231   3.054   1.231  19.292 -0.2790  0.0988  0.1283
 1679TIP3    H129232   2.969   1.267  19.318 -1.2239 -0.8946 -1.3837
 1679TIP3    H229233   3.094   1.301  19.240 -0.9153 -0.0103 -0.5311
 1680TIP3   OH229234   0.419   1.693  18.772  0.6013  0.4328  0.3262
 1680TIP3    H129235   0.402   1.602  18.799  1.8030 -0.1832 -0.8908
 1680TIP3    H229236   0.497   1.719  18.821  0.0529  0.9563  0.9433
 1681TIP3   OH229237   7.090   3.556  19.036  0.0983 -0.4383  0.1785
 1681TIP3    H129238   7.182   3.578  19.024  0.3600 -1.3772  0.4235
 1681TIP3    H229239   7.059   3.534  18.948  0.2816 -0.7741  0.1970
 1682TIP3   OH229240   4.915   6.547  19.659  0.3853 -0.5208  0.5817
 1682TIP3    H129241   4.999   6.516  19.692  1.0850  1.4401  0.8079
 1682TIP3    H229242   4.850   6.493  19.703  1.5142 -2.0784  0.4038
 1683TIP3   OH229243   3.451   4.479  18.574  0.1653 -0.2417 -0.4879
 1683TIP3    H129244   3.451   4.403  18.632 -0.6371 -0.1541 -0.3512
 1683TIP3    H229245   3.488   4.550  18.626 -1.0311 -0.0331  0.1256
 1684TIP3   OH229246   2.866   7.113  18.134  0.1463  0.0251  0.0374
 1684TIP3    H129247   2.770   7.109  18.135  0.1896 -1.6854  0.6258
 1684TIP3    H229248   2.888   7.163  18.213 -0.2525 -0.7185  0.6383
 1685TIP3   OH229249   1.095   1.614  18.234 -0.8503  0.2136 -0.0527
 1685TIP3    H129250   1.103   1.638  18.142  0.5506  1.9326  0.4795
 1685TIP3    H229251   1.010   1.649  18.261 -0.6158  1.0127 -0.3324
 1686TIP3   OH229252   6.672   2.089  17.455  0.1642  0.4624 -0.3001
 1686TIP3    H129253   6.676   2.139  17.536 -0.9252  1.4804 -0.8409
 1686TIP3    H229254   6.729   2.014  17.470 -2.5056 -1.2532  2.6854
 1687TIP3   OH229255   1.320   5.529  19.125 -0.2023 -0.0625  0.0136
 1687TIP3    H129256   1.306   5.562  19.036  0.0985 -0.5982 -0.2384
 1687TIP3    H229257   1.398   5.577  19.155  1.0596 -1.4557 -0.8545
 1688TIP3   OH229258   7.083   0.828  18.713  0.1201  0.2591 -0.5345
 1688TIP3    H129259   7.118   0.848  18.799 -0.8734  1.6438 -0.4201
 1688TIP3    H229260   7.034   0.746  18.725 -0.2338  0.5850  0.2765
 1689TIP3   OH229261   6.264   4.201  19.394  0.2971  0.4408  0.1478
 1689TIP3    H129262   6.277   4.233  19.483 -2.8607  1.6206  0.3127
 1689TIP3    H229263   6.239   4.279  19.344 -0.2170 -0.5646 -1.2348
 1690TIP3   OH229264   3.535   0.469  18.219 -0.1623  0.5711 -0.6165
 1690TIP3    H129265   3.493   0.415  18.152  1.8071 -1.5870 -0.2211
 1690TIP3    H229266   3.491   0.445  18.300  1.3214 -1.2480 -0.2938
 1691TIP3   OH229267   2.633   6.181  17.733 -0.3491  0.5267 -0.9470
 1691TIP3    H129268   2.670   6.126  17.665 -0.4559  0.8243 -1.2495
 1691TIP3    H229269   2.543   6.197  17.705 -0.7889 -0.3738 -0.1134
 1692TIP3   OH229270   6.506   5.630  19.201 -1.3576  0.1095 -0.2459
 1692TIP3    H129271   6.511   5.536  19.187 -1.6638 -0.6457  3.5046
 1692TIP3    H229272   6.419   5.644  19.240 -0.6862  1.6401  0.7935
 1693TIP3   OH229273   4.651   7.283  17.765 -0.4946  0.5872  0.2515
 1693TIP3    H129274   4.689   7.196  17.776  1.0841  0.9716 -1.6013
 1693TIP3    H229275   4.643   7.293  17.670 -0.8165  2.4037  0.4413
 1694TIP3   OH229276   7.490   0.650  18.311  0.0021  0.5286 -0.0488
 1694TIP3    H129277   7.541   0.697  18.377  0.5431  1.6947 -1.2541
 1694TIP3    H229278   7.473   0.715  18.243 -1.4421 -0.3655 -0.5956
 1695TIP3   OH229279   2.801   5.572  18.492  0.7848  0.0909  0.5222
 1695TIP3    H129280   2.863   5.590  18.421  1.1514 -0.7696  0.6099
 1695TIP3    H229281   2.756   5.491  18.466 -0.3760  0.7482  0.4177
 1696TIP3   OH229282   1.094   3.180  17.465 -0.2211 -0.0566  0.0292
 1696TIP3    H129283   1.013   3.218  17.499 -0.4977 -1.3234  0.8848
 1696TIP3    H229284   1.150   3.255  17.445 -1.6674  0.8437 -0.7483
 1697TIP3   OH229285   5.142   6.370  19.716  0.6970  0.0003  0.0181
 1697TIP3    H129286   5.157   6.327  19.632  0.3054 -1.3415  0.6111
 1697TIP3    H229287   5.229   6.392  19.748  0.9414 -0.8223 -0.0663
 1698TIP3   OH229288   5.722   5.450  19.335 -0.2600 -0.2735 -0.1033
 1698TIP3    H129289   5.725   5.370  19.283 -0.2397  0.2014 -0.8365
 1698TIP3    H229290   5.698   5.420  19.423 -2.7693 -0.8166 -0.9080
 1699TIP3   OH229291   3.565   1.666  19.323  0.0034  0.2933  0.2407
 1699TIP3    H129292   3.653   1.654  19.358  1.0344 -1.1613 -2.5093
 1699TIP3    H229293   3.579   1.688  19.231 -2.5150  1.4823  0.0639
 1700TIP3   OH229294   6.623   1.686  18.424 -0.1353  0.2540  0.2159
 1700TIP3    H129295   6.568   1.607  18.424  1.2809 -0.8019 -1.4626
 1700TIP3    H229296   6.699   1.662  18.477 -0.7299  1.3560  1.6589
 1701TIP3   OH229297   5.466   5.650  19.027 -0.3701  1.3466  0.0055
 1701TIP3    H129298   5.441   5.707  18.955  0.8033  2.2650  0.3073
 1701TIP3    H229299   5.386   5.602  19.048 -0.2831 -0.5521 -3.3009
 1702TIP3   OH229300   3.955   4.668  19.885  0.1554  0.5978  0.3044
 1702TIP3    H129301   3.900   4.737  19.849 -0.2776  0.8940  1.4917
 1702TIP3    H229302   4.004   4.710  19.956  0.3104 -0.1616  0.6666
 1703TIP3   OH229303   7.042   7.624  18.342  0.3994  0.2801 -0.4560
 1703TIP3    H129304   7.132   7.658  18.336  0.1553  0.8903 -0.7556
 1703TIP3    H229305   6.997   7.663  18.268 -0.6376  1.6248  0.8242
 1704TIP3   OH229306   3.750   4.539  19.480 -0.0922 -0.2056  0.0991
 1704TIP3    H129307   3.659   4.522  19.503 -0.5443  2.5247  0.7092
 1704TIP3    H229308   3.756   4.518  19.387 -0.5859 -2.9130  0.6072
 1705TIP3   OH229309   1.609   4.539  19.330  0.3037 -0.3444 -0.4697
 1705TIP3    H129310   1.591   4.454  19.369 -0.0066 -0.5545 -1.0538
 1705TIP3    H229311   1.702   4.537  19.308  0.0038 -1.1130 -1.8110
 1706TIP3   OH229312   5.818   7.482  19.636  0.3211  0.0010  0.0511
 1706TIP3    H129313   5.913   7.470  19.640  0.4291  0.8662  0.2980
 1706TIP3    H229314   5.807   7.576  19.626 -0.4767 -0.2166 -1.3149
 1707TIP3   OH229315   4.994   3.588  17.915  0.3950  0.2647  0.0062
 1707TIP3    H129316   4.953   3.504  17.897 -0.3083  0.9679 -1.9192
 1707TIP3    H229317   5.066   3.568  17.976 -1.9446 -1.1798  2.5201
 1708TIP3   OH229318   2.892   3.010  17.776  0.3326  0.6203 -0.0049
 1708TIP3    H129319   2.921   3.100  17.762 -2.2283  1.6922  0.8867
 1708TIP3    H229320   2.876   3.004  17.870  0.1643 -0.6736 -0.1027
 1709TIP3   OH229321   3.709   2.661  18.596 -0.1346  0.3501 -0.6647
 1709TIP3    H129322   3.671   2.733  18.647  0.8566  0.8580 -0.6278
 1709TIP3    H229323   3.788   2.636  18.643 -1.8828 -2.7338  0.9133
 1710TIP3   OH229324   0.964   1.181  16.984 -0.3363 -0.2357  0.2076
 1710TIP3    H129325   0.913   1.136  16.916 -0.3337  1.6264 -1.1178
 1710TIP3    H229326   1.049   1.196  16.944 -0.2651  0.7166  0.6756
 1711TIP3   OH229327   2.065   0.808  17.664  0.2194 -0.3813 -0.1268
 1711TIP3    H129328   2.065   0.803  17.568 -1.0031 -1.9312 -0.0834
 1711TIP3    H229329   2.132   0.745  17.690 -0.0606 -0.6026  0.0560
 1712TIP3   OH229330   7.613   2.228  18.184 -0.2598  0.0209  0.1537
 1712TIP3    H129331   7.610   2.153  18.125  1.4468 -0.5796  0.7945
 1712TIP3    H229332   7.551   2.290  18.146  0.1087 -0.7195 -1.7453
 1713TIP3   OH229333   4.990   6.007  18.586  0.6224 -0.4484 -0.8326
 1713TIP3    H129334   4.939   5.955  18.523 -0.1991 -0.0997 -0.4737
 1713TIP3    H229335   5.081   5.989  18.563  0.3523 -1.5021 -1.1606
 1714TIP3   OH229336   6.388   3.430  19.639  0.0008  0.1342  0.1040
 1714TIP3    H129337   6.430   3.513  19.615 -2.9078  1.4846 -0.7480
 1714TIP3    H229338   6.337   3.406  19.562 -0.7130 -1.4452  1.0179
 1715TIP3   OH229339   6.833   7.026  19.028 -0.2365  0.6145  0.0757
 1715TIP3    H129340   6.796   6.995  19.111 -2.4071  2.1980 -0.2125
 1715TIP3    H229341   6.790   7.110  19.013  0.1816  0.4269 -2.5992
 1716TIP3   OH229342   1.836   3.269  19.102  0.7227 -0.0964  0.5008
 1716TIP3    H129343   1.877   3.316  19.029  1.7313 -0.1379  1.0137
 1716TIP3    H229344   1.755   3.234  19.066  1.7699 -1.1579 -0.9607
 1717TIP3   OH229345   7.662   0.578  17.042 -0.6121  0.0468  0.1986
 1717TIP3    H129346   7.726   0.649  17.036 -0.9893  0.5271  1.3774
 1717TIP3    H229347   7.701   0.506  16.994 -1.2776  1.7494 -3.1505
 1718TIP3   OH229348   0.523   4.768  18.251  0.4319 -0.5471  0.2189
 1718TIP3    H129349   0.559   4.823  18.182  0.5089 -0.4511  0.3361
 1718TIP3    H229350   0.587   4.771  18.321 -0.8492  1.5574  1.4085
 1719TIP3   OH229351   6.219   7.259  18.084  0.1820 -0.1100 -0.7378
 1719TIP3    H129352   6.279   7.232  18.015  2.7020 -2.0834  1.9768
 1719TIP3    H229353   6.238   7.200  18.157 -1.2272  2.7602  2.1949
 1720TIP3   OH229354   1.504   3.955  18.725  0.3799 -0.3989 -0.0379
 1720TIP3    H129355   1.486   4.022  18.658 -0.1625  0.4051  0.8782
 1720TIP3    H229356   1.599   3.945  18.723  0.3320 -0.7723 -1.2745
 1721TIP3   OH229357   0.521   6.070  18.758 -0.0263 -0.7031  0.1825
 1721TIP3    H129358   0.555   6.080  18.670 -1.9616  2.8825 -0.3780
 1721TIP3    H229359   0.433   6.035  18.746  0.3336 -1.9081  0.8866
 1722TIP3   OH229360   7.257   4.870  19.404 -0.3915 -0.2016 -0.0715
 1722TIP3    H129361   7.315   4.842  19.333 -1.1593 -0.1360 -0.7391
 1722TIP3    H229362   7.195   4.798  19.414 -1.2125  0.4211 -0.5132
 1723TIP3   OH229363   5.596   3.010  18.393  0.5577  0.2300  0.2192
 1723TIP3    H129364   5.676   2.972  18.428 -0.0994 -1.0382  0.4075
 1723TIP3    H229365   5.603   3.000  18.298 -1.2339 -4.0732  0.3076
 1724TIP3   OH229366   4.859   6.800  19.578  0.5143  0.0680  0.0855
 1724TIP3    H129367   4.819   6.806  19.491  0.2308  0.3931  0.2356
 1724TIP3    H229368   4.878   6.707  19.589  0.6679  0.0398 -0.3747
 1725TIP3   OH229369   0.250   1.973  17.883 -0.1509  0.1614  0.0327
 1725TIP3    H129370   0.325   1.927  17.920 -0.5134  0.1639  0.8164
 1725TIP3    H229371   0.174   1.928  17.922 -0.5168  1.0957  0.4233
 1726TIP3   OH229372   2.753   0.069  19.340  0.4820  0.4151 -0.2994
 1726TIP3    H129373   2.828   0.121  19.311  1.5089  0.2044  1.7602
 1726TIP3    H229374   2.773   0.047  19.431 -0.8832 -1.8348 -0.4540
 1727TIP3   OH229375   2.361   1.090  18.602 -0.3384  0.6103  0.1531
 1727TIP3    H129376   2.423   1.146  18.557 -0.5844  0.8716  0.1326
 1727TIP3    H229377   2.412   1.014  18.631 -0.2428  0.2663 -0.8686
 1728TIP3   OH229378   1.196   2.246  19.110 -0.0947  0.3356 -0.3541
 1728TIP3    H129379   1.237   2.333  19.117 -0.0171  0.1817  3.0027
 1728TIP3    H229380   1.270   2.185  19.113 -0.2543  0.1379  2.5228
 1729TIP3   OH229381   4.617   4.418  18.690  0.2995  0.7005  0.0530
 1729TIP3    H129382   4.545   4.414  18.627 -1.0265  0.6285  1.5067
 1729TIP3    H229383   4.626   4.328  18.722 -0.1942  1.0279  1.1650
 1730TIP3   OH229384   0.067   4.627  19.706 -0.4221 -0.4599 -0.4130
 1730TIP3    H129385   0.050   4.721  19.704  0.2054 -0.3430 -1.2753
 1730TIP3    H229386   0.128   4.615  19.779  0.1964 -0.0475 -0.8462
 1731TIP3   OH229387   4.087   3.729  18.944 -0.0185  0.9319 -0.0633
 1731TIP3    H129388   3.999   3.755  18.918  0.2609  0.5743 -1.4177
 1731TIP3    H229389   4.141   3.743  18.866  0.3567 -2.5922 -0.5756
 1732TIP3   OH229390   7.388   7.540  18.426  0.2927  0.4128 -0.0023
 1732TIP3    H129391   7.310   7.547  18.481 -0.1665  1.8083 -0.7763
 1732TIP3    H229392   7.444   7.477  18.471 -1.3163 -0.7110  0.5312
 1733TIP3   OH229393   4.755   4.176  19.229  1.2586  0.3503  0.3589
 1733TIP3    H129394   4.663   4.150  19.235  1.2088  0.3469 -0.2874
 1733TIP3    H229395   4.762   4.253  19.286  0.2807  1.8141 -1.3781
 1734TIP3   OH229396   4.363   1.397  19.044 -0.0873 -0.0465 -0.4654
 1734TIP3    H129397   4.326   1.308  19.045 -0.1043 -0.0435 -0.6892
 1734TIP3    H229398   4.414   1.403  19.125  0.4617 -0.4996 -0.7647
 1735TIP3   OH229399   6.871   3.046  17.858  0.7653  0.0387  0.2927
 1735TIP3    H129400   6.846   3.083  17.773 -0.5758  1.7130  1.3352
 1735TIP3    H229401   6.836   2.957  17.856 -2.4214  1.1278  0.2804
 1736TIP3   OH229402   1.109   2.691  18.655 -0.0268  0.0132  0.5191
 1736TIP3    H129403   1.164   2.713  18.731  0.2406  0.3904  0.2210
 1736TIP3    H229404   1.128   2.599  18.638  0.1209  0.0022  0.7406
 1737TIP3   OH229405   1.471   4.859  17.772  0.1749 -0.5430 -0.0856
 1737TIP3    H129406   1.469   4.767  17.747  0.1976 -0.3217 -0.8998
 1737TIP3    H229407   1.474   4.907  17.690 -0.8923  0.2263  0.3065
 1738TIP3   OH229408   5.666   3.320  17.470 -0.2715  0.3239 -0.1462
 1738TIP3    H129409   5.600   3.303  17.537  0.5191  1.0771  0.8422
 1738TIP3    H229410   5.640   3.264  17.397 -1.9577  0.5309  0.2443
 1739TIP3   OH229411   5.909   2.397  19.097 -0.2063  0.1657  0.6993
 1739TIP3    H129412   5.964   2.321  19.115 -0.0006  0.1597  0.0369
 1739TIP3    H229413   5.820   2.368  19.118 -0.0933 -0.1636  0.7214
 1740TIP3   OH229414   1.531   1.337  19.501 -0.2017 -0.1726 -0.1769
 1740TIP3    H129415   1.463   1.299  19.446 -0.4437  0.0613 -0.0419
 1740TIP3    H229416   1.511   1.430  19.505  1.8767  0.4872 -2.6323
 1741TIP3   OH229417   1.535   7.594  19.340  0.3888 -0.7826 -0.3768
 1741TIP3    H129418   1.609   7.640  19.299  0.3649 -0.5765 -0.1930
 1741TIP3    H229419   1.545   7.613  19.434 -0.5925  0.2771 -0.4599
 1742TIP3   OH229420   7.566   5.922  18.494 -0.2387 -0.5192  0.3011
 1742TIP3    H129421   7.565   5.833  18.528  2.3759 -0.8897 -0.3168
 1742TIP3    H229422   7.482   5.932  18.449 -0.4101 -2.8607 -0.0391
 1743TIP3   OH229423   4.221   5.764  19.264 -0.6662 -0.3413  0.7996
 1743TIP3    H129424   4.310   5.732  19.251 -0.3626 -0.2699  2.4566
 1743TIP3    H229425   4.224   5.812  19.347 -1.8906  1.0763  0.0689
 1744TIP3   OH229426   5.472   5.476  19.761 -0.1622  0.3872 -0.7122
 1744TIP3    H129427   5.538   5.408  19.747  0.7522  1.4580 -1.7792
 1744TIP3    H229428   5.519   5.546  19.808 -0.7767  0.7856 -0.6822
 1745TIP3   OH229429   3.622   1.874  17.770  0.0961 -0.0495  0.0736
 1745TIP3    H129430   3.653   1.783  17.768 -1.6395 -0.8570  2.9927
 1745TIP3    H229431   3.577   1.886  17.686 -0.5915 -2.3222  0.0355
 1746TIP3   OH229432   4.856   0.900  17.932  0.3245 -0.6997 -0.0734
 1746TIP3    H129433   4.763   0.878  17.924 -0.2432  1.7978 -1.5002
 1746TIP3    H229434   4.857   0.981  17.982  1.5528  0.1201 -1.3423
 1747TIP3   OH229435   0.762   2.183  19.919 -0.2832  0.3319  0.0555
 1747TIP3    H129436   0.832   2.143  19.971  0.0170  1.8413  0.8846
 1747TIP3    H229437   0.727   2.111  19.866  1.6041 -0.5566 -0.0777
 1748TIP3   OH229438   6.646   0.647  19.328 -0.3422 -0.2420  0.3098
 1748TIP3    H129439   6.624   0.593  19.252  1.1377  0.9942 -1.0569
 1748TIP3    H229440   6.741   0.652  19.328 -0.2467 -0.7789  2.7066
 1749TIP3   OH229441   5.571   6.099  17.726 -0.6207 -0.6054 -0.0017
 1749TIP3    H129442   5.652   6.138  17.760 -1.3289 -0.7623  1.9561
 1749TIP3    H229443   5.548   6.154  17.651  0.1835  0.7374  0.6978
 1750TIP3   OH229444   7.066   1.079  18.586  0.1985 -0.2656 -0.3547
 1750TIP3    H129445   7.042   0.994  18.622 -2.6760  1.0688  1.2069
 1750TIP3    H229446   7.142   1.106  18.638  0.9452 -1.7033 -0.6600
 1751TIP3   OH229447   5.280   5.795  17.940 -0.4546  0.2011 -0.0621
 1751TIP3    H129448   5.262   5.888  17.926  0.2284  0.5488  1.1754
 1751TIP3    H229449   5.312   5.764  17.856 -2.6121  0.5687 -1.0905
 1752TIP3   OH229450   6.033   7.060  17.578  0.4065  0.3081 -0.4041
 1752TIP3    H129451   6.077   7.115  17.642  0.8887 -1.2188  0.6435
 1752TIP3    H229452   6.073   7.083  17.495  1.9317  0.2234  0.2744
 1753TIP3   OH229453   5.094   4.024  17.778 -0.0853 -0.5843 -0.5322
 1753TIP3    H129454   5.051   4.110  17.777  1.1298  0.0805  0.7628
 1753TIP3    H229455   5.187   4.043  17.765  0.1949 -1.7150 -0.2909
 1754TIP3   OH229456   1.662   0.818  18.919  0.0623 -0.3541 -0.1062
 1754TIP3    H129457   1.618   0.878  18.980 -0.5137  0.2797 -1.1042
 1754TIP3    H229458   1.622   0.733  18.936 -0.1698 -0.1602  0.3266
 1755TIP3   OH229459   0.413   3.206  17.920 -0.4253  0.4218  0.5402
 1755TIP3    H129460   0.385   3.270  17.986 -0.1400  0.3155  0.7645
 1755TIP3    H229461   0.472   3.255  17.864 -0.2404  0.3688  0.6867
 1756TIP3   OH229462   6.423   3.352  17.177 -0.5357  0.1989  0.1717
 1756TIP3    H129463   6.337   3.392  17.193  0.3161  1.8791  0.7480
 1756TIP3    H229464   6.450   3.389  17.093 -0.6935 -0.9562 -0.4100
 1757TIP3   OH229465   5.370   6.429  18.317  0.3887 -0.6534 -0.2721
 1757TIP3    H129466   5.386   6.446  18.224  0.3769  0.2604 -0.1151
 1757TIP3    H229467   5.372   6.515  18.358 -0.9267 -0.8986  0.3786
 1758TIP3   OH229468   2.037   4.672  18.167 -0.1558  0.1030 -0.4391
 1758TIP3    H129469   2.073   4.729  18.235 -1.6168 -0.4981  0.9132
 1758TIP3    H229470   1.982   4.730  18.114  0.7494  0.5185 -0.9371
 1759TIP3   OH229471   1.886   1.529  18.652  0.0903  0.3601 -0.0673
 1759TIP3    H129472   1.887   1.458  18.588 -0.3029 -0.3417  0.6811
 1759TIP3    H229473   1.964   1.581  18.633  1.6003 -1.4884  0.6962
 1760TIP3   OH229474   2.586   0.321  17.046 -0.0354  0.8611  0.4345
 1760TIP3    H129475   2.588   0.231  17.077 -1.7851 -0.2583 -2.3494
 1760TIP3    H229476   2.516   0.363  17.098  0.3119  0.4341  1.2580
 1761TIP3   OH229477   4.575   1.845  17.714 -0.2089 -0.3154 -0.3085
 1761TIP3    H129478   4.596   1.836  17.807 -0.3455 -0.1790 -0.2650
 1761TIP3    H229479   4.486   1.881  17.713  0.4744  1.4662 -0.4745
 1762TIP3   OH229480   1.957   1.799  19.374 -0.5185  0.5045  0.1505
 1762TIP3    H129481   2.007   1.819  19.294 -0.8661  2.2125  0.3170
 1762TIP3    H229482   1.964   1.704  19.383  0.5997  0.4118 -1.2066
 1763TIP3   OH229483   4.157   7.278  17.743 -0.1689  0.1178  0.7518
 1763TIP3    H129484   4.203   7.282  17.659  0.2546 -0.7297  0.9263
 1763TIP3    H229485   4.099   7.203  17.735 -2.0842  1.5676  0.2944
 1764TIP3   OH229486   2.719   7.025  19.392 -0.2548 -0.3202 -0.3466
 1764TIP3    H129487   2.653   7.089  19.364  0.0851 -0.5859 -1.8682
 1764TIP3    H229488   2.722   6.962  19.320  0.5510 -1.1653  0.4175
 1765TIP3   OH229489   6.880   1.491  18.312 -0.2083 -0.2397  0.3582
 1765TIP3    H129490   6.789   1.481  18.341 -0.1634  0.7736  0.8938
 1765TIP3    H229491   6.897   1.413  18.260 -1.7411  0.0619 -0.6776
 1766TIP3   OH229492   4.072   3.296  19.714  0.0736 -0.5619 -0.6451
 1766TIP3    H129493   4.000   3.235  19.730 -0.8188 -0.0043 -2.2755
 1766TIP3    H229494   4.033   3.383  19.720  1.1185 -0.1444  0.6500
 1767TIP3   OH229495   1.495   7.452  18.607 -0.1823  0.3010 -0.0859
 1767TIP3    H129496   1.570   7.509  18.589  0.4579 -0.2761  0.6512
 1767TIP3    H229497   1.453   7.490  18.683  0.7965 -0.6770  0.9949
 1768TIP3   OH229498   7.600   7.605  18.687  0.5907  0.2769 -0.2415
 1768TIP3    H129499   7.589   7.520  18.643 -0.9436  1.0813 -1.5168
 1768TIP3    H229500   7.629   7.664  18.618 -1.7899  1.5531 -0.2446
 1769TIP3   OH229501   5.636   3.004  18.097 -0.3336 -0.8985  0.0353
 1769TIP3    H129502   5.620   2.964  18.012 -1.5276  2.1547 -1.3265
 1769TIP3    H229503   5.731   3.013  18.102 -0.0393 -3.4326  0.2773
 1770TIP3   OH229504   5.161   2.722  19.017  0.0389  0.3965 -0.6959
 1770TIP3    H129505   5.231   2.722  18.951  0.2255 -0.3274 -0.5127
 1770TIP3    H229506   5.090   2.772  18.977  0.2571  0.2069 -1.3330
 1771TIP3   OH229507   2.920   7.260  18.346 -0.0397 -0.1256 -0.1609
 1771TIP3    H129508   2.949   7.189  18.402 -1.9852 -0.0307  1.0615
 1771TIP3    H229509   2.964   7.337  18.380  0.6784 -0.4532 -0.3376
 1772TIP3   OH229510   0.231   2.673  18.766  0.4709  0.6586 -0.3024
 1772TIP3    H129511   0.289   2.749  18.762  2.4908 -0.8334 -2.1662
 1772TIP3    H229512   0.290   2.598  18.771 -1.2750 -0.9262 -1.6846
 1773TIP3   OH229513   3.503   2.123  18.611 -0.1705  0.0982  0.1599
 1773TIP3    H129514   3.415   2.097  18.637 -0.7693  2.4238  0.6463
 1773TIP3    H229515   3.498   2.136  18.517 -1.0573  2.5039  0.4715
 1774TIP3   OH229516   6.543   6.044  18.787  0.0166 -0.2116  0.4547
 1774TIP3    H129517   6.512   5.973  18.843 -1.6149  0.0125 -0.1339
 1774TIP3    H229518   6.595   6.000  18.720 -0.4327 -0.7813  0.4697
 1775TIP3   OH229519   4.129   4.244  19.333 -0.0775 -0.0134  0.2738
 1775TIP3    H129520   4.153   4.273  19.245 -0.3083  1.1991  0.5914
 1775TIP3    H229521   4.132   4.324  19.386  1.3259 -0.9279  1.6522
 1776TIP3   OH229522   6.233   7.395  18.890  0.3186  0.0223  0.3358
 1776TIP3    H129523   6.211   7.380  18.982 -0.2999 -1.4016 -0.0209
 1776TIP3    H229524   6.329   7.394  18.888  0.3587  0.9609  1.0873
 1777TIP3   OH229525   5.024   5.381  18.503 -0.4075  0.2855  0.3960
 1777TIP3    H129526   4.945   5.360  18.453 -1.0625  0.6076  1.2687
 1777TIP3    H229527   5.049   5.298  18.544 -0.6894  0.3340  0.6661
 1778TIP3   OH229528   5.229   2.599  17.149  0.0362  0.2464  0.8331
 1778TIP3    H129529   5.296   2.651  17.106 -0.7347  2.2553  1.9171
 1778TIP3    H229530   5.194   2.542  17.080  1.5344  0.4960 -0.1768
 1779TIP3   OH229531   4.727   3.882  18.862  0.8179 -0.0151 -0.0006
 1779TIP3    H129532   4.659   3.817  18.848  0.4581 -0.0482  1.7071
 1779TIP3    H229533   4.776   3.883  18.780  1.0721 -2.7021  0.0317
 1780TIP3   OH229534   7.408   5.911  17.356 -0.7511  0.2040  0.3876
 1780TIP3    H129535   7.342   5.952  17.412 -1.8361 -0.8270 -0.0944
 1780TIP3    H229536   7.434   5.980  17.296 -2.0802  0.4001  0.0009
 1781TIP3   OH229537   1.449   1.743  18.002  0.3160 -0.1723 -0.2339
 1781TIP3    H129538   1.420   1.669  18.056 -0.4191 -0.2327 -0.6889
 1781TIP3    H229539   1.501   1.797  18.061  0.3356 -0.7316  0.2752
 1782TIP3   OH229540   5.557   2.732  19.024  0.3199  0.1123  0.1814
 1782TIP3    H129541   5.522   2.810  19.067 -0.9639 -0.6027  0.4824
 1782TIP3    H229542   5.504   2.724  18.944  0.7016 -0.2349 -0.0381
 1783TIP3   OH229543   4.530   6.510  17.683  0.2623  0.0689 -0.0056
 1783TIP3    H129544   4.444   6.541  17.712 -0.0942  0.6476 -1.5978
 1783TIP3    H229545   4.512   6.458  17.605  1.2607 -0.8455  0.3438
 1784TIP3   OH229546   3.649   2.191  19.191 -0.2932 -0.0457 -0.9907
 1784TIP3    H129547   3.555   2.207  19.205  0.0745  0.2668  1.5468
 1784TIP3    H229548   3.687   2.279  19.183  0.1590  0.0148  1.2304
 1785TIP3   OH229549   0.855   2.417  19.474  0.1928  0.2356  1.0389
 1785TIP3    H129550   0.811   2.481  19.419 -3.0669 -1.9347  0.8240
 1785TIP3    H229551   0.824   2.436  19.563  0.3702 -0.1348  1.1838
 1786TIP3   OH229552   2.908   0.865  18.545 -0.2850 -0.2750  0.4240
 1786TIP3    H129553   2.998   0.836  18.559 -0.4071  0.1482  2.4786
 1786TIP3    H229554   2.854   0.793  18.579 -0.7565 -0.7309 -1.2256
 1787TIP3   OH229555   2.810   5.448  17.240  0.4388 -0.2907 -0.1054
 1787TIP3    H129556   2.842   5.538  17.230 -0.6853  0.2437  0.7469
 1787TIP3    H229557   2.874   5.394  17.195  0.6081  1.0366 -1.5532
 1788TIP3   OH229558   2.982   7.261  17.624 -0.4851  0.1823  0.0798
 1788TIP3    H129559   2.909   7.266  17.562 -1.1143 -2.0069  0.5508
 1788TIP3    H229560   2.941   7.239  17.708  0.5803  0.5905  0.7370
 1789TIP3   OH229561   0.009   0.800  19.396  0.1759 -0.2673 -0.5567
 1789TIP3    H129562  -0.005   0.847  19.479  1.7642  1.4658 -1.1913
 1789TIP3    H229563   0.043   0.714  19.423 -3.7579 -1.6611  0.6661
 1790TIP3   OH229564   6.718   4.816  17.792  0.0315 -0.0090 -0.3051
 1790TIP3    H129565   6.714   4.725  17.760  0.3232  0.1563 -0.8147
 1790TIP3    H229566   6.626   4.841  17.802 -0.0521 -0.5113  0.2830
 1791TIP3   OH229567   0.571   7.268  19.387  0.2111 -0.0349 -0.2790
 1791TIP3    H129568   0.506   7.238  19.324 -0.3976  0.4404  0.1061
 1791TIP3    H229569   0.654   7.233  19.355 -0.3226 -1.2413 -0.4037
 1792TIP3   OH229570   5.706   6.445  17.751 -0.1777 -0.4119  0.1443
 1792TIP3    H129571   5.745   6.359  17.768 -0.8787 -1.2876 -2.2622
 1792TIP3    H229572   5.713   6.456  17.656 -1.2895  1.6338  0.2435
 1793TIP3   OH229573   3.476   6.649  19.376 -0.5105  0.4627  0.3873
 1793TIP3    H129574   3.421   6.724  19.395  0.7309  1.6517 -0.4899
 1793TIP3    H229575   3.455   6.625  19.286 -1.6453 -0.9425  0.9878
 1794TIP3   OH229576   1.523   6.880  17.347  0.1678  0.1755 -0.5154
 1794TIP3    H129577   1.528   6.976  17.347  1.2199  0.1341 -0.4670
 1794TIP3    H229578   1.550   6.855  17.436  2.0761 -0.2300 -1.1602
 1795TIP3   OH229579   4.768   4.073  17.747  0.5127 -0.0901 -0.7758
 1795TIP3    H129580   4.802   3.983  17.748 -2.2370 -1.2562 -1.4361
 1795TIP3    H229581   4.751   4.091  17.654 -0.3148  0.5349 -0.5124
 1796TIP3   OH229582   6.917   1.124  18.349  0.4898 -0.2240 -0.2501
 1796TIP3    H129583   6.964   1.151  18.428 -1.1904  0.9069  0.4312
 1796TIP3    H229584   6.985   1.098  18.287  1.9769  0.9910  0.8108
 1797TIP3   OH229585   0.266   4.448  18.313  0.2241 -0.3148 -0.0922
 1797TIP3    H129586   0.311   4.520  18.269 -0.4945  0.1618 -0.0693
 1797TIP3    H229587   0.173   4.464  18.296 -0.0165 -0.5996  0.8774
 1798TIP3   OH229588   1.250   4.170  18.042 -0.1556  0.3070 -0.1819
 1798TIP3    H129589   1.172   4.185  18.095 -1.2872 -0.8161 -1.4474
 1798TIP3    H229590   1.246   4.237  17.975  0.9216  1.3165  0.7292
 1799TIP3   OH229591   1.825   6.934  19.266 -0.0255  0.0957 -0.3823
 1799TIP3    H129592   1.777   6.885  19.199 -2.7295 -0.2251  1.6103
 1799TIP3    H229593   1.833   6.873  19.339  0.9013  1.1250  0.4140
 1800TIP3   OH229594   2.701   6.920  17.758  0.0401 -0.0062 -0.0789
 1800TIP3    H129595   2.632   6.874  17.805 -0.5444  1.4726  0.5460
 1800TIP3    H229596   2.699   6.881  17.670  1.4862 -3.1563  1.1086
 1801TIP3   OH229597   6.521   7.118  19.442 -0.2594 -0.4785 -0.4499
 1801TIP3    H129598   6.523   7.170  19.362 -0.6112 -0.2522 -0.3112
 1801TIP3    H229599   6.517   7.182  19.513  1.3969 -0.6296 -0.1777
 1802TIP3   OH229600   5.999   5.930  17.181 -0.0918  0.1341  0.0437
 1802TIP3    H129601   5.994   5.997  17.250  1.1053  0.3710 -0.0866
 1802TIP3    H229602   5.912   5.931  17.142 -0.5293  0.6117  0.9818
 1803TIP3   OH229603   3.135   2.507  19.197  0.4141 -0.0242  0.3543
 1803TIP3    H129604   3.043   2.521  19.221  0.1419 -1.2390  0.0978
 1803TIP3    H229605   3.141   2.413  19.180  1.4714  0.1996 -0.6333
 1804TIP3   OH229606   7.009   1.950  19.160 -0.1255 -0.2707 -0.3003
 1804TIP3    H129607   7.017   1.897  19.240 -1.1908  0.1858  0.1388
 1804TIP3    H229608   6.999   2.040  19.192  2.2260  0.3140 -1.0521
 1805TIP3   OH229609   7.358   4.155  19.023  1.0787  0.5686  0.2488
 1805TIP3    H129610   7.333   4.075  19.068 -0.9456  0.8472 -0.2802
 1805TIP3    H229611   7.298   4.222  19.057  2.5989  1.8540  0.5505
 1806TIP3   OH229612   2.632   0.936  18.659  0.1562  0.4793 -0.1732
 1806TIP3    H129613   2.655   0.850  18.695  1.2647  1.0248  0.4460
 1806TIP3    H229614   2.623   0.920  18.565  0.8579 -0.2137 -0.1345
 1807TIP3   OH229615   0.369   5.375  17.575  0.4991  0.3174 -0.0136
 1807TIP3    H129616   0.336   5.428  17.648 -1.3216 -1.5165  0.6082
 1807TIP3    H229617   0.355   5.430  17.498 -1.8119  0.6005  0.5350
 1808TIP3   OH229618   3.099   0.829  17.862 -0.1406  0.2210 -0.9692
 1808TIP3    H129619   3.105   0.924  17.856  1.1447  0.2586  0.3992
 1808TIP3    H229620   3.182   0.798  17.825 -0.4778 -0.3723 -1.2426
 1809TIP3   OH229621   0.170   1.067  18.638 -0.0659  0.1605 -0.2463
 1809TIP3    H129622   0.084   1.095  18.609  0.3682  1.1521 -0.6068
 1809TIP3    H229623   0.189   0.989  18.585 -0.2454  0.6308 -1.0211
 1810TIP3   OH229624   6.703   6.905  19.247 -0.2020 -0.1749 -0.0719
 1810TIP3    H129625   6.652   6.907  19.328 -1.6903  0.9278 -0.9824
 1810TIP3    H229626   6.716   6.812  19.229  1.3244 -0.4545  2.0922
 1811TIP3   OH229627   5.785   6.307  17.493 -0.0755 -0.0600 -0.0641
 1811TIP3    H129628   5.866   6.357  17.507 -0.0038 -0.2341  0.1485
 1811TIP3    H229629   5.718   6.373  17.477 -0.0878  0.1307  0.7304
 1812TIP3   OH229630   1.847   3.202  18.775 -0.4006  0.1818  0.4040
 1812TIP3    H129631   1.774   3.261  18.795 -0.7771 -0.1223 -0.0622
 1812TIP3    H229632   1.825   3.164  18.690  0.1421 -0.1613  0.4115
 1813TIP3   OH229633   1.627   2.712  18.276  0.2849  0.6083 -0.5291
 1813TIP3    H129634   1.538   2.676  18.274 -0.2276  1.8387 -0.6249
 1813TIP3    H229635   1.665   2.688  18.191  0.4091 -0.7528 -0.1163
 1814TIP3   OH229636   5.517   6.719  18.084 -0.0362 -0.5031 -0.5846
 1814TIP3    H129637   5.537   6.779  18.012 -1.5010  1.6708  0.7002
 1814TIP3    H229638   5.454   6.657  18.048 -0.4336  0.2995 -1.2836
 1815TIP3   OH229639   0.764   5.704  18.954 -0.8605  0.3859 -0.3429
 1815TIP3    H129640   0.691   5.662  18.908 -0.8060 -0.7813  0.5844
 1815TIP3    H229641   0.811   5.752  18.886 -0.7043 -1.3974 -1.5705
 1816TIP3   OH229642   1.394   0.998  17.832  0.5417 -0.5650 -0.0673
 1816TIP3    H129643   1.398   1.086  17.796  0.4516 -0.9315 -1.0057
 1816TIP3    H229644   1.302   0.972  17.824  0.1224  0.0001  2.1172
 1817TIP3   OH229645   1.422   3.160  17.549  0.0233 -0.5472 -0.4993
 1817TIP3    H129646   1.393   3.249  17.571 -1.1124 -0.6119 -1.6666
 1817TIP3    H229647   1.346   3.105  17.565  0.4387 -1.1774 -0.6598
 1818TIP3   OH229648   5.751   6.376  18.263 -0.4696  0.3032 -0.3611
 1818TIP3    H129649   5.773   6.412  18.177 -2.0947 -0.8855 -1.3299
 1818TIP3    H229650   5.742   6.282  18.248 -2.8253  0.3117  0.6247
 1819TIP3   OH229651   5.622   7.080  18.661  0.3805  0.5699 -0.2125
 1819TIP3    H129652   5.565   7.084  18.585 -1.2766  1.8467  1.0230
 1819TIP3    H229653   5.676   7.159  18.655  0.1447  0.7473  0.0283
 1820TIP3   OH229654   5.746   7.237  18.186  0.1634  0.8698  0.1211
 1820TIP3    H129655   5.771   7.155  18.230 -0.4285  1.0958  0.9046
 1820TIP3    H229656   5.829   7.280  18.167  0.5043 -0.1695 -0.8063
 1821TIP3   OH229657   1.571   7.153  17.289 -0.2339  0.2190  0.3346
 1821TIP3    H129658   1.561   7.240  17.327  0.4309  0.1214  0.7691
 1821TIP3    H229659   1.614   7.167  17.205  0.2620  0.2854  0.5968
 1822TIP3   OH229660   2.719   7.411  20.012 -0.2837  0.2266 -0.3436
 1822TIP3    H129661   2.797   7.405  20.067  0.1629 -1.1227 -1.0785
 1822TIP3    H229662   2.742   7.362  19.933 -1.9007 -0.2713 -0.5392
 1823TIP3   OH229663   7.041   3.157  17.575 -0.6404 -0.3304 -1.1110
 1823TIP3    H129664   7.100   3.085  17.597 -1.0036 -0.2461  0.2614
 1823TIP3    H229665   7.099   3.227  17.545  0.1386  0.1364  1.2292
 1824TIP3   OH229666   4.082   0.998  18.081 -0.4443 -0.5360  0.0725
 1824TIP3    H129667   4.155   0.964  18.133 -1.5718 -0.6442  1.6920
 1824TIP3    H229668   4.004   0.975  18.133 -1.6317 -0.4891 -1.6224
 1825TIP3   OH229669   2.076   3.932  18.292 -0.6278 -0.1262 -0.4696
 1825TIP3    H129670   2.031   3.962  18.371  0.0340 -1.0445  0.2764
 1825TIP3    H229671   2.119   4.010  18.258 -2.6631  0.7682 -1.1592
 1826TIP3   OH229672   4.263   5.940  16.946 -0.1347  1.3426 -0.2267
 1826TIP3    H129673   4.333   6.005  16.952  0.5793  0.5128  1.2978
 1826TIP3    H229674   4.275   5.886  17.024 -0.7228 -0.5931 -1.4209
 1827TIP3   OH229675   0.387   6.810  19.490  0.6079 -0.0107  0.4262
 1827TIP3    H129676   0.480   6.822  19.472  0.7799  0.2035  1.3864
 1827TIP3    H229677   0.379   6.824  19.584 -0.3016 -0.6421  0.4563
 1828TIP3   OH229678   3.211   2.742  18.605 -0.4524 -0.7891 -0.0291
 1828TIP3    H129679   3.280   2.790  18.560 -0.9502 -1.2141 -1.2840
 1828TIP3    H229680   3.254   2.705  18.682  0.0597  1.2455  0.7438
 1829TIP3   OH229681   5.186   5.145  18.871 -0.3756  0.5162  0.1746
 1829TIP3    H129682   5.231   5.064  18.896 -1.3740  0.3531  1.5446
 1829TIP3    H229683   5.239   5.215  18.910 -0.5369  0.4116  0.5831
 1830TIP3   OH229684   4.983   7.395  18.834  0.0309 -0.1359  0.1845
 1830TIP3    H129685   4.950   7.483  18.816  0.7032 -0.1520 -1.1995
 1830TIP3    H229686   5.002   7.396  18.928  0.7358  1.4393  0.0573
 1831TIP3   OH229687   5.189   2.139  18.256  0.0381 -0.1524  0.2361
 1831TIP3    H129688   5.174   2.192  18.335 -2.6726  1.0704 -0.9805
 1831TIP3    H229689   5.108   2.090  18.244  0.7536 -1.0277 -1.2816
 1832TIP3   OH229690   5.115   5.523  18.744 -0.2326  0.0841 -0.2130
 1832TIP3    H129691   5.086   5.451  18.689  0.8070 -0.2809 -0.3052
 1832TIP3    H229692   5.039   5.581  18.749 -1.0161 -0.9055 -0.3001
 1833TIP3   OH229693   4.971   7.016  18.017  0.7662 -0.1317 -0.2537
 1833TIP3    H129694   4.896   6.972  17.976 -1.1404  3.0454 -0.5134
 1833TIP3    H229695   4.986   7.093  17.963  1.0844  1.8315  2.4462
 1834TIP3   OH229696   2.272   3.801  19.171  0.2213  0.4354 -0.0504
 1834TIP3    H129697   2.179   3.788  19.155  0.5070 -0.9336 -0.7767
 1834TIP3    H229698   2.312   3.717  19.149  1.6648  1.0832 -0.0329
 1835TIP3   OH229699   0.070   2.833  17.953 -0.1747  0.8391 -0.0914
 1835TIP3    H129700   0.113   2.899  18.007  1.2297 -1.2892  1.5025
 1835TIP3    H229701   0.113   2.840  17.867  1.0106  1.0035  0.5041
 1836TIP3   OH229702   2.847   4.674  19.045  0.1877  0.4376 -0.2214
 1836TIP3    H129703   2.800   4.626  18.976 -0.5991  0.5767  0.2141
 1836TIP3    H229704   2.883   4.605  19.101  1.8619  0.2761 -1.4003
 1837TIP3   OH229705   4.005   6.144  18.318  0.0039 -0.1895 -0.3146
 1837TIP3    H129706   4.079   6.083  18.311 -0.0492 -0.1685 -1.2636
 1837TIP3    H229707   3.929   6.090  18.298 -0.5492 -0.7587  2.9097
 1838TIP3   OH229708   6.731   5.462  18.937 -0.1252 -1.1647 -0.3324
 1838TIP3    H129709   6.780   5.441  19.016 -3.8817 -0.9202  2.3390
 1838TIP3    H229710   6.695   5.378  18.908 -0.3854 -0.9689 -0.5792
 1839TIP3   OH229711   7.096   5.037  18.153  0.1465  0.0929 -0.8909
 1839TIP3    H129712   7.167   4.990  18.111  0.2348 -1.8863  1.2958
 1839TIP3    H229713   7.017   5.012  18.104  0.3957 -1.1953 -0.6560
 1840TIP3   OH229714   4.406   1.612  18.600  0.0225  0.4387 -0.9002
 1840TIP3    H129715   4.350   1.685  18.576 -0.3075  0.5580  0.1443
 1840TIP3    H229716   4.484   1.652  18.639 -0.1988  0.2540 -0.2424
 1841TIP3   OH229717   1.953   7.265  19.363 -0.0331 -0.6029  0.0937
 1841TIP3    H129718   1.892   7.280  19.291 -0.5752 -0.7654  0.5127
 1841TIP3    H229719   2.007   7.344  19.365  0.4052 -0.8548 -0.8780
 1842TIP3   OH229720   5.416   6.967  18.215 -0.1984 -0.0653 -0.0234
 1842TIP3    H129721   5.322   6.966  18.232 -0.4208  1.4946 -0.9615
 1842TIP3    H229722   5.438   6.877  18.192 -1.5926 -0.3114 -0.4331
 1843TIP3   OH229723   4.741   6.305  17.809 -0.1030  0.1864  0.3294
 1843TIP3    H129724   4.684   6.380  17.823 -1.4546 -0.9584  1.3528
 1843TIP3    H229725   4.682   6.234  17.785  1.2201 -0.3882 -1.4340
 1844TIP3   OH229726   1.572   0.081  18.232 -0.0651  0.1741 -0.1849
 1844TIP3    H129727   1.575   0.099  18.139 -0.2218 -1.7152 -0.6004
 1844TIP3    H229728   1.608   0.159  18.274  0.3421  0.8931 -1.8294
 1845TIP3   OH229729   7.044   1.704  18.742  0.1064 -0.0685  0.2909
 1845TIP3    H129730   7.112   1.667  18.797  1.1041  2.2536  0.7451
 1845TIP3    H229731   7.002   1.770  18.797  0.1502  1.2880 -1.2398
 1846TIP3   OH229732   4.866   4.207  19.641  0.2741 -0.2528  0.1396
 1846TIP3    H129733   4.835   4.269  19.575  0.3600 -0.1279  0.2169
 1846TIP3    H229734   4.922   4.259  19.699 -0.5008 -0.1649  0.8254
 1847TIP3   OH229735   3.035   6.437  17.712  0.5104 -0.2090  0.0504
 1847TIP3    H129736   3.010   6.488  17.635 -0.3209 -0.1648  0.3471
 1847TIP3    H229737   3.072   6.356  17.675  2.3689  0.7924 -0.4376
 1848TIP3   OH229738   1.752   6.300  19.654  0.4110 -0.3357  0.8278
 1848TIP3    H129739   1.845   6.321  19.660  0.2086  1.2778 -0.8330
 1848TIP3    H229740   1.709   6.369  19.706  0.0912 -0.6509  0.9845
 1849TIP3   OH229741   0.326   0.861  19.507 -0.0654 -0.1375  0.2898
 1849TIP3    H129742   0.367   0.863  19.421 -0.7988 -3.7168 -0.3033
 1849TIP3    H229743   0.256   0.796  19.499  0.8920 -1.8959  4.0032
 1850TIP3   OH229744   6.703   1.861  19.081  0.0190  0.1662 -0.0706
 1850TIP3    H129745   6.734   1.798  19.016  0.2364  1.0053 -0.7868
 1850TIP3    H229746   6.738   1.828  19.164 -0.4648 -1.0459 -0.3200
 1851TIP3   OH229747   3.149   0.764  17.214  0.2964 -0.1251  0.3450
 1851TIP3    H129748   3.227   0.786  17.163  0.1772  1.1643  0.6773
 1851TIP3    H229749   3.089   0.726  17.150  0.0821  1.6264 -0.5597
 1852TIP3   OH229750   1.674   1.515  17.225  0.3462  0.6577  0.3163
 1852TIP3    H129751   1.646   1.430  17.260  1.3917  0.4497  0.6765
 1852TIP3    H229752   1.628   1.579  17.279 -1.7648  0.3526 -1.0268
 1853TIP3   OH229753   5.126   2.620  17.414  0.6651 -0.0185 -0.5432
 1853TIP3    H129754   5.042   2.584  17.384  1.3653 -2.8061  0.5541
 1853TIP3    H229755   5.188   2.595  17.346  0.9545  0.3900 -0.4342
 1854TIP3   OH229756   1.709   4.650  17.874 -0.5961  0.2414  0.3133
 1854TIP3    H129757   1.711   4.632  17.780 -0.6003  0.2707  0.3073
 1854TIP3    H229758   1.759   4.731  17.885  0.5699 -0.4877  0.5043
 1855TIP3   OH229759   4.892   3.647  19.314 -0.1609 -0.3951 -0.1180
 1855TIP3    H129760   4.857   3.702  19.244  1.2303  1.0226  0.2251
 1855TIP3    H229761   4.858   3.686  19.394 -1.5129 -1.8351  0.0475
 1856TIP3   OH229762   7.126   5.563  18.520 -0.0624  0.0780 -0.0517
 1856TIP3    H129763   7.103   5.479  18.480  1.6982 -0.5707  0.2173
 1856TIP3    H229764   7.122   5.626  18.448 -0.2455 -0.4448 -0.5080
 1857TIP3   OH229765   3.254   5.505  19.672 -0.5500 -0.0103 -1.3289
 1857TIP3    H129766   3.161   5.502  19.695 -0.0754 -0.7892  0.7165
 1857TIP3    H229767   3.277   5.597  19.678 -0.7712 -0.0232  0.1789
 1858TIP3   OH229768   3.349   7.297  18.328  0.3344  0.3102  0.2671
 1858TIP3    H129769   3.371   7.302  18.235 -1.4289  1.3140 -0.1374
 1858TIP3    H229770   3.294   7.373  18.344 -2.2202 -1.5993  1.3031
 1859TIP3   OH229771   5.984   4.093  19.717  0.1205  0.1486 -0.0219
 1859TIP3    H129772   5.911   4.037  19.747  2.1619 -2.2180  0.8902
 1859TIP3    H229773   6.017   4.049  19.639  2.4115 -0.6148  1.2899
 1860TIP3   OH229774   6.757   1.586  17.537 -0.3825 -0.1406  0.6347
 1860TIP3    H129775   6.799   1.592  17.623 -1.2501  1.5357  0.9850
 1860TIP3    H229776   6.816   1.530  17.486  0.5655 -0.5228  2.0606
 1861TIP3   OH229777   4.441   7.547  19.524 -0.1821 -0.1461  0.0126
 1861TIP3    H129778   4.377   7.589  19.467 -0.4825 -0.9629 -0.2621
 1861TIP3    H229779   4.391   7.520  19.601  0.3180  1.4168  0.9277
 1862TIP3   OH229780   5.813   7.405  19.249  0.1080  0.4740  0.2486
 1862TIP3    H129781   5.797   7.332  19.310  1.4189  0.0409  0.1057
 1862TIP3    H229782   5.748   7.392  19.180 -0.3223  0.0143  0.7217
 1863TIP3   OH229783   6.167   7.126  19.300 -0.5561 -0.5863 -0.6033
 1863TIP3    H129784   6.183   7.205  19.352 -0.6387  0.3796 -1.9949
 1863TIP3    H229785   6.239   7.067  19.323  0.2657  0.4098 -0.5338
 1864TIP3   OH229786   0.983   1.454  19.225 -0.4209 -0.0861  0.0131
 1864TIP3    H129787   0.931   1.473  19.147 -2.3731 -1.9876  0.7689
 1864TIP3    H229788   0.933   1.493  19.297 -1.5660 -2.9544  0.8954
 1865TIP3   OH229789   0.238   7.386  17.750 -0.4968  0.9112  0.1755
 1865TIP3    H129790   0.167   7.365  17.811 -0.0920 -0.2215  0.2981
 1865TIP3    H229791   0.214   7.341  17.669  0.8535 -0.9763  0.7274
 1866TIP3   OH229792   2.196   6.440  19.871 -0.3800  0.0351  0.3641
 1866TIP3    H129793   2.220   6.438  19.964  1.5454 -1.2494 -0.0953
 1866TIP3    H229794   2.254   6.506  19.833 -0.4517 -0.1643 -0.0881
 1867TIP3   OH229795   5.541   5.719  19.506  0.1795  0.1753  0.2201
 1867TIP3    H129796   5.637   5.723  19.510  0.2090 -0.0321 -0.2375
 1867TIP3    H229797   5.522   5.665  19.429 -0.3156  1.0729 -0.3014
 1868TIP3   OH229798   2.783   6.903  17.049  0.8137  0.3417 -0.9809
 1868TIP3    H129799   2.722   6.916  16.976 -0.2579 -0.5794 -0.2923
 1868TIP3    H229800   2.869   6.900  17.008  0.3727  1.2402 -2.0374
 1869TIP3   OH229801   5.988   0.110  18.296 -0.4696 -0.1129 -0.3951
 1869TIP3    H129802   5.935   0.105  18.376  0.7857  1.3371  0.5825
 1869TIP3    H229803   5.929   0.148  18.231 -0.9250  0.6512  0.4310
 1870TIP3   OH229804   6.520   6.083  16.947  0.0530 -0.5024 -0.2531
 1870TIP3    H129805   6.599   6.114  16.903 -0.0516  0.1247 -0.0175
 1870TIP3    H229806   6.490   6.009  16.894 -0.6860  0.8953 -1.8863
 1871TIP3   OH229807   2.874   1.357  19.460 -0.5652  0.1810  0.3251
 1871TIP3    H129808   2.947   1.415  19.479  0.2557  0.4707 -3.0544
 1871TIP3    H229809   2.829   1.398  19.386 -2.7225 -1.2468  0.7271
 1872TIP3   OH229810   0.802   5.361  19.035 -0.1971  0.3135  0.3006
 1872TIP3    H129811   0.832   5.287  18.983 -0.6550 -0.8279  1.6060
 1872TIP3    H229812   0.789   5.432  18.971  0.0171 -0.7909 -1.0093
 1873TIP3   OH229813   5.111   3.396  18.241  0.3079  0.1025  0.2005
 1873TIP3    H129814   5.015   3.394  18.249  0.3668 -1.3184  0.8472
 1873TIP3    H229815   5.127   3.435  18.155 -0.8201  1.3340  0.5156
 1874TIP3   OH229816   5.811   3.892  19.401 -0.1012  1.1281 -0.1734
 1874TIP3    H129817   5.833   3.954  19.331  0.1717  0.4079 -0.7466
 1874TIP3    H229818   5.716   3.884  19.397  0.0391 -0.3630 -1.7858
 1875TIP3   OH229819   3.777   5.184  18.229 -0.5286  0.4428 -0.0745
 1875TIP3    H129820   3.841   5.207  18.297 -1.4336  0.1760  0.8965
 1875TIP3    H229821   3.701   5.152  18.278 -0.4484 -1.7874 -1.2527
 1876TIP3   OH229822   4.666   2.501  20.061  0.1503 -0.2546  0.7725
 1876TIP3    H129823   4.656   2.566  20.130  0.4844  1.9298 -1.1166
 1876TIP3    H229824   4.585   2.509  20.009  1.3790  0.7862 -1.1143
 1877TIP3   OH229825   3.862   4.268  19.521 -0.7483  0.0898  0.2170
 1877TIP3    H129826   3.871   4.324  19.444  1.3404  1.1990  1.1672
 1877TIP3    H229827   3.884   4.325  19.595  0.6246 -1.7165  1.3093
 1878TIP3   OH229828   5.541   0.108  17.391 -0.1090 -0.0333  0.2143
 1878TIP3    H129829   5.468   0.065  17.436 -0.3264  1.5872  1.5353
 1878TIP3    H229830   5.600   0.037  17.367 -2.0971 -1.3833 -0.8849
 1879TIP3   OH229831   1.177   2.606  17.695 -0.1505  0.1396 -0.0572
 1879TIP3    H129832   1.089   2.581  17.722  0.0574 -1.1768 -0.5428
 1879TIP3    H229833   1.235   2.539  17.732  0.2008 -1.4219 -3.1049
 1880TIP3   OH229834   5.831   0.943  18.931 -0.2236 -0.1665  0.1682
 1880TIP3    H129835   5.780   0.862  18.936 -1.2181  0.5244  2.7796
 1880TIP3    H229836   5.766   1.013  18.924  0.5101  0.5643  0.4531
 1881TIP3   OH229837   3.700   0.633  19.826  0.4811  0.1193 -0.0187
 1881TIP3    H129838   3.627   0.572  19.814  1.0250 -0.2948 -1.5544
 1881TIP3    H229839   3.662   0.720  19.818  0.1737 -0.0995 -1.0534
 1882TIP3   OH229840   0.780   4.294  19.479 -0.3833 -0.3090 -0.6422
 1882TIP3    H129841   0.829   4.266  19.556 -1.9277 -0.2005  0.4233
 1882TIP3    H229842   0.691   4.309  19.511 -1.2204 -0.8392 -2.5590
 1883TIP3   OH229843   4.244   6.555  17.531  0.2595  0.0574 -0.1386
 1883TIP3    H129844   4.152   6.569  17.552  0.0736 -0.4307 -0.5898
 1883TIP3    H229845   4.265   6.471  17.573  0.4835  0.1419 -0.0822
 1884TIP3   OH229846   1.908   6.377  18.139 -0.2980 -0.2833 -0.2004
 1884TIP3    H129847   1.881   6.457  18.184  1.4706 -0.4342  1.2526
 1884TIP3    H229848   1.877   6.306  18.196 -0.3709 -0.5726 -0.5986
 1885TIP3   OH229849   7.491   0.427  18.596  0.2841 -0.7808 -0.3448
 1885TIP3    H129850   7.414   0.476  18.624  1.3954  1.7544 -1.3748
 1885TIP3    H229851   7.468   0.390  18.512 -0.1366 -0.8868 -0.1832
 1886TIP3   OH229852   2.678   1.310  17.902 -0.7263  0.0095  0.1665
 1886TIP3    H129853   2.769   1.326  17.925 -1.2642  1.3590  1.6161
 1886TIP3    H229854   2.643   1.398  17.882 -1.2735 -0.6821 -2.1809
 1887TIP3   OH229855   1.914   5.979  19.758 -0.4111  0.0865  0.2317
 1887TIP3    H129856   1.918   6.073  19.776  0.9282 -0.0232  0.6526
 1887TIP3    H229857   2.005   5.955  19.738 -1.0407 -0.7497 -1.8807
 1888TIP3   OH229858   6.706   5.729  19.617  0.0966 -0.5177 -0.4614
 1888TIP3    H129859   6.621   5.684  19.618  1.8209 -4.0649 -0.8626
 1888TIP3    H229860   6.771   5.660  19.628  2.9997  2.1340  0.6790
 1889TIP3   OH229861   1.474   6.242  18.889 -0.0701  0.1139  0.1053
 1889TIP3    H129862   1.436   6.323  18.922  0.1086 -0.0657  0.7618
 1889TIP3    H229863   1.403   6.201  18.840 -0.4084  0.2891  0.4430
 1890TIP3   OH229864   0.386   5.771  18.963  0.2042 -0.2140  0.2757
 1890TIP3    H129865   0.435   5.850  18.986 -1.9376  0.9302  1.2200
 1890TIP3    H229866   0.350   5.740  19.046  1.3344 -2.4996 -0.0008
 1891TIP3   OH229867   1.049   2.017  18.316  0.2034  0.2957  0.2285
 1891TIP3    H129868   0.989   1.985  18.383  0.0305  0.0295 -0.0520
 1891TIP3    H229869   1.132   1.972  18.334  0.2120  0.3691  0.3763
 1892TIP3   OH229870   4.436   6.922  17.881 -0.8299  0.0808  0.4309
 1892TIP3    H129871   4.390   6.853  17.832  1.0713  0.2715 -1.8480
 1892TIP3    H229872   4.515   6.879  17.914 -0.4496  0.7590  0.4297
 1893TIP3   OH229873   0.555   6.369  19.229 -0.2639 -0.4455  0.6786
 1893TIP3    H129874   0.590   6.346  19.142  1.4241  0.0000  1.1987
 1893TIP3    H229875   0.517   6.456  19.217  0.4007 -0.1773  0.4962
 1894TIP3   OH229876   5.008   1.066  19.923  0.3043 -0.0085 -0.4266
 1894TIP3    H129877   4.927   1.082  19.875  0.3159 -0.4846 -0.6114
 1894TIP3    H229878   4.980   1.020  20.002  0.5592 -2.0259 -1.4453
 1895TIP3   OH229879   5.344   5.396  18.881  0.3690  0.0989  0.1186
 1895TIP3    H129880   5.432   5.364  18.858 -0.0138 -0.6943 -0.2826
 1895TIP3    H229881   5.322   5.458  18.812  0.6434  0.3553  0.2590
 1896TIP3   OH229882   2.089   0.469  17.482 -0.4623 -0.2231 -0.5018
 1896TIP3    H129883   2.166   0.517  17.514  0.1741  0.0946 -2.3706
 1896TIP3    H229884   2.020   0.491  17.544  1.1309 -1.2425  1.7566
 1897TIP3   OH229885   5.002   1.367  19.495  0.4315 -0.4381  0.0538
 1897TIP3    H129886   5.061   1.443  19.495  0.1908 -0.2514 -0.1736
 1897TIP3    H229887   4.959   1.369  19.410 -0.1668 -0.3690  0.3509
 1898TIP3   OH229888   4.624   3.432  19.707  0.0641  0.6269  0.1015
 1898TIP3    H129889   4.573   3.451  19.629 -0.9179  0.8522  0.7808
 1898TIP3    H229890   4.689   3.503  19.711 -0.0222  0.7341 -0.3912
 1899TIP3   OH229891   5.074   2.924  18.534 -0.2818  0.8978 -0.2866
 1899TIP3    H129892   5.063   2.829  18.533 -1.3255  0.9628  1.2354
 1899TIP3    H229893   5.148   2.941  18.476 -0.1722 -0.8208 -0.6944
 1900TIP3   OH229894   6.536   4.427  19.105  0.2791  0.1881 -0.4095
 1900TIP3    H129895   6.534   4.514  19.145  2.5050  0.2065 -0.2452
 1900TIP3    H229896   6.562   4.441  19.015  0.5088 -0.2848 -0.4246
 1901TIP3   OH229897   0.365   5.052  18.588 -0.1229 -0.5303 -0.2204
 1901TIP3    H129898   0.377   5.146  18.599  1.0202 -0.8626  1.8338
 1901TIP3    H229899   0.425   5.029  18.517  1.6811 -0.0901  1.1039
 1902TIP3   OH229900   4.553   5.109  19.498 -0.4316 -0.2868 -0.3689
 1902TIP3    H129901   4.529   5.197  19.527  0.5337 -0.1330  0.0321
 1902TIP3    H229902   4.504   5.050  19.556  0.1469  0.0122  0.4471
 1903TIP3   OH229903   5.416   0.118  17.701 -0.1823  0.0068 -0.0185
 1903TIP3    H129904   5.373   0.079  17.625 -1.6639 -0.8782  1.2114
 1903TIP3    H229905   5.464   0.046  17.742 -1.9918 -0.3505  1.6243
 1904TIP3   OH229906   2.322   5.511  19.175  0.0525  0.1699  0.7098
 1904TIP3    H129907   2.267   5.455  19.120  0.8910  0.6632 -0.7069
 1904TIP3    H229908   2.314   5.598  19.135 -0.3308  0.8353  2.1787
 1905TIP3   OH229909   0.362   2.238  18.192  0.1543 -0.3059  0.5366
 1905TIP3    H129910   0.382   2.331  18.180  0.5882 -0.6035 -1.2291
 1905TIP3    H229911   0.424   2.208  18.258 -0.1163  0.6915  1.2594
 1906TIP3   OH229912   4.146   6.550  19.817  0.8974  0.1490 -0.2666
 1906TIP3    H129913   4.055   6.568  19.793  0.3699 -0.4702  1.1306
 1906TIP3    H229914   4.198   6.589  19.747 -0.4862 -1.3526 -2.2396
 1907TIP3   OH229915   2.961   6.868  18.245  0.2847 -0.4931  0.5289
 1907TIP3    H129916   3.028   6.847  18.179 -0.1921  1.0313 -0.4887
 1907TIP3    H229917   2.907   6.935  18.204  0.9250  1.7481  3.0568
 1908TIP3   OH229918   2.169   7.314  19.060 -0.8910  0.4384  0.1275
 1908TIP3    H129919   2.222   7.394  19.063  0.0302 -0.0655 -1.4872
 1908TIP3    H229920   2.233   7.243  19.068 -1.1909 -0.1928 -2.3217
 1909TIP3   OH229921   6.321   1.106  18.060 -0.2909 -0.1235 -0.4086
 1909TIP3    H129922   6.382   1.033  18.050 -1.8659 -1.7763  1.3316
 1909TIP3    H229923   6.235   1.065  18.062 -1.1420  1.5637  2.3910
 1910TIP3   OH229924   4.275   3.512  17.162  0.0015  0.3105  0.7221
 1910TIP3    H129925   4.354   3.460  17.170 -0.2927 -0.2397  0.1332
 1910TIP3    H229926   4.228   3.499  17.244 -0.8818 -1.7378 -0.0408
 1911TIP3   OH229927   0.278   1.952  17.452 -0.1844 -0.6041 -0.0427
 1911TIP3    H129928   0.205   1.922  17.398 -1.5583  2.6634 -0.2401
 1911TIP3    H229929   0.236   1.997  17.526  1.6493 -0.5516  1.0378
 1912TIP3   OH229930   7.456   4.513  17.252 -0.2367  0.1685 -0.2021
 1912TIP3    H129931   7.363   4.500  17.271 -0.3611  1.1536 -0.0849
 1912TIP3    H229932   7.458   4.580  17.184  0.3903  0.1256 -0.2393
 1913TIP3   OH229933   7.589   0.976  17.407  0.6845 -0.3238  0.0912
 1913TIP3    H129934   7.585   1.063  17.446  1.8933 -0.1804 -0.0635
 1913TIP3    H229935   7.582   0.916  17.481 -0.3787 -0.1198  0.1759
 1914TIP3   OH229936   1.522   7.232  19.537  0.1352 -0.1311 -0.2760
 1914TIP3    H129937   1.599   7.279  19.504 -0.2014 -0.8385 -2.1987
 1914TIP3    H229938   1.558   7.161  19.590  1.0233 -1.9643 -3.1245
 1915TIP3   OH229939   2.533   0.755  18.038  0.9046 -0.1991 -0.5745
 1915TIP3    H129940   2.501   0.768  17.949  0.9971  1.2419 -0.4254
 1915TIP3    H229941   2.628   0.762  18.032  0.9765 -0.9744 -0.4814
 1916TIP3   OH229942   1.283   0.620  18.213  0.0215 -0.3749 -0.4973
 1916TIP3    H129943   1.313   0.690  18.270 -0.7199 -2.0906  2.1824
 1916TIP3    H229944   1.362   0.589  18.168  0.7339  0.6137  0.0399
 1917TIP3   OH229945   2.022   7.532  17.113  0.2235 -0.0642 -0.0352
 1917TIP3    H129946   2.031   7.536  17.018 -0.1493 -0.8485 -0.1138
 1917TIP3    H229947   1.975   7.450  17.129 -0.0857  0.2642  0.7964
 1918TIP3   OH229948   4.971   7.600  18.247 -0.6014  0.2431  0.1442
 1918TIP3    H129949   4.969   7.641  18.333 -1.1016  1.0939 -0.2510
 1918TIP3    H229950   5.065   7.590  18.227 -0.4407  1.4926  0.1426
 1919TIP3   OH229951   7.045   4.350  18.224  0.0472 -0.8936  0.2138
 1919TIP3    H129952   7.042   4.446  18.216  0.9470 -1.0038 -2.0568
 1919TIP3    H229953   7.138   4.329  18.228 -0.1081 -1.7342 -0.3779
 1920TIP3   OH229954   4.268   5.622  17.558  0.5238  0.3201 -1.3287
 1920TIP3    H129955   4.361   5.612  17.540  0.6023 -0.5038 -0.5411
 1920TIP3    H229956   4.237   5.534  17.578  0.2497  0.9520  1.4769
 1921TIP3   OH229957   0.940   2.388  19.113 -0.3757 -0.3251  0.4583
 1921TIP3    H129958   0.890   2.328  19.057  1.1443 -2.7706  1.5657
 1921TIP3    H229959   1.020   2.407  19.063 -1.1361  1.4069 -0.1717
 1922TIP3   OH229960   6.469   5.608  19.523  0.0218  0.1591  0.1189
 1922TIP3    H129961   6.375   5.595  19.513  0.2624 -2.9937  0.9095
 1922TIP3    H229962   6.505   5.598  19.435 -0.1743 -1.5130  0.2010
 1923TIP3   OH229963   0.753   7.132  17.643  0.5874 -0.0782  0.4330
 1923TIP3    H129964   0.752   7.227  17.648 -1.1700  0.0308 -1.0437
 1923TIP3    H229965   0.661   7.107  17.637  1.0672 -1.7285 -1.0206
 1924TIP3   OH229966   5.895   7.651  19.924  0.4230  0.7431  0.6575
 1924TIP3    H129967   5.868   7.716  19.860  0.3358 -0.4881 -0.5991
 1924TIP3    H229968   5.819   7.595  19.936  1.1315 -0.3936  0.0803
 1925TIP3   OH229969   6.689   0.067  17.350 -0.1901  0.0818 -0.4954
 1925TIP3    H129970   6.600   0.094  17.325 -0.1044  1.0649  0.1799
 1925TIP3    H229971   6.688  -0.028  17.343 -1.5008  0.0258  0.1142
 1926TIP3   OH229972   1.008   4.033  17.340 -1.1198 -0.0464  1.0584
 1926TIP3    H129973   1.101   4.008  17.340 -1.4500 -1.4634 -0.5540
 1926TIP3    H229974   0.961   3.950  17.333 -2.5365  0.6507  1.8634
 1927TIP3   OH229975   0.175   7.168  16.965  0.1269 -0.1704  0.1172
 1927TIP3    H129976   0.135   7.113  17.032 -0.3017  0.0201  0.0213
 1927TIP3    H229977   0.112   7.167  16.893 -1.4184  2.9083  1.2316
 1928TIP3   OH229978   5.843   1.691  18.192  0.0681 -0.2453 -0.6282
 1928TIP3    H129979   5.897   1.732  18.124 -0.6212  0.2685 -0.8712
 1928TIP3    H229980   5.845   1.753  18.265 -1.5347  0.5867 -1.2476
 1929TIP3   OH229981   3.253   4.583  18.409 -0.2411 -0.3357 -0.5005
 1929TIP3    H129982   3.256   4.519  18.337 -1.8687 -1.7160  0.5726
 1929TIP3    H229983   3.302   4.542  18.479  0.3955  0.5128 -0.4366
 1930TIP3   OH229984   5.426   3.436  18.856  0.0585 -0.4026 -0.0478
 1930TIP3    H129985   5.381   3.435  18.772 -0.7005  2.5546  0.2148
 1930TIP3    H229986   5.365   3.478  18.916  1.8731  0.6592  1.1547
 1931TIP3   OH229987   0.261   4.101  17.456  0.4889  0.1569  0.2274
 1931TIP3    H129988   0.346   4.064  17.432 -0.0006 -0.6050 -0.3847
 1931TIP3    H229989   0.274   4.196  17.452  1.2423  0.0463 -0.1084
 1932TIP3   OH229990   6.644   4.483  18.854  0.3218  0.5871 -0.6417
 1932TIP3    H129991   6.689   4.548  18.800 -0.3354 -0.1873 -2.1651
 1932TIP3    H229992   6.567   4.458  18.804 -1.0443  0.7722  1.2532
 1933TIP3   OH229993   1.658   2.716  17.581 -0.6773  0.1379 -0.1887
 1933TIP3    H129994   1.587   2.767  17.620 -0.1403 -0.0187  1.0301
 1933TIP3    H229995   1.737   2.752  17.620 -0.1911 -0.7127 -0.3780
 1934TIP3   OH229996   4.481   4.587  18.034  0.6382 -0.0315 -0.3138
 1934TIP3    H129997   4.543   4.659  18.019 -0.5559  1.1209  0.0784
 1934TIP3    H229998   4.458   4.594  18.126 -0.3046 -0.2507 -0.5244
 1935TIP3   OH229999   6.159   6.193  18.585 -0.1040  0.0765 -0.0074
 1935TIP3    H130000   6.100   6.128  18.623  0.2441  0.2610  0.8851
 1935TIP3    H230001   6.122   6.278  18.612 -0.6806  0.2743 -1.3505
 1936TIP3   OH230002   4.231   0.517  18.354 -0.4331 -0.1292  0.0142
 1936TIP3    H130003   4.206   0.543  18.265  1.3516 -0.8055 -0.7468
 1936TIP3    H230004   4.244   0.422  18.347 -0.5200 -0.2278  1.0817
 1937TIP3   OH230005   3.958   1.819  18.399 -0.4497  0.3926 -0.1544
 1937TIP3    H130006   3.945   1.908  18.366 -1.5482  0.2172 -0.2295
 1937TIP3    H230007   3.945   1.763  18.322  0.9015  0.1824 -0.2584
 1938TIP3   OH230008   7.618   1.070  18.555 -0.2667  0.0736  0.6782
 1938TIP3    H130009   7.544   1.104  18.605 -1.8738 -2.0004 -0.1063
 1938TIP3    H230010   7.597   1.091  18.464 -0.0769 -0.7703  0.4231
 1939TIP3   OH230011   3.870   0.891  19.485  0.1682 -0.2558  0.3567
 1939TIP3    H130012   3.936   0.958  19.503 -1.1246  1.1732 -0.0019
 1939TIP3    H230013   3.891   0.819  19.546  1.1333  0.7849  1.2951
 1940TIP3   OH230014   5.592   7.316  19.096  0.3936  0.0013 -0.1827
 1940TIP3    H130015   5.504   7.336  19.128  1.2202  0.0981  2.2585
 1940TIP3    H230016   5.593   7.346  19.005 -2.4223 -1.0886 -0.6631
 1941TIP3   OH230017   2.906   0.344  17.715 -0.1162  0.2550  0.0350
 1941TIP3    H130018   2.990   0.389  17.716  0.8170 -1.3761  1.8017
 1941TIP3    H230019   2.896   0.314  17.625 -0.6501  3.6082 -1.1305
 1942TIP3   OH230020   3.790   7.286  18.516  0.0440 -0.4731  0.1373
 1942TIP3    H130021   3.782   7.290  18.421  0.0678 -2.7683 -0.0147
 1942TIP3    H230022   3.714   7.235  18.544  0.4138 -0.4134  1.2899
 1943TIP3   OH230023   6.256   5.635  19.326 -0.0618  0.3931  0.4089
 1943TIP3    H130024   6.223   5.720  19.355 -1.2663  0.4949 -1.1080
 1943TIP3    H230025   6.178   5.578  19.324  0.7948 -0.8887  1.8077
 1944TIP3   OH230026   6.688   7.539  18.384 -0.0704  0.0451  0.0826
 1944TIP3    H130027   6.734   7.501  18.459 -0.2547 -1.2166 -0.4164
 1944TIP3    H230028   6.736   7.508  18.307  0.8386  2.2918 -0.3362
 1945TIP3   OH230029   4.462   6.949  19.070  0.3375 -0.4013  0.8378
 1945TIP3    H130030   4.384   6.915  19.113 -0.1467 -0.4730 -0.0691
 1945TIP3    H230031   4.442   7.040  19.052  0.7131 -0.2528  1.1542
 1946TIP3   OH230032   7.392   6.856  18.210  0.2181 -0.2255 -0.5673
 1946TIP3    H130033   7.328   6.813  18.266  1.4388  1.0679  2.0293
 1946TIP3    H230034   7.415   6.790  18.144 -2.8802 -1.0841 -0.9290
 1947TIP3   OH230035   0.332   3.278  18.215  0.3909 -0.0881 -0.0932
 1947TIP3    H130036   0.388   3.253  18.289  0.0391  1.2862  0.6819
 1947TIP3    H230037   0.306   3.369  18.235  0.9288  0.6068 -2.3110
 1948TIP3   OH230038   7.283   4.006  18.208  0.0839 -0.2173 -0.2044
 1948TIP3    H130039   7.286   4.060  18.129 -0.6351 -0.4501 -0.3905
 1948TIP3    H230040   7.192   4.010  18.237  0.6894  1.4627  1.7333
 1949TIP3   OH230041   5.787   4.011  16.926 -0.5040 -0.0497  0.5683
 1949TIP3    H130042   5.863   3.965  16.891 -0.5397  1.7085 -2.0524
 1949TIP3    H230043   5.713   3.976  16.878 -0.6828  1.7064 -0.5305
 1950TIP3   OH230044   4.108   5.518  19.307 -0.0449  0.0671  0.1677
 1950TIP3    H130045   4.152   5.465  19.240 -0.4290 -0.5665  0.4062
 1950TIP3    H230046   4.127   5.609  19.283 -2.2338  0.0027 -2.2857
 1951TIP3   OH230047   5.379   1.088  18.213  0.4929 -0.3361  0.5723
 1951TIP3    H130048   5.362   1.154  18.280  0.1153 -1.0657  1.2098
 1951TIP3    H230049   5.332   1.010  18.243 -1.4918 -0.0818 -1.6284
 1952TIP3   OH230050   3.719   6.037  18.184 -0.6617 -0.0405 -0.5282
 1952TIP3    H130051   3.675   6.088  18.115 -2.0806  0.9700  1.0418
 1952TIP3    H230052   3.662   5.962  18.198 -1.9216  1.1766  1.3871
 1953TIP3   OH230053   6.179   4.081  19.011  0.0251  0.2958 -0.0917
 1953TIP3    H130054   6.209   4.040  18.930 -1.0152 -0.0771 -0.3047
 1953TIP3    H230055   6.214   4.170  19.007  0.7739 -0.0071 -0.4909
 1954TIP3   OH230056   0.730   4.153  18.649 -0.4285  0.3986 -0.2973
 1954TIP3    H130057   0.648   4.117  18.681 -1.2214  1.4433 -1.0761
 1954TIP3    H230058   0.705   4.209  18.576  0.4849  3.7505  1.7295
 1955TIP3   OH230059   5.139   2.440  18.223  0.3031  0.2010 -0.1572
 1955TIP3    H130060   5.162   2.348  18.236 -1.9919 -0.0478  3.2455
 1955TIP3    H230061   5.222   2.482  18.198  2.1398 -2.2417  1.4022
 1956TIP3   OH230062   5.306   3.669  19.649  0.3612  0.0189 -0.1975
 1956TIP3    H130063   5.238   3.674  19.717  0.1350  1.3107 -0.4819
 1956TIP3    H230064   5.267   3.618  19.579  0.0415 -0.0711  0.0430
 1957TIP3   OH230065   4.284   0.243  18.331  0.0025  0.8061 -0.0444
 1957TIP3    H130066   4.245   0.215  18.413 -2.4858  2.4410 -0.5583
 1957TIP3    H230067   4.282   0.166  18.274 -1.2814  0.5079  0.3925
 1958TIP3   OH230068   1.656   3.399  17.523 -0.0033  0.5403 -0.1329
 1958TIP3    H130069   1.691   3.311  17.513  1.2136  1.0058 -0.2365
 1958TIP3    H230070   1.571   3.388  17.565 -1.1864 -0.8820 -2.6530
 1959TIP3   OH230071   3.207   0.376  19.775  0.4631 -0.4298  0.3369
 1959TIP3    H130072   3.137   0.314  19.796  0.9372  0.0072  3.7020
 1959TIP3    H230073   3.163   0.460  19.766  0.3757 -0.4327  0.7385
 1960TIP3   OH230074   5.171   6.488  18.513  0.1338 -0.5617 -0.1116
 1960TIP3    H130075   5.185   6.481  18.608 -0.4930 -0.0599  0.0263
 1960TIP3    H230076   5.230   6.423  18.475  0.8060 -0.3868  0.5933
 1961TIP3   OH230077   6.697   5.174  19.350 -0.0772 -0.0555  0.1039
 1961TIP3    H130078   6.623   5.132  19.306  0.8075 -1.2015 -0.3201
 1961TIP3    H230079   6.670   5.266  19.359 -1.6780 -0.5028  0.2519
 1962TIP3   OH230080   7.336   6.982  19.121 -0.2604 -0.4695  0.0401
 1962TIP3    H130081   7.394   6.977  19.196  0.9766 -0.3134 -0.8800
 1962TIP3    H230082   7.394   6.991  19.045 -1.4613 -0.7424 -0.9567
 1963TIP3   OH230083   6.049   5.916  18.562  0.4687 -0.0178 -0.5384
 1963TIP3    H130084   5.965   5.872  18.553  1.0876 -1.2406 -0.6063
 1963TIP3    H230085   6.077   5.895  18.651  0.6051  0.5572 -0.4457
 1964TIP3   OH230086   0.014   3.313  18.122  0.4214  0.5565 -0.0404
 1964TIP3    H130087  -0.066   3.269  18.093  0.9299  0.4826 -1.3908
 1964TIP3    H230088  -0.003   3.335  18.214 -0.9274  0.0497 -0.1446
 1965TIP3   OH230089   2.809   2.684  17.648 -0.0841  0.1694 -0.4755
 1965TIP3    H130090   2.881   2.694  17.709 -1.0774 -2.0754  1.2281
 1965TIP3    H230091   2.772   2.772  17.639  0.4949  0.6879  1.7009
 1966TIP3   OH230092   4.375   5.956  19.798 -0.1798 -0.1674  0.0665
 1966TIP3    H130093   4.412   5.873  19.768  0.2260  0.2991 -0.7490
 1966TIP3    H230094   4.423   5.977  19.878  0.9411  0.1439 -0.6737
 1967TIP3   OH230095   3.542   6.909  18.064  0.9277  0.0341  0.2426
 1967TIP3    H130096   3.533   6.915  17.969  1.3146  0.7563  0.2429
 1967TIP3    H230097   3.562   6.817  18.081  1.5106  0.0265 -0.4334
 1968TIP3   OH230098   6.585   2.295  19.368  0.1370  0.5113  0.1527
 1968TIP3    H130099   6.620   2.206  19.368  0.4857  0.6213  1.7713
 1968TIP3    H230100   6.655   2.348  19.329  0.5199  0.2676  0.4914
 1969TIP3   OH230101   0.273   5.517  17.799 -0.3834 -0.1116  0.5401
 1969TIP3    H130102   0.236   5.438  17.840  2.6433 -1.0206  1.8000
 1969TIP3    H230103   0.252   5.588  17.860 -1.9655 -0.1371  0.0658
 1970TIP3   OH230104   6.341   5.960  18.504 -0.1217 -0.0711 -0.2272
 1970TIP3    H130105   6.258   5.940  18.460 -1.0074  2.9294 -0.1258
 1970TIP3    H230106   6.379   5.874  18.524 -3.6124 -1.6185  0.5228
 1971TIP3   OH230107   6.993   2.886  18.290  0.9574  0.3192 -0.3809
 1971TIP3    H130108   7.044   2.813  18.325 -0.4207 -0.3835  0.2638
 1971TIP3    H230109   6.999   2.876  18.195 -0.0624 -1.3086 -0.3181
 1972TIP3   OH230110   2.753   1.548  18.536  0.4255  0.6578  0.0793
 1972TIP3    H130111   2.827   1.511  18.489 -0.5275 -0.7945 -0.3236
 1972TIP3    H230112   2.734   1.486  18.606 -1.7710 -0.1990 -1.1558
 1973TIP3   OH230113   6.684   0.125  19.819  0.2060 -0.4534  0.7516
 1973TIP3    H130114   6.622   0.052  19.825  0.8218 -1.0057  0.4380
 1973TIP3    H230115   6.738   0.105  19.742 -2.4794  2.5344 -2.2698
 1974TIP3   OH230116   6.716   4.544  17.713 -0.5640  0.3416 -0.6367
 1974TIP3    H130117   6.767   4.523  17.791  1.2657  0.2177 -1.8092
 1974TIP3    H230118   6.655   4.471  17.704  1.2829 -1.2665 -0.9804
 1975TIP3   OH230119   7.175   2.150  17.878  0.2010 -0.2412  0.2699
 1975TIP3    H130120   7.159   2.144  17.784 -0.2884  0.7892  0.2836
 1975TIP3    H230121   7.130   2.074  17.915  1.7840 -1.6065 -0.4711
 1976TIP3   OH230122   3.651   2.139  19.827 -0.0850 -0.2788 -0.5562
 1976TIP3    H130123   3.604   2.222  19.816  0.2975 -0.1317 -1.1086
 1976TIP3    H230124   3.684   2.142  19.917  0.2870  0.3613 -0.7061
 1977TIP3   OH230125   2.294   6.386  18.952 -0.1363 -0.3584  0.1358
 1977TIP3    H130126   2.220   6.370  19.010 -0.0415 -1.0240  0.0762
 1977TIP3    H230127   2.255   6.398  18.866 -0.1756 -0.7921  0.0892
 1978TIP3   OH230128   3.597   1.686  19.027 -0.2339  0.2864  0.2036
 1978TIP3    H130129   3.640   1.668  18.943 -2.0095  0.0496 -0.7033
 1978TIP3    H230130   3.622   1.775  19.048  0.1456  0.3972 -0.6471
 1979TIP3   OH230131   1.558   1.870  18.809  0.0974 -0.1251  0.2634
 1979TIP3    H130132   1.556   1.793  18.753  0.9803 -1.5519  2.1066
 1979TIP3    H230133   1.640   1.914  18.787 -1.3591  1.5761 -2.3015
 1980TIP3   OH230134   6.948   2.360  19.765 -0.2602 -0.1297  0.1822
 1980TIP3    H130135   7.023   2.355  19.825 -0.7575  1.0026  0.9354
 1980TIP3    H230136   6.982   2.407  19.689  0.8651 -3.0673 -1.2977
 1981TIP3   OH230137   7.545   3.427  19.738  0.0894  0.1367  0.1772
 1981TIP3    H130138   7.625   3.425  19.791 -1.0532 -0.8265  1.9773
 1981TIP3    H230139   7.508   3.340  19.748 -1.9184  0.9839  0.5990
 1982TIP3   OH230140   2.740   7.191  18.666 -0.1183 -0.5600 -0.1677
 1982TIP3    H130141   2.829   7.198  18.702 -0.2267 -1.0601  0.1984
 1982TIP3    H230142   2.694   7.266  18.704 -0.3012 -1.2160  0.9519
 1983TIP3   OH230143   1.038   7.381  18.143 -0.5102  0.2165 -0.5193
 1983TIP3    H130144   0.980   7.456  18.152 -1.9542 -1.0934  2.2319
 1983TIP3    H230145   1.116   7.405  18.192 -0.7795  0.0934 -0.0312
 1984TIP3   OH230146   7.627   5.433  18.387 -0.0183  0.1481 -0.3141
 1984TIP3    H130147   7.591   5.356  18.343  1.1463 -0.0768 -0.9323
 1984TIP3    H230148   7.693   5.397  18.446 -0.5047  0.5721  0.4925
 1985TIP3   OH230149   4.993   3.780  17.117 -0.2129 -0.2124  0.1801
 1985TIP3    H130150   5.013   3.777  17.023 -0.1321 -0.2458  0.1980
 1985TIP3    H230151   4.965   3.870  17.132  0.6644  0.0579  0.2998
 1986TIP3   OH230152   5.453   4.174  17.445 -0.1714 -0.6781 -0.0401
 1986TIP3    H130153   5.515   4.120  17.495  0.1416 -0.8973 -0.6575
 1986TIP3    H230154   5.374   4.121  17.438  0.2065 -1.1558 -0.8219
 1987TIP3   OH230155   7.633   3.550  17.770 -1.2646  0.3312 -0.6897
 1987TIP3    H130156   7.551   3.519  17.808 -1.8998  0.2620 -2.0843
 1987TIP3    H230157   7.684   3.579  17.846 -3.1291  1.7393  0.1200
 1988TIP3   OH230158   0.600   4.038  17.176  0.6291  0.4001  0.8387
 1988TIP3    H130159   0.597   3.943  17.179  0.1646  0.4331  2.2600
 1988TIP3    H230160   0.566   4.066  17.261  2.1144  1.7984  1.0351
 1989TIP3   OH230161   4.710   4.000  19.576  0.6250  0.0889 -0.2871
 1989TIP3    H130162   4.772   4.072  19.566  1.7631 -1.1196 -2.9171
 1989TIP3    H230163   4.624   4.041  19.574  1.2040  1.7012  2.3377
 1990TIP3   OH230164   1.071   3.502  19.539  0.1743 -0.3557  0.1482
 1990TIP3    H130165   1.016   3.465  19.470 -1.6214  0.8724  0.8251
 1990TIP3    H230166   1.158   3.507  19.501 -0.6732 -0.0846 -1.9082
 1991TIP3   OH230167   0.118   4.037  18.319 -0.3781 -0.6066  0.1215
 1991TIP3    H130168   0.144   3.945  18.316 -0.1249 -0.6562  2.1689
 1991TIP3    H230169   0.030   4.035  18.358 -0.7361 -0.0192 -0.6288
 1992TIP3   OH230170   5.413   2.999  19.154 -0.2866  0.8518 -0.3060
 1992TIP3    H130171   5.430   2.977  19.245  3.4901  2.2412 -0.4928
 1992TIP3    H230172   5.352   3.073  19.158 -3.4723 -1.6149  0.7463
 1993TIP3   OH230173   6.557   7.487  17.869 -0.4160 -0.0972 -0.1076
 1993TIP3    H130174   6.525   7.414  17.815  1.7675 -1.4660  0.3166
 1993TIP3    H230175   6.539   7.460  17.959 -0.6959  0.4657  0.0090
 1994TIP3   OH230176   1.135   1.440  17.895 -0.3790  0.0434 -0.4082
 1994TIP3    H130177   1.044   1.438  17.927  0.5443 -1.0462  2.4943
 1994TIP3    H230178   1.160   1.532  17.899 -0.3296 -0.0191  2.2214
 1995TIP3   OH230179   2.837   2.544  19.214  0.0823 -0.0720 -0.0458
 1995TIP3    H130180   2.773   2.502  19.271 -1.0415  0.5568 -0.8118
 1995TIP3    H230181   2.862   2.476  19.152  0.8445 -0.5768  0.7870
 1996TIP3   OH230182   1.126   0.880  18.088 -0.2264 -0.6341 -0.6438
 1996TIP3    H130183   1.186   0.920  18.025  0.1236 -0.3859 -0.1663
 1996TIP3    H230184   1.164   0.902  18.173  0.9281 -3.3328 -0.3413
 1997TIP3   OH230185   2.479   2.355  17.428 -0.0943  0.2372  0.3118
 1997TIP3    H130186   2.400   2.360  17.373  1.1842 -2.1864 -1.9914
 1997TIP3    H230187   2.498   2.261  17.434  2.4694  0.7240  1.0120
 1998TIP3   OH230188   0.443   5.364  18.076  0.2362 -0.0433  0.2927
 1998TIP3    H130189   0.379   5.312  18.028 -1.7097  1.3538  1.2365
 1998TIP3    H230190   0.391   5.417  18.137  2.0021  3.2170 -0.7718
 1999TIP3   OH230191   6.323   2.411  17.332 -0.3490  0.0070  0.7598
 1999TIP3    H130192   6.343   2.496  17.292 -2.4251 -0.2316 -0.9227
 1999TIP3    H230193   6.236   2.388  17.299  0.3810 -3.0761  0.6731
 2000TIP3   OH230194   0.113   2.352  18.900 -0.2700  0.2046  0.4441
 2000TIP3    H130195   0.075   2.314  18.979  0.6589  0.7365  1.1579
 2000TIP3    H230196   0.186   2.405  18.931  0.0453  0.5085 -0.7661
 2001TIP3   OH230197   3.851   3.336  19.046  0.3881  0.1620 -0.2905
 2001TIP3    H130198   3.803   3.415  19.021 -0.2772  0.0241  0.5016
 2001TIP3    H230199   3.941   3.366  19.059 -0.1057  1.0867  1.2862
 2002TIP3   OH230200   6.601   0.921  19.300  0.4529 -0.0785  0.1740
 2002TIP3    H130201   6.620   0.933  19.207 -1.5834 -1.0022 -0.3958
 2002TIP3    H230202   6.629   0.832  19.319  0.7312  0.0605  0.4426
 2003TIP3   OH230203   7.147   3.727  18.801  0.5256  0.1339  0.6341
 2003TIP3    H130204   7.158   3.692  18.713 -0.0352 -0.9216  0.9662
 2003TIP3    H230205   7.222   3.695  18.850  1.6604  1.9802  0.1921
 2004TIP3   OH230206   6.863   1.639  17.796  0.7994  0.2078 -0.3625
 2004TIP3    H130207   6.785   1.692  17.814 -0.1865 -1.4973  0.6103
 2004TIP3    H230208   6.934   1.687  17.839  0.0248  1.0047  0.0788
 2005TIP3   OH230209   7.082   7.120  17.601 -0.1610  0.3947 -0.0872
 2005TIP3    H130210   7.025   7.047  17.576  0.8471 -0.7619  0.8389
 2005TIP3    H230211   7.059   7.138  17.692  0.3912  0.4566  0.0424
 2006TIP3   OH230212   4.055   3.408  19.459  0.0155 -0.4145  0.3244
 2006TIP3    H130213   4.076   3.369  19.543  0.3421  0.4761  0.6709
 2006TIP3    H230214   4.044   3.502  19.478  1.7505  0.0764 -0.8731
 2007TIP3   OH230215   3.422   5.607  18.147  0.7586 -0.2217 -0.4058
 2007TIP3    H130216   3.475   5.528  18.138  0.1039 -0.8556  1.0516
 2007TIP3    H230217   3.337   5.582  18.110  0.6936 -0.0289 -0.3855
 2008TIP3   OH230218   5.317   5.457  17.800 -0.2371 -0.1609 -0.2591
 2008TIP3    H130219   5.412   5.453  17.803 -0.1092  1.5450 -1.3355
 2008TIP3    H230220   5.290   5.366  17.785  1.2494 -0.5213 -0.8953
 2009TIP3   OH230221   4.098   0.034  17.467 -0.3175  0.3264  0.5868
 2009TIP3    H130222   4.004   0.036  17.449 -0.2963  1.0634  0.5010
 2009TIP3    H230223   4.105  -0.011  17.552 -1.0580  3.0318  2.2220
 2010TIP3   OH230224   4.432   0.386  18.597  0.6560 -0.0337 -0.1270
 2010TIP3    H130225   4.420   0.406  18.690  0.7918 -2.2633  0.4130
 2010TIP3    H230226   4.343   0.378  18.562  0.5412 -1.7544  0.4519
 2011TIP3   OH230227   1.449   4.300  19.261  0.3301  0.1149 -0.1204
 2011TIP3    H130228   1.460   4.277  19.354  0.0069  0.6180  0.0514
 2011TIP3    H230229   1.490   4.228  19.213 -0.9943 -1.0250  0.3851
 2012TIP3   OH230230   2.507   6.039  19.426  0.0446 -0.4156  0.2961
 2012TIP3    H130231   2.544   6.125  19.444  0.0725 -0.3779  0.0614
 2012TIP3    H230232   2.500   6.036  19.331 -1.7450  0.0888  0.3768
 2013TIP3   OH230233   3.360   3.823  18.086 -0.1995  0.1390 -0.8189
 2013TIP3    H130234   3.399   3.870  18.012  1.3782 -3.0035 -2.1930
 2013TIP3    H230235   3.435   3.778  18.127 -1.5207 -0.8382  0.6244
 2014TIP3   OH230236   6.511   1.100  19.588 -0.0439  0.3826 -0.2387
 2014TIP3    H130237   6.579   1.076  19.652  0.8848 -0.8595 -1.6167
 2014TIP3    H230238   6.448   1.029  19.592 -0.1729  0.4840 -0.4446
 2015TIP3   OH230239   6.952   5.132  17.498  0.2561 -0.0538  0.6058
 2015TIP3    H130240   6.863   5.167  17.487  0.7797  0.9146 -0.7540
 2015TIP3    H230241   7.009   5.207  17.480  1.3708 -0.9574  0.3112
 2016TIP3   OH230242   4.990   4.341  19.001  0.3552  0.4554 -0.8117
 2016TIP3    H130243   5.078   4.305  18.999  1.4332  2.9710 -2.5845
 2016TIP3    H230244   4.937   4.277  18.953  1.2382 -0.8973 -0.0435
 2017TIP3   OH230245   2.188   0.123  17.909 -0.1904 -0.6556 -0.1096
 2017TIP3    H130246   2.242   0.057  17.866  2.0675 -0.3512  2.0586
 2017TIP3    H230247   2.233   0.205  17.893 -1.4063 -0.0081 -0.3335
 2018TIP3   OH230248   1.939   0.225  18.579  0.0597  0.5653  0.1110
 2018TIP3    H130249   1.931   0.132  18.597  0.7023  0.8289  1.8919
 2018TIP3    H230250   1.922   0.232  18.485  2.0798 -1.6039 -0.5197
 2019TIP3   OH230251   4.946   1.306  17.825 -0.3205  0.4493  0.2934
 2019TIP3    H130252   5.025   1.328  17.874  0.4687 -2.3131  0.4099
 2019TIP3    H230253   4.877   1.300  17.891  0.2631 -1.0574  0.7981
 2020TIP3   OH230254   2.152   0.006  18.948  0.1675 -0.0315  0.1081
 2020TIP3    H130255   2.153   0.101  18.941  3.7907  0.0206 -0.8613
 2020TIP3    H230256   2.158  -0.025  18.857 -0.9017 -1.2283  0.4070
 2021TIP3   OH230257   6.986   3.934  19.578 -0.4394 -0.3738 -0.6898
 2021TIP3    H130258   6.919   3.873  19.608 -1.8398  0.2398 -2.4218
 2021TIP3    H230259   6.939   4.016  19.563  0.9720  0.4814 -0.6245
 2022TIP3   OH230260   1.255   3.765  18.411 -0.7822 -0.1515  0.1062
 2022TIP3    H130261   1.350   3.775  18.408 -1.0273  2.4070 -2.5273
 2022TIP3    H230262   1.240   3.674  18.384  0.8518  0.1370 -1.9871
 2023TIP3   OH230263   5.625   1.324  19.457  0.3857 -0.3832  0.7936
 2023TIP3    H130264   5.667   1.246  19.421  1.3944  0.1665  0.7359
 2023TIP3    H230265   5.636   1.316  19.552  1.5505  0.2298  0.7390
 2024TIP3   OH230266   1.757   0.539  17.511  0.2853  0.4401 -0.0172
 2024TIP3    H130267   1.792   0.456  17.480  0.7780  0.8479 -0.5763
 2024TIP3    H230268   1.698   0.567  17.441 -1.0786 -0.1648  0.8407
 2025TIP3   OH230269   0.164   6.931  19.884 -0.0754 -0.8142  0.8554
 2025TIP3    H130270   0.093   6.872  19.858  1.0903 -2.0245  0.3147
 2025TIP3    H230271   0.132   7.018  19.859 -0.1093 -1.6135 -2.4211
 2026TIP3   OH230272   1.228   5.213  19.910  0.4628 -0.5662 -0.4208
 2026TIP3    H130273   1.245   5.300  19.876 -3.1190 -0.1457 -1.5473
 2026TIP3    H230274   1.199   5.227  20.000 -0.1904 -0.5330 -0.6273
 2027TIP3   OH230275   6.560   4.373  19.577  0.2539 -0.1172  0.4554
 2027TIP3    H130276   6.562   4.309  19.505 -0.2646  0.3429  0.0176
 2027TIP3    H230277   6.647   4.366  19.617  1.9095  1.9656 -2.3379
 2028TIP3   OH230278   0.931   7.637  19.256 -0.1679 -0.6459  0.0157
 2028TIP3    H130279   0.924   7.707  19.191 -0.7538  0.3173  1.0825
 2028TIP3    H230280   0.932   7.557  19.204 -3.7742 -0.1249 -1.1330
 2029TIP3   OH230281   5.076   4.999  17.786 -0.4004 -0.3795  0.3027
 2029TIP3    H130282   5.164   5.027  17.761  0.6659 -5.1844 -2.9319
 2029TIP3    H230283   5.026   5.001  17.704 -2.4348 -0.4470  1.4718
 2030TIP3   OH230284   7.312   3.867  19.155  0.0021  0.6828  0.4214
 2030TIP3    H130285   7.233   3.814  19.143  0.0932  1.0502 -2.5281
 2030TIP3    H230286   7.291   3.925  19.227 -1.2793 -1.2009  1.6649
 2031TIP3   OH230287   0.870   5.891  17.729  0.1910 -0.0770 -0.0322
 2031TIP3    H130288   0.841   5.845  17.650  1.8023  0.5457 -1.0327
 2031TIP3    H230289   0.940   5.836  17.764  1.4320  1.0427 -0.6632
 2032TIP3   OH230290   1.388   0.344  17.729  0.3659 -0.6561 -0.2069
 2032TIP3    H130291   1.379   0.382  17.641  0.6605 -0.6484 -0.2342
 2032TIP3    H230292   1.482   0.345  17.746  0.4245 -1.8320 -0.4062
 2033TIP3   OH230293   5.647   5.210  18.513  0.2325  0.1122 -0.6616
 2033TIP3    H130294   5.594   5.289  18.499  0.6805  0.1237 -2.5549
 2033TIP3    H230295   5.734   5.244  18.534 -0.3334  0.0904  2.0795
 2034TIP3   OH230296   1.495   7.172  17.866  0.5507  0.4522 -0.3841
 2034TIP3    H130297   1.485   7.184  17.772  0.0767 -1.0782 -0.5672
 2034TIP3    H230298   1.578   7.213  17.887  1.3276 -0.3574 -1.7314
 2035TIP3   OH230299   1.638   4.828  19.098 -0.3096 -0.4039  0.1978
 2035TIP3    H130300   1.712   4.857  19.044  0.4394 -0.4931  1.1485
 2035TIP3    H230301   1.589   4.908  19.117  0.0666 -0.1984  0.3229
 2036TIP3   OH230302   3.551   5.830  17.045 -0.1095 -0.2049 -0.3427
 2036TIP3    H130303   3.636   5.813  17.085  0.1787  2.2322  0.2135
 2036TIP3    H230304   3.573   5.860  16.957 -0.5399 -1.3625 -0.8730
 2037TIP3   OH230305   6.777   6.672  19.654  0.3641  0.1497 -0.0714
 2037TIP3    H130306   6.815   6.740  19.710  0.3045  0.1554 -0.0359
 2037TIP3    H230307   6.690   6.706  19.633  0.0429 -0.2561  0.5649
 2038TIP3   OH230308   4.674   0.247  19.721  0.2579 -0.3872  0.0811
 2038TIP3    H130309   4.578   0.243  19.714  0.2302 -0.0405  0.2609
 2038TIP3    H230310   4.705   0.203  19.642 -0.0458  1.7090 -1.2838
 2039TIP3   OH230311   3.551   7.490  18.163  0.0091 -0.1463  0.9421
 2039TIP3    H130312   3.602   7.418  18.200 -1.2295 -1.0130  1.0188
 2039TIP3    H230313   3.611   7.533  18.102  0.8211 -1.1556  1.0065
 2040TIP3   OH230314   7.282   4.830  18.839 -0.1045  0.1143  0.0989
 2040TIP3    H130315   7.196   4.867  18.818 -0.1017 -0.3483 -0.8001
 2040TIP3    H230316   7.322   4.894  18.898 -0.2644  1.3578 -1.0787
 2041TIP3   OH230317   1.934   2.227  18.509 -0.4845  0.4016 -0.5898
 2041TIP3    H130318   1.958   2.240  18.601 -0.5088 -1.3442 -0.3080
 2041TIP3    H230319   1.959   2.136  18.490 -4.0937 -0.6230 -1.1236
 2042TIP3   OH230320   3.284   6.802  18.580 -0.0260  0.1846 -0.1372
 2042TIP3    H130321   3.308   6.857  18.506  2.8598 -0.8377 -0.0878
 2042TIP3    H230322   3.278   6.862  18.655 -0.8731  0.9296 -0.7872
 2043TIP3   OH230323   2.383   0.805  18.781  0.0219 -0.2416  0.0191
 2043TIP3    H130324   2.351   0.880  18.831 -0.0283 -0.3994  0.2244
 2043TIP3    H230325   2.469   0.786  18.818 -0.2623 -0.7313  0.4571
 2044TIP3   OH230326   7.414   5.610  18.448  0.3271  0.0153  0.3821
 2044TIP3    H130327   7.337   5.575  18.494  0.0952  0.3880  0.2862
 2044TIP3    H230328   7.484   5.548  18.468  0.5140  0.7429  2.1297
 2045TIP3   OH230329   0.840   0.694  19.006 -0.1027  0.5344  0.3703
 2045TIP3    H130330   0.913   0.657  19.056 -0.6108 -0.4846  0.3986
 2045TIP3    H230331   0.881   0.731  18.928  0.5160  0.5527  0.6985
 2046TIP3   OH230332   5.419   2.438  18.801  0.3682  0.4655  0.2011
 2046TIP3    H130333   5.437   2.344  18.798  0.4732  0.4321 -3.6844
 2046TIP3    H230334   5.348   2.447  18.864  0.3304 -2.2081  0.6481
 2047TIP3   OH230335   5.943   0.505  18.806 -0.3694 -0.0404  0.0158
 2047TIP3    H130336   5.984   0.532  18.888 -0.4514 -3.2452  1.2468
 2047TIP3    H230337   6.003   0.440  18.769  0.0559  1.8343 -2.9761
 2048TIP3   OH230338   0.926   1.891  18.540  0.6282  0.0265  0.0088
 2048TIP3    H130339   0.870   1.820  18.571 -1.6351 -0.2436 -4.0388
 2048TIP3    H230340   0.880   1.971  18.565 -1.2808 -0.1888 -2.4398
 2049TIP3   OH230341   4.653   6.769  17.623 -0.0753  0.3931 -0.0998
 2049TIP3    H130342   4.598   6.691  17.617 -0.9789  0.9618  0.5196
 2049TIP3    H230343   4.743   6.736  17.615 -0.2070 -1.1410  3.0840
 2050TIP3   OH230344   5.844   7.661  18.973  0.0718  0.0360  0.0478
 2050TIP3    H130345   5.832   7.745  18.928 -2.2917 -0.7740 -0.9768
 2050TIP3    H230346   5.905   7.681  19.044 -0.0225  2.4964 -0.4608
 2051TIP3   OH230347   2.984   5.433  17.727 -0.0877 -0.1910 -0.3724
 2051TIP3    H130348   3.017   5.515  17.691 -1.0395 -0.2146 -1.3717
 2051TIP3    H230349   2.951   5.385  17.651  0.6938 -1.6379  0.1489
 2052TIP3   OH230350   3.362   5.162  18.965 -0.1396  0.3877 -0.2712
 2052TIP3    H130351   3.275   5.149  18.928 -1.4106  0.6136  2.4089
 2052TIP3    H230352   3.389   5.075  18.994 -0.7112  0.6972  1.3126
 2053TIP3   OH230353   4.061   1.778  17.077  0.5198  0.7230 -0.7950
 2053TIP3    H130354   4.079   1.845  17.143  0.2052 -0.2016  0.2701
 2053TIP3    H230355   4.121   1.798  17.005  1.6724  1.1196  0.2296
 2054TIP3   OH230356   1.294   7.599  16.831 -0.2409 -0.3830  0.1451
 2054TIP3    H130357   1.259   7.520  16.790  2.1242 -1.1937 -0.4884
 2054TIP3    H230358   1.376   7.570  16.872  0.0775  1.5110  0.9563
 2055TIP3   OH230359   0.209   3.205  19.543 -0.1058 -0.5120  0.3284
 2055TIP3    H130360   0.211   3.126  19.597 -0.0576 -0.8274 -0.1200
 2055TIP3    H230361   0.196   3.277  19.605 -1.3552 -0.9785  0.6476
 2056TIP3   OH230362   4.290   6.079  19.228 -0.3895  0.2273  0.2969
 2056TIP3    H130363   4.383   6.065  19.209 -0.5941  0.0778 -0.6207
 2056TIP3    H230364   4.285   6.168  19.261  0.0744  0.2470  0.3165
 2057TIP3   OH230365   3.978   6.195  17.094  0.8068  0.3825  0.1942
 2057TIP3    H130366   3.994   6.177  17.001 -1.4515  0.2298 -0.2093
 2057TIP3    H230367   4.058   6.166  17.138  1.8247  0.2181 -1.6531
 2058TIP3   OH230368   1.303   5.166  17.935  0.6791  1.1201 -0.1407
 2058TIP3    H130369   1.383   5.217  17.945 -0.3460  2.7499 -0.0036
 2058TIP3    H230370   1.265   5.196  17.853 -0.1407  0.8646  0.1359
 2059TIP3   OH230371   0.373   3.381  19.372  0.0056 -0.3853 -0.2099
 2059TIP3    H130372   0.389   3.447  19.439 -1.0601  0.7842 -1.0665
 2059TIP3    H230373   0.334   3.307  19.418 -1.0530  0.5439  0.4197
 2060TIP3   OH230374   3.406   5.348  19.475  0.1255 -0.2235  0.5477
 2060TIP3    H130375   3.311   5.340  19.467  0.1855 -0.5772  0.1304
 2060TIP3    H230376   3.441   5.287  19.410  0.6482  1.7458 -1.0988
 2061TIP3   OH230377   2.153   4.222  19.025  0.2207 -0.3028 -0.3771
 2061TIP3    H130378   2.192   4.188  19.106 -0.0987 -0.1056 -0.1353
 2061TIP3    H230379   2.147   4.147  18.967 -0.7094 -0.7325  0.2443
 2062TIP3   OH230380   0.663   2.255  19.201 -0.1830  0.1148 -0.7732
 2062TIP3    H130381   0.713   2.190  19.251  0.1912  0.7012 -0.3699
 2062TIP3    H230382   0.632   2.316  19.268  0.7464  1.1981 -1.3146
 2063TIP3   OH230383   5.474   3.318  16.706 -0.7664 -0.6423 -0.0016
 2063TIP3    H130384   5.552   3.266  16.688 -0.1558  0.2360  0.0058
 2063TIP3    H230385   5.408   3.283  16.647 -0.4946 -1.6923  0.3060
 2064TIP3   OH230386   1.929   7.630  18.551 -0.0551  0.1739 -0.1151
 2064TIP3    H130387   1.964   7.559  18.498  0.4617 -0.8789  1.5681
 2064TIP3    H230388   1.836   7.609  18.561  0.0697 -0.2071  0.2699
 2065TIP3   OH230389   3.332   4.987  19.306 -0.4308  0.0608  0.0339
 2065TIP3    H130390   3.244   5.021  19.290 -0.2749  0.0813 -0.8020
 2065TIP3    H230391   3.317   4.905  19.353 -0.9119 -0.1099 -0.4092
 2066TIP3   OH230392   6.237   6.562  17.177  0.0539  0.5119  0.3788
 2066TIP3    H130393   6.147   6.579  17.205 -0.7132 -0.0925 -1.5243
 2066TIP3    H230394   6.281   6.646  17.186 -1.0173  1.0983  0.3132
 2067TIP3   OH230395   4.722   2.215  19.721 -0.0563 -0.0324 -0.0818
 2067TIP3    H130396   4.801   2.172  19.687  0.1152  0.0227  0.2496
 2067TIP3    H230397   4.751   2.303  19.744 -0.5282  0.4553 -1.2808
 2068TIP3   OH230398   5.602   5.309  18.840  0.2874 -0.1578  1.0815
 2068TIP3    H130399   5.598   5.222  18.880  2.1520  0.8764  3.7749
 2068TIP3    H230400   5.614   5.292  18.747 -0.6027 -2.7425  1.3532
 2069TIP3   OH230401   1.823   3.716  18.404 -0.6217  0.6641  0.1341
 2069TIP3    H130402   1.910   3.724  18.366  0.0136 -1.6657  0.8955
 2069TIP3    H230403   1.803   3.803  18.437  0.7823  1.6007 -1.3271
 2070TIP3   OH230404   2.171   4.183  18.276  0.0937 -0.1214 -0.2098
 2070TIP3    H130405   2.219   4.200  18.357  0.8280 -0.8999 -0.4730
 2070TIP3    H230406   2.150   4.270  18.243  0.6338  0.2208  0.3138
 2071TIP3   OH230407   6.681   0.660  18.442 -0.2265 -0.1246 -0.1574
 2071TIP3    H130408   6.730   0.729  18.398  1.0477 -1.1238 -0.3665
 2071TIP3    H230409   6.705   0.668  18.534 -0.7818  0.2546 -0.0363
 2072TIP3   OH230410   3.967   1.852  17.483  0.1563  0.2132  0.5148
 2072TIP3    H130411   4.036   1.786  17.481  0.0732  0.1248  0.5229
 2072TIP3    H230412   3.993   1.915  17.416 -1.4371 -1.5571 -1.9887
 2073TIP3   OH230413   6.681   6.027  17.171  0.2207  0.6898  0.1772
 2073TIP3    H130414   6.756   6.010  17.115  1.2311 -0.7611  1.8414
 2073TIP3    H230415   6.718   6.034  17.259 -1.5150  0.5470  0.9785
 2074TIP3   OH230416   1.024   1.159  19.420  0.5518 -0.3726 -0.3533
 2074TIP3    H130417   0.959   1.224  19.447 -0.7439 -1.6547 -0.2410
 2074TIP3    H230418   1.036   1.174  19.326  0.3321  0.0828 -0.3099
 2075TIP3   OH230419   2.622   3.860  17.850  0.6563  0.1330  0.0230
 2075TIP3    H130420   2.559   3.900  17.910  1.4331 -0.3011  1.1481
 2075TIP3    H230421   2.649   3.780  17.894  1.4609 -0.0467 -0.7782
 2076TIP3   OH230422   6.679   0.368  17.302  0.5163 -0.2798 -0.1033
 2076TIP3    H130423   6.725   0.285  17.290  0.9419 -0.1158  0.3387
 2076TIP3    H230424   6.747   0.429  17.331  0.1495  0.1464 -0.1272
 2077TIP3   OH230425   2.714   1.866  18.274 -1.1185  0.1954 -0.1051
 2077TIP3    H130426   2.658   1.815  18.332 -1.4207 -0.2125 -0.7466
 2077TIP3    H230427   2.730   1.809  18.199  0.8960 -0.0498  0.4529
 2078TIP3   OH230428   1.179   7.199  19.215 -0.2007 -0.4310  0.3955
 2078TIP3    H130429   1.137   7.123  19.175 -1.1927 -0.4516  1.4382
 2078TIP3    H230430   1.272   7.177  19.216 -0.5398 -1.9985  1.3949
 2079TIP3   OH230431   4.212   5.843  19.562  0.4129 -0.5199  0.4090
 2079TIP3    H130432   4.295   5.797  19.579  1.4471  0.4414 -1.6319
 2079TIP3    H230433   4.231   5.934  19.584 -0.2298 -0.3569  0.2943
 2080TIP3   OH230434   5.727   5.956  17.136  0.2392 -0.7380  0.1876
 2080TIP3    H130435   5.705   6.047  17.151  1.7182 -0.0929 -1.2068
 2080TIP3    H230436   5.642   5.912  17.127 -0.4893  0.5783  0.3875
 2081TIP3   OH230437   5.942   3.008  19.538 -0.1126  0.1962  0.1813
 2081TIP3    H130438   5.897   2.949  19.598  2.5980 -0.2718  1.9457
 2081TIP3    H230439   6.001   2.950  19.489  0.2666  1.0421 -0.3728
 2082TIP3   OH230440   4.721   7.025  19.712  0.2053  0.0650  0.1369
 2082TIP3    H130441   4.788   6.973  19.669 -2.0218 -2.1756 -0.8391
 2082TIP3    H230442   4.692   7.087  19.645  1.2131  1.0355  0.5594
 2083TIP3   OH230443   7.462   6.706  18.000 -0.0278  0.1838 -0.0736
 2083TIP3    H130444   7.465   6.752  17.916 -0.5974  2.8117  1.2466
 2083TIP3    H230445   7.554   6.701  18.028  0.1106 -0.1879 -0.5922
 2084TIP3   OH230446   0.714   0.684  18.405  0.2154 -0.0314  0.3263
 2084TIP3    H130447   0.780   0.746  18.375  1.3574 -1.0685  0.5780
 2084TIP3    H230448   0.764   0.606  18.429 -1.0190 -0.5297  1.4123
 2085TIP3   OH230449   2.509   5.496  17.082  0.4576  0.2443  0.1328
 2085TIP3    H130450   2.448   5.426  17.104  1.3237  0.6138  4.5521
 2085TIP3    H230451   2.590   5.450  17.056  0.2002 -0.3116  0.2979
 2086TIP3   OH230452   2.491   5.479  18.465  0.9390  0.0479  0.1819
 2086TIP3    H130453   2.457   5.503  18.379  0.2700 -0.8845  0.1635
 2086TIP3    H230454   2.501   5.384  18.461  1.5398  0.0683  0.9156
 2087TIP3   OH230455   1.520   1.630  18.979 -0.5175  0.6497 -0.5981
 2087TIP3    H130456   1.574   1.699  19.017 -1.6767  0.8415  0.8211
 2087TIP3    H230457   1.582   1.566  18.944  0.5771  1.9213 -1.0402
 2088TIP3   OH230458   1.264   3.967  17.303  0.6186 -0.1297  0.6215
 2088TIP3    H130459   1.289   3.895  17.245  1.6621 -0.3032  1.2626
 2088TIP3    H230460   1.324   4.038  17.281  0.3889  0.1326  0.8331
 2089TIP3   OH230461   3.897   2.345  18.958  0.2408  0.2638  0.4268
 2089TIP3    H130462   3.927   2.342  18.867  0.2270  2.6301  0.2943
 2089TIP3    H230463   3.866   2.434  18.970 -0.3370 -0.1811  2.5947
 2090TIP3   OH230464   6.622   6.724  18.418  0.6141  0.4414  0.2867
 2090TIP3    H130465   6.687   6.791  18.399 -2.0568  2.3896 -3.1911
 2090TIP3    H230466   6.580   6.755  18.499  1.4015  1.2877  0.3981
 2091TIP3   OH230467   6.836   2.420  19.251 -0.5216  0.3412  0.3941
 2091TIP3    H130468   6.800   2.340  19.212  1.2838  0.5492 -1.9268
 2091TIP3    H230469   6.786   2.491  19.211 -0.0636  0.4711  0.0374
 2092TIP3   OH230470   5.535   0.773  19.710  0.2019 -0.2903  0.0620
 2092TIP3    H130471   5.562   0.720  19.635 -0.9443 -1.7349  0.6406
 2092TIP3    H230472   5.595   0.748  19.780  0.4552  0.1148 -0.0060
 2093TIP3   OH230473   2.405   4.004  17.222  0.1985  0.2294 -0.1404
 2093TIP3    H130474   2.411   4.099  17.225 -1.5466  0.3840 -0.2718
 2093TIP3    H230475   2.370   3.985  17.135  0.4251 -0.5167 -0.0733
 2094TIP3   OH230476   2.646   0.344  17.805 -0.4974  0.4757 -0.3392
 2094TIP3    H130477   2.736   0.363  17.778  0.1703 -0.1145  1.3116
 2094TIP3    H230478   2.655   0.278  17.874 -2.2553 -0.1633 -0.6591
 2095TIP3   OH230479   3.926   7.058  17.701  0.0591  0.0867 -0.5512
 2095TIP3    H130480   3.856   7.026  17.644 -1.2001 -0.2691  1.1228
 2095TIP3    H230481   3.990   6.987  17.702  0.3041  0.2582 -1.8014
 2096TIP3   OH230482   2.289   5.371  17.996  0.1597 -0.6492 -0.2873
 2096TIP3    H130483   2.360   5.359  18.059  0.0287 -0.0935 -0.0271
 2096TIP3    H230484   2.296   5.462  17.969 -0.4078 -0.6123 -0.3159
 2097TIP3   OH230485   1.505   2.769  19.224  0.5546  0.0697 -0.3128
 2097TIP3    H130486   1.492   2.730  19.311  0.3707  1.2635  0.2283
 2097TIP3    H230487   1.528   2.860  19.243  1.0570  0.2087 -1.5150
 2098TIP3   OH230488   1.749   0.872  19.612  0.5968  0.4912  0.3569
 2098TIP3    H130489   1.679   0.936  19.594 -0.2173 -0.6428 -0.7480
 2098TIP3    H230490   1.707   0.806  19.666  1.0650  0.2452  0.4221
 2099TIP3   OH230491   0.673   4.558  18.695 -0.4801  0.1608 -0.3982
 2099TIP3    H130492   0.761   4.552  18.658 -0.3966 -1.0856 -0.0324
 2099TIP3    H230493   0.615   4.530  18.625 -0.3701 -1.5626  0.1608
 2100TIP3   OH230494   3.937   0.052  18.837  0.1932  0.0492 -0.1593
 2100TIP3    H130495   4.004   0.117  18.817 -0.2484  0.2421 -1.0414
 2100TIP3    H230496   3.880   0.095  18.902  0.8954 -0.1098  0.5766
 2101TIP3   OH230497   3.116   7.679  18.114  0.8071  0.1573 -0.0537
 2101TIP3    H130498   3.199   7.652  18.075 -1.4717 -2.9250 -3.5421
 2101TIP3    H230499   3.075   7.735  18.047 -0.7418 -0.0796  0.6476
 2102TIP3   OH230500   0.761   2.879  19.067  0.3004 -0.2332 -0.3738
 2102TIP3    H130501   0.696   2.922  19.123 -0.5248 -0.7082 -0.9452
 2102TIP3    H230502   0.834   2.939  19.064 -0.6621  0.9502 -0.8212
 2103TIP3   OH230503   1.014   6.713  16.935  0.0525 -0.3848  0.2141
 2103TIP3    H130504   0.944   6.763  16.977  0.9201  1.9099 -0.9237
 2103TIP3    H230505   1.094   6.763  16.952  0.6757 -0.2126 -2.6962
 2104TIP3   OH230506   0.788   2.652  17.970 -0.0768 -0.1307  0.1134
 2104TIP3    H130507   0.703   2.637  18.011 -0.7317 -1.5928 -1.6407
 2104TIP3    H230508   0.807   2.744  17.988 -2.0642  0.2612  0.4915
 2105TIP3   OH230509   0.965   7.017  19.076 -0.2828  0.5755 -0.5822
 2105TIP3    H130510   0.877   6.998  19.046 -0.5515 -1.0890  1.0709
 2105TIP3    H230511   0.976   6.963  19.155  1.8390  1.5153 -0.1551
 2106TIP3   OH230512   0.216   5.091  19.940 -0.7666  0.1465 -0.5224
 2106TIP3    H130513   0.296   5.065  19.987 -0.3131  2.6964  0.2418
 2106TIP3    H230514   0.246   5.151  19.872 -2.0174  1.3523 -0.0617
 2107TIP3   OH230515   5.869   1.001  19.599 -0.4744  0.0120 -0.2247
 2107TIP3    H130516   5.812   1.004  19.523 -1.4532 -1.9081  0.3838
 2107TIP3    H230517   5.836   1.070  19.657 -0.0679  1.1083 -1.2615
 2108TIP3   OH230518   0.559   0.241  18.339  0.0332 -0.2324  0.5168
 2108TIP3    H130519   0.649   0.244  18.307  0.2465  0.8273  1.1995
 2108TIP3    H230520   0.533   0.149  18.329  1.1420 -0.5166  0.2042
 2109TIP3   OH230521   2.442   7.230  18.391 -0.4334  0.0983 -0.3980
 2109TIP3    H130522   2.525   7.278  18.401 -1.0304  1.4231 -1.5214
 2109TIP3    H230523   2.414   7.212  18.480  0.9258 -0.1410  0.0072
 2110TIP3   OH230524   5.628   1.209  19.094  0.0852  0.5069 -0.5804
 2110TIP3    H130525   5.626   1.124  19.051  1.7236  0.7557 -1.2051
 2110TIP3    H230526   5.542   1.248  19.075 -0.9042 -1.1935  0.1900
 2111TIP3   OH230527   0.590   1.764  17.637 -0.1958  0.1694  0.7344
 2111TIP3    H130528   0.527   1.748  17.567  0.1058 -1.6442  0.8295
 2111TIP3    H230529   0.553   1.720  17.713  1.5132 -1.6322  0.5960
 2112TIP3   OH230530   0.407   7.261  16.706 -0.0966  0.0324 -0.5837
 2112TIP3    H130531   0.487   7.298  16.667  0.5343 -0.2857  0.3685
 2112TIP3    H230532   0.405   7.297  16.795 -0.6810 -0.4555 -0.3947
 2113TIP3   OH230533   2.259   2.843  18.422 -0.4432  0.2227 -0.1937
 2113TIP3    H130534   2.225   2.786  18.491 -1.0728 -0.7589 -1.2696
 2113TIP3    H230535   2.182   2.872  18.374 -0.0032  0.7589 -0.5944
 2114TIP3   OH230536   2.016   6.374  19.158  0.3187  0.0772  0.4184
 2114TIP3    H130537   1.923   6.355  19.156  0.7699 -2.4685  0.9073
 2114TIP3    H230538   2.057   6.303  19.108  2.0684  0.6595  0.9292
 2115TIP3   OH230539   1.742   5.054  19.297 -0.5053  0.1948 -0.0370
 2115TIP3    H130540   1.710   4.976  19.343  3.9661 -1.2853  0.9871
 2115TIP3    H230541   1.794   5.020  19.225  1.9528  2.1246  0.6909
 2116TIP3   OH230542   1.718   7.147  17.681  0.5051 -0.2632 -0.0474
 2116TIP3    H130543   1.782   7.098  17.630 -0.0004 -2.2653  1.1445
 2116TIP3    H230544   1.703   7.094  17.759 -0.0029  1.8640  1.4087
 2117TIP3   OH230545   0.788   0.002  18.689  0.0781  0.1141 -0.2205
 2117TIP3    H130546   0.755  -0.038  18.609  0.5528 -0.7717  0.0106
 2117TIP3    H230547   0.712   0.008  18.747  0.1112 -1.0661 -0.0259
 2118TIP3   OH230548   2.269   5.765  19.126  0.2781 -0.3612  0.6043
 2118TIP3    H130549   2.244   5.798  19.213  0.3902  0.4915  0.3209
 2118TIP3    H230550   2.286   5.844  19.075  0.9534 -0.8768  0.0212
 2119TIP3   OH230551   4.697   1.382  18.202 -0.2567 -0.8059 -0.0720
 2119TIP3    H130552   4.760   1.409  18.269  0.5616 -0.3726 -0.9943
 2119TIP3    H230553   4.651   1.462  18.177 -0.8900 -1.0473  0.2998
 2120TIP3   OH230554   4.866   4.472  18.553  0.3953  0.1134 -0.3967
 2120TIP3    H130555   4.785   4.465  18.603  1.0748  0.3272  0.7834
 2120TIP3    H230556   4.922   4.404  18.589  1.8896  2.0230  1.0941
 2121TIP3   OH230557   7.377   4.386  17.532 -0.1085  0.3182  0.1656
 2121TIP3    H130558   7.429   4.372  17.452 -0.7078  0.3222 -0.2318
 2121TIP3    H230559   7.299   4.332  17.519 -0.6660  1.0735  0.3152
 2122TIP3   OH230560   6.741   6.391  17.780  0.1329  0.5300 -0.4825
 2122TIP3    H130561   6.651   6.373  17.752  0.4745  0.8322 -1.8293
 2122TIP3    H230562   6.731   6.445  17.858 -0.8717  1.2442 -1.0765
 2123TIP3   OH230563   5.451   1.683  19.549 -0.1134  0.3949  0.0828
 2123TIP3    H130564   5.447   1.762  19.603  0.4772  0.2759  0.3045
 2123TIP3    H230565   5.376   1.631  19.577  0.7596 -0.1314  1.5324
 2124TIP3   OH230566   6.918   7.146  19.613 -0.3412  0.1120  0.0345
 2124TIP3    H130567   7.013   7.137  19.625 -0.3359 -1.8862 -1.0911
 2124TIP3    H230568   6.907   7.154  19.518 -1.3350 -0.0969  0.1277
 2125TIP3   OH230569   7.580   3.850  19.117 -0.2216 -0.3630 -0.7163
 2125TIP3    H130570   7.485   3.842  19.130 -0.4527  2.7204  0.4439
 2125TIP3    H230571   7.612   3.886  19.200  1.8626 -0.5791 -1.3851
 2126TIP3   OH230572   4.228   5.945  18.518  0.2580 -0.4223  0.4287
 2126TIP3    H130573   4.248   5.967  18.427  0.8701  0.1258  0.6935
 2126TIP3    H230574   4.145   5.991  18.536  0.0813 -0.6169  0.1204
 2127TIP3   OH230575   1.132   2.943  18.513 -0.3667 -0.3176 -0.3769
 2127TIP3    H130576   1.072   2.942  18.438 -1.1555 -0.9728  0.2588
 2127TIP3    H230577   1.130   2.854  18.547 -0.6479  0.1724  0.9297
 2128TIP3   OH230578   0.030   2.151  19.119 -0.3269 -0.0662  0.1806
 2128TIP3    H130579  -0.055   2.107  19.110 -1.0947  1.4319 -0.0959
 2128TIP3    H230580   0.019   2.210  19.194  0.3386  0.4446 -0.1132
 2129TIP3   OH230581   4.672   6.340  18.163 -0.0419  0.2826 -0.4729
 2129TIP3    H130582   4.668   6.366  18.071  0.3105 -0.3586 -0.6770
 2129TIP3    H230583   4.621   6.259  18.167 -0.5005  0.5874  0.0017
 2130TIP3   OH230584   0.474   7.476  19.892 -0.6462  0.7586  0.4682
 2130TIP3    H130585   0.393   7.429  19.873 -0.8570  0.9369  0.9031
 2130TIP3    H230586   0.503   7.441  19.976  0.7773 -0.7030 -0.5713
 2131TIP3   OH230587   0.638   5.137  19.108  1.2211  0.1742 -0.0783
 2131TIP3    H130588   0.678   5.052  19.128  1.7162  0.4957  0.3089
 2131TIP3    H230589   0.703   5.182  19.054  0.6169 -0.0028 -0.9721
 2132TIP3   OH230590   4.606   5.699  18.663 -0.1142 -0.0660 -0.1763
 2132TIP3    H130591   4.560   5.781  18.646 -0.5007 -0.5361 -1.5233
 2132TIP3    H230592   4.539   5.631  18.651 -0.6396 -0.5362  3.9130
 2133TIP3   OH230593   4.041   1.695  18.873 -0.1240 -0.2712 -0.3213
 2133TIP3    H130594   4.122   1.735  18.839 -0.4990  1.7260  0.9697
 2133TIP3    H230595   4.068   1.648  18.952 -0.0395 -0.7231 -0.6131
 2134TIP3   OH230596   7.544   1.910  17.526  0.0959 -0.6731  0.2881
 2134TIP3    H130597   7.616   1.854  17.497 -0.7311 -1.0065 -1.2523
 2134TIP3    H230598   7.544   1.984  17.465  0.3479  0.3563  1.4922
 2135TIP3   OH230599   3.734   3.333  18.650  0.1569  0.1150  0.1491
 2135TIP3    H130600   3.712   3.240  18.657 -0.3646  0.0717 -1.5834
 2135TIP3    H230601   3.800   3.337  18.581 -0.4550  1.0963 -0.4122
 2136TIP3   OH230602   4.834   7.247  18.637 -0.2360  0.3460 -0.0171
 2136TIP3    H130603   4.918   7.204  18.616 -0.9578 -0.1356 -2.1751
 2136TIP3    H230604   4.852   7.295  18.718  1.5702 -1.3046  0.6642
 2137TIP3   OH230605   1.903   3.506  18.954 -0.2332 -0.2802  0.1334
 2137TIP3    H130606   1.998   3.503  18.951 -0.2213 -1.3129  1.1364
 2137TIP3    H230607   1.883   3.595  18.982  0.3524  0.4983 -1.7107
 2138TIP3   OH230608   2.708   2.898  18.007  0.1733  0.3473  0.3982
 2138TIP3    H130609   2.671   2.878  17.921 -0.7926 -0.3727  0.9605
 2138TIP3    H230610   2.683   2.824  18.062 -0.1494  1.2855  1.5640
 2139TIP3   OH230611   1.512   1.094  18.534 -0.2737  0.5726  0.1537
 2139TIP3    H130612   1.559   1.017  18.501 -0.9884  0.0522  0.3180
 2139TIP3    H230613   1.575   1.139  18.590 -0.0782 -0.3046  0.6518
 2140TIP3   OH230614   0.838   4.185  17.168 -0.1121 -0.1380  0.1361
 2140TIP3    H130615   0.922   4.165  17.209 -0.7962  0.9278  2.2025
 2140TIP3    H230616   0.778   4.118  17.201 -0.6901  0.7748  0.9786
 2141TIP3   OH230617   7.225   2.983  19.461  0.1185 -0.0369 -0.1607
 2141TIP3    H130618   7.213   3.074  19.487  1.9891  1.0225 -2.6173
 2141TIP3    H230619   7.155   2.936  19.505 -0.4593  2.4426  1.7919
 2142TIP3   OH230620   0.049   4.113  17.860 -0.5985  0.3968 -0.0296
 2142TIP3    H130621  -0.040   4.142  17.876 -1.3934 -1.8005 -0.0763
 2142TIP3    H230622   0.060   4.035  17.915  1.1115  0.3056 -0.4157
 2143TIP3   OH230623   7.008   7.004  18.310  0.5500  0.0608  0.1351
 2143TIP3    H130624   6.966   7.045  18.235 -0.1239 -2.6274 -1.0372
 2143TIP3    H230625   6.936   6.984  18.370  0.7682 -0.1049  0.3424
 2144TIP3   OH230626   1.562   2.457  17.583  0.1496  0.3364  0.3342
 2144TIP3    H130627   1.585   2.550  17.576 -0.1716  0.3292 -1.1902
 2144TIP3    H230628   1.616   2.414  17.517 -0.1892 -0.4720  0.5769
 2145TIP3   OH230629   1.674   1.687  19.331  0.1329  0.0546 -0.8351
 2145TIP3    H130630   1.759   1.643  19.340 -0.0960  0.0721  2.7716
 2145TIP3    H230631   1.684   1.741  19.252  3.6276  0.3328 -0.3867
 2146TIP3   OH230632   6.048   1.889  18.483 -0.4837  0.1105 -0.3271
 2146TIP3    H130633   6.086   1.803  18.469  2.1129  0.7340  1.9389
 2146TIP3    H230634   6.075   1.913  18.572 -1.7926  2.9367 -0.5721
 2147TIP3   OH230635   4.938   5.471  17.016 -0.5136  0.2981  0.9103
 2147TIP3    H130636   4.855   5.444  17.056  0.6373 -3.9222  0.8800
 2147TIP3    H230637   4.955   5.406  16.948  2.7255  1.0891  0.7776
 2148TIP3   OH230638   2.316   3.948  20.059 -0.7937  0.5385 -0.6936
 2148TIP3    H130639   2.361   4.025  20.092  0.4270 -0.9656  1.3495
 2148TIP3    H230640   2.225   3.961  20.084 -0.5034  1.0732  0.1329
 2149TIP3   OH230641   3.359   2.968  19.891  0.3016  0.0928 -0.4121
 2149TIP3    H130642   3.285   2.995  19.836  1.5408  1.4375 -1.5503
 2149TIP3    H230643   3.342   3.007  19.976  0.1717  1.3061 -0.9680
 2150TIP3   OH230644   1.223   7.014  17.736 -0.1351  0.0074 -0.3997
 2150TIP3    H130645   1.248   6.979  17.650  0.3183  1.4271 -0.8831
 2150TIP3    H230646   1.144   7.066  17.719  0.4405  0.9990 -0.1418
 2151TIP3   OH230647   0.872   3.803  17.414  0.4084  0.2436 -0.3217
 2151TIP3    H130648   0.870   3.801  17.510  0.2005  0.4191 -0.3229
 2151TIP3    H230649   0.784   3.776  17.387 -0.1727  2.0922 -0.4231
 2152TIP3   OH230650   6.801   5.185  17.930  0.0722 -0.1402 -0.3455
 2152TIP3    H130651   6.791   5.110  17.988 -1.1529  0.9424  0.9374
 2152TIP3    H230652   6.721   5.185  17.877  1.2524 -1.2149 -2.2461
 2153TIP3   OH230653   7.417   3.853  18.019 -0.3468 -0.0221 -0.0698
 2153TIP3    H130654   7.375   3.929  18.059 -0.9479  0.6737 -1.8833
 2153TIP3    H230655   7.354   3.783  18.028  0.1331 -0.2806  1.4534
 2154TIP3   OH230656   3.954   2.133  18.343  0.7094 -1.0645 -0.0862
 2154TIP3    H130657   3.873   2.116  18.391 -0.0230  0.2911 -0.7845
 2154TIP3    H230658   3.985   2.217  18.379  0.8027 -0.6498 -1.1126
 2155TIP3   OH230659   6.008   1.373  18.177  0.1365 -0.1023  0.3568
 2155TIP3    H130660   6.084   1.421  18.210  0.6181 -0.7731  0.2295
 2155TIP3    H230661   6.043   1.314  18.111 -0.3873 -0.8998  0.7717
 2156TIP3   OH230662   6.193   0.019  19.430  0.7142 -0.2137 -0.2350
 2156TIP3    H130663   6.157  -0.016  19.511 -0.0223  1.7643  0.3468
 2156TIP3    H230664   6.278   0.054  19.454  0.4583  0.4528 -0.2828
 2157TIP3   OH230665   1.151   3.275  18.467 -0.3265 -0.6228  0.4572
 2157TIP3    H130666   1.056   3.277  18.478 -0.2857  0.3089  0.7000
 2157TIP3    H230667   1.182   3.218  18.537 -0.7228 -1.1587  0.2032
 2158TIP3   OH230668   7.148   1.471  19.254  0.2508 -0.2089  0.6323
 2158TIP3    H130669   7.145   1.408  19.326  2.5140  0.0837  1.0665
 2158TIP3    H230670   7.230   1.452  19.209 -0.4204  0.5825 -1.0045
 2159TIP3   OH230671   1.992   2.051  19.161 -0.3098 -0.7824 -0.7382
 2159TIP3    H130672   1.975   1.990  19.090  0.3651 -0.1195 -1.4838
 2159TIP3    H230673   2.086   2.048  19.174 -0.3707 -0.5435 -0.1938
 2160TIP3   OH230674   3.819   7.123  17.081 -0.2253  0.1984 -0.2670
 2160TIP3    H130675   3.767   7.051  17.046 -1.4297  1.3138 -0.8272
 2160TIP3    H230676   3.829   7.102  17.174 -0.0374 -0.9813 -0.5359
 2161TIP3   OH230677   3.224   4.221  19.124 -0.6625  0.6331 -0.3496
 2161TIP3    H130678   3.255   4.284  19.188  0.9743 -1.6643  1.2986
 2161TIP3    H230679   3.132   4.208  19.146 -0.4908  0.9510  0.6070
 2162TIP3   OH230680   4.519   1.022  19.354 -0.6661 -0.3299  0.8465
 2162TIP3    H130681   4.516   0.985  19.266  0.0368 -0.6506  0.9463
 2162TIP3    H230682   4.427   1.027  19.382 -0.9372  0.3791 -0.1400
 2163TIP3   OH230683   6.636   5.692  18.193  0.2256  0.3818 -0.2808
 2163TIP3    H130684   6.660   5.617  18.248 -0.2845  0.9437  0.7423
 2163TIP3    H230685   6.544   5.676  18.171  0.6627 -0.2954 -1.7644
 2164TIP3   OH230686   1.566   6.821  18.695 -0.5325  0.1007 -0.3175
 2164TIP3    H130687   1.589   6.913  18.710 -2.0534  0.5266 -0.4079
 2164TIP3    H230688   1.635   6.787  18.638 -0.8420  1.6837 -1.7185
 2165TIP3   OH230689   4.290   0.471  17.849  0.5778  0.4958  0.0419
 2165TIP3    H130690   4.314   0.552  17.804 -0.9632  0.8945 -0.1111
 2165TIP3    H230691   4.328   0.402  17.795  0.3425  1.0390 -0.8463
 2166TIP3   OH230692   0.554   0.239  17.682 -0.2787 -0.5701 -0.0075
 2166TIP3    H130693   0.578   0.318  17.633 -1.1099  0.4945  1.2397
 2166TIP3    H230694   0.634   0.217  17.731 -0.9410  1.4887  2.1849
 2167TIP3   OH230695   3.892   4.188  17.979 -0.2332  0.1524 -0.4420
 2167TIP3    H130696   3.850   4.108  17.947  0.3483 -1.1171  1.8078
 2167TIP3    H230697   3.984   4.178  17.954 -0.2506  0.3859 -0.6071
 2168TIP3   OH230698   0.313   6.165  17.864 -0.4549  0.5275  0.5212
 2168TIP3    H130699   0.221   6.160  17.837 -0.6678 -0.0887  1.2979
 2168TIP3    H230700   0.331   6.259  17.872 -0.7241  0.6828 -0.5621
 2169TIP3   OH230701   4.687   2.802  19.123 -0.4783 -0.3883  0.1954
 2169TIP3    H130702   4.622   2.740  19.154  0.3241 -0.9121  0.8628
 2169TIP3    H230703   4.749   2.811  19.195  0.4118 -0.2050 -0.5619
 2170TIP3   OH230704   4.359   4.870  19.344 -0.0770  0.4561 -0.0095
 2170TIP3    H130705   4.362   4.886  19.438  0.1167 -0.6270  0.1726
 2170TIP3    H230706   4.307   4.943  19.309 -0.0362  0.9355  0.9112
 2171TIP3   OH230707   4.348   1.620  17.106  0.0469  0.4745  0.1456
 2171TIP3    H130708   4.426   1.625  17.051  0.1777 -0.7935  0.1844
 2171TIP3    H230709   4.294   1.552  17.066 -0.5266  0.5699  0.7391
 2172TIP3   OH230710   5.543   1.232  18.480  0.1630  0.2024  0.3549
 2172TIP3    H130711   5.449   1.242  18.472  0.1413  0.9784  1.4656
 2172TIP3    H230712   5.578   1.320  18.468  0.7862 -0.1221 -0.3475
 2173TIP3   OH230713   5.102   6.086  19.435 -0.0571  0.0573  0.6283
 2173TIP3    H130714   5.115   6.007  19.489  1.0504 -0.6452 -0.5971
 2173TIP3    H230715   5.036   6.061  19.371  2.2861 -0.9696 -1.6007
 2174TIP3   OH230716   4.202   2.489  17.913 -0.3532 -0.3777  0.1464
 2174TIP3    H130717   4.227   2.547  17.986  1.2283 -1.0590  0.1852
 2174TIP3    H230718   4.176   2.549  17.843 -0.6169  0.3227  0.8247
 2175TIP3   OH230719   7.237   1.681  18.936 -0.1001 -0.0624 -0.4825
 2175TIP3    H130720   7.304   1.633  18.984 -0.4551 -0.8848 -0.7996
 2175TIP3    H230721   7.286   1.739  18.877  0.3332  0.6837  0.5847
 2176TIP3   OH230722   1.013   3.072  19.957  0.6402 -0.4302  0.3976
 2176TIP3    H130723   0.994   3.105  20.045  0.0745  2.6652 -0.7514
 2176TIP3    H230724   0.947   3.005  19.941 -1.0994  0.9770  1.3137
 2177TIP3   OH230725   5.839   5.985  19.300  0.5284 -0.5311 -0.8012
 2177TIP3    H130726   5.909   6.051  19.295  0.9348 -0.9549 -0.7903
 2177TIP3    H230727   5.758   6.035  19.292  0.7702  0.1483  0.6880
 2178TIP3   OH230728   7.657   0.112  17.733  0.3883 -0.4687  0.4098
 2178TIP3    H130729   7.630   0.165  17.657  1.5107  0.4216  0.5945
 2178TIP3    H230730   7.616   0.027  17.719  0.3808 -0.2459 -1.0773
 2179TIP3   OH230731   3.289   7.565  19.525  0.0622  0.6702  0.2803
 2179TIP3    H130732   3.251   7.578  19.438  1.4922  0.6282 -0.3910
 2179TIP3    H230733   3.315   7.653  19.553 -0.0769  0.6377  0.5151
 2180TIP3   OH230734   5.508   5.052  18.332 -0.1881 -0.2916 -0.1623
 2180TIP3    H130735   5.546   5.048  18.244  0.4876 -1.7433  0.1565
 2180TIP3    H230736   5.577   5.092  18.385 -0.1271 -0.5176 -0.0708
 2181TIP3   OH230737   4.839   3.143  19.357 -0.2098  0.0118 -0.2643
 2181TIP3    H130738   4.900   3.218  19.359 -0.8809  0.5734  2.0668
 2181TIP3    H230739   4.895   3.068  19.339  0.7322  0.8428 -0.9903
 2182TIP3   OH230740   5.207   3.530  17.277  0.3256 -0.5155 -0.0646
 2182TIP3    H130741   5.265   3.588  17.326  0.5872 -2.1699  1.6964
 2182TIP3    H230742   5.265   3.472  17.228  0.1109 -0.6868 -0.1235
 2183TIP3   OH230743   7.225   3.946  18.564  0.3308  0.1622 -0.2921
 2183TIP3    H130744   7.171   3.956  18.643 -0.7072  0.8179 -1.0550
 2183TIP3    H230745   7.192   4.013  18.504 -0.3801 -1.6702 -2.0874
 2184TIP3   OH230746   2.145   6.535  18.162 -1.2204 -0.0794 -0.6990
 2184TIP3    H130747   2.082   6.602  18.188 -0.5844  0.3889 -0.3201
 2184TIP3    H230748   2.092   6.456  18.150 -1.7597  0.0639  0.5443
 2185TIP3   OH230749   0.404   7.064  18.490  0.3829 -0.1907 -0.3290
 2185TIP3    H130750   0.479   7.049  18.547 -0.7001  1.3681  1.6667
 2185TIP3    H230751   0.439   7.108  18.413  1.5602  0.2037  0.4196
 2186TIP3   OH230752   7.199   4.281  17.092 -0.2180 -1.2066 -0.4826
 2186TIP3    H130753   7.221   4.344  17.161 -1.0854  0.4217 -1.6229
 2186TIP3    H230754   7.107   4.261  17.107 -0.1420 -1.6234 -0.5715
 2187TIP3   OH230755   7.400   0.104  19.334  0.2136 -0.3242 -0.2546
 2187TIP3    H130756   7.383   0.065  19.248 -0.2227 -1.7521  0.4374
 2187TIP3    H230757   7.335   0.173  19.343  0.5990  0.1846 -1.2731
 2188TIP3   OH230758   0.363   2.914  18.724 -0.2282 -0.0885  0.3559
 2188TIP3    H130759   0.439   2.949  18.771 -0.1735  0.5647 -0.2088
 2188TIP3    H230760   0.335   2.985  18.666  0.1579 -1.1179 -1.1618
 2189TIP3   OH230761   2.902   5.095  18.147 -0.2064  0.4067  0.3288
 2189TIP3    H130762   2.971   5.096  18.214 -0.4966 -0.0000  0.6370
 2189TIP3    H230763   2.928   5.024  18.087 -0.9462 -0.5046  1.0732
 2190TIP3   OH230764   7.070   1.919  19.578  0.2222  0.1851  0.2309
 2190TIP3    H130765   7.000   1.861  19.608 -0.5175  0.1015 -1.5338
 2190TIP3    H230766   7.146   1.861  19.567  0.1059 -0.0317  0.5433
 2191TIP3   OH230767   0.800   2.620  18.988 -0.5369 -0.2323 -0.3720
 2191TIP3    H130768   0.893   2.597  18.993 -0.4166 -0.3729 -2.4268
 2191TIP3    H230769   0.797   2.712  19.015  0.0976 -0.4024  0.3242
 2192TIP3   OH230770   6.243   4.025  18.251  0.3718 -0.3943  0.0039
 2192TIP3    H130771   6.290   4.073  18.319  0.1518  1.9208 -1.3682
 2192TIP3    H230772   6.161   3.999  18.293  0.0286  1.4039  0.5491
 2193TIP3   OH230773   2.349   5.396  18.810  0.2182 -0.3599 -0.1462
 2193TIP3    H130774   2.401   5.391  18.890  0.6199  1.3376 -0.2524
 2193TIP3    H230775   2.373   5.480  18.771 -0.7441 -0.6791 -1.5143
 2194TIP3   OH230776   4.827   4.959  19.543 -0.5295 -0.4785 -0.0760
 2194TIP3    H130777   4.766   5.033  19.540  1.8972  1.6393 -1.0919
 2194TIP3    H230778   4.878   4.973  19.623 -0.4522 -1.4764  0.0656
 2195TIP3   OH230779   5.527   2.197  17.522 -0.1187  0.5344 -0.7392
 2195TIP3    H130780   5.574   2.215  17.440 -1.2554 -1.4061 -1.8914
 2195TIP3    H230781   5.510   2.103  17.519 -1.8353  0.7507  0.8378
 2196TIP3   OH230782   7.416   3.598  17.346 -0.0047 -0.3576 -0.1275
 2196TIP3    H130783   7.407   3.650  17.266  1.2201 -0.9731 -0.6967
 2196TIP3    H230784   7.455   3.516  17.316 -0.1693 -0.8674  1.0169
 2197TIP3   OH230785   5.462   2.200  18.090  0.5719 -0.5016 -0.1349
 2197TIP3    H130786   5.381   2.238  18.054  1.6097 -0.4461 -2.5921
 2197TIP3    H230787   5.454   2.214  18.185 -1.1684  1.7104 -0.5038
 2198TIP3   OH230788   4.972   6.158  18.797 -0.0519  0.5783 -0.2976
 2198TIP3    H130789   5.064   6.184  18.792 -0.0491  0.5776 -0.2576
 2198TIP3    H230790   4.959   6.100  18.722 -0.4998  2.0321 -1.3788
 2199TIP3   OH230791   4.861   2.670  18.566  0.2480 -0.0450  0.0063
 2199TIP3    H130792   4.796   2.673  18.496  1.9755 -1.0869 -1.7612
 2199TIP3    H230793   4.825   2.724  18.635 -1.4738  1.2067 -1.7730
 2200TIP3   OH230794   2.212   2.396  18.852  0.5700  0.8961  0.1242
 2200TIP3    H130795   2.263   2.324  18.815  1.2741  1.3530  0.1875
 2200TIP3    H230796   2.248   2.475  18.811 -0.3980  1.1946 -0.1728
 2201TIP3   OH230797   6.209   1.921  18.726  0.8011  0.3073 -0.3353
 2201TIP3    H130798   6.244   1.909  18.813  0.4062 -1.9648 -0.4370
 2201TIP3    H230799   6.274   1.883  18.667 -0.6074 -1.7544 -0.6897
 2202TIP3   OH230800   4.076   1.497  18.512  0.0020 -0.3691  0.3729
 2202TIP3    H130801   4.129   1.532  18.440 -1.5173  1.6732  0.1484
 2202TIP3    H230802   4.137   1.445  18.563  1.6619 -0.0128 -1.1437
 2203TIP3   OH230803   5.178   1.184  17.156  0.3470  0.3593 -0.2829
 2203TIP3    H130804   5.085   1.203  17.169  0.4977  0.5925  0.4548
 2203TIP3    H230805   5.205   1.245  17.087 -0.2483 -0.3189 -1.1483
 2204TIP3   OH230806   6.963   1.956  18.895  0.2931  0.1801  0.0222
 2204TIP3    H130807   7.009   1.957  18.979  1.2727  0.9506 -0.4977
 2204TIP3    H230808   7.025   1.995  18.833 -0.9974  1.0888 -0.7472
 2205TIP3   OH230809   1.698   3.697  17.463  0.4696  0.0793  0.7351
 2205TIP3    H130810   1.720   3.606  17.479 -0.4718 -0.0851  1.1505
 2205TIP3    H230811   1.779   3.745  17.482  0.7698 -0.5956  1.1794
 2206TIP3   OH230812   1.267   7.461  19.321  0.2484 -0.1976  0.3971
 2206TIP3    H130813   1.349   7.504  19.295  0.2787 -0.3187  0.2926
 2206TIP3    H230814   1.251   7.396  19.252 -1.2684  1.5367 -1.0143
 2207TIP3   OH230815   3.068   6.684  19.821 -0.0583  0.8840  0.3292
 2207TIP3    H130816   3.093   6.617  19.757 -0.1083  0.7303  0.4697
 2207TIP3    H230817   3.145   6.739  19.829 -0.3062  1.3599 -0.4335
 2208TIP3   OH230818   6.887   0.854  18.133  0.0905  0.2509  0.2278
 2208TIP3    H130819   6.965   0.909  18.130  1.6230 -1.7854  0.4071
 2208TIP3    H230820   6.865   0.848  18.225  0.7099 -0.4300  0.3427
 2209TIP3   OH230821   3.901   3.069  18.248 -0.3414 -0.1413  0.2061
 2209TIP3    H130822   3.879   3.065  18.155 -1.4876 -2.4897  0.5099
 2209TIP3    H230823   3.997   3.071  18.249 -0.2507 -1.5039 -1.0587
 2210TIP3   OH230824   2.116   6.743  19.781  0.3228 -0.4616 -0.3020
 2210TIP3    H130825   2.109   6.803  19.707  1.3258  0.3785  0.2641
 2210TIP3    H230826   2.186   6.683  19.757  0.3160 -0.4947 -0.2392
 2211TIP3   OH230827   6.065   6.182  17.946  0.4218 -0.0996 -0.1542
 2211TIP3    H130828   6.112   6.102  17.921 -0.6045 -1.1233  1.0141
 2211TIP3    H230829   6.061   6.178  18.042  2.1153  2.4251  0.0933
 2212TIP3   OH230830   1.211   2.201  18.617  0.1743 -0.3193  0.3450
 2212TIP3    H130831   1.159   2.121  18.625  0.0726 -0.3630 -0.6925
 2212TIP3    H230832   1.189   2.236  18.531  1.0637  0.2334  0.3270
 2213TIP3   OH230833   1.236   0.117  19.211  0.5828  0.0021 -0.3025
 2213TIP3    H130834   1.218   0.098  19.303 -1.3229 -1.1902 -0.8642
 2213TIP3    H230835   1.272   0.036  19.176  0.8471  0.3002 -0.7386
 2214TIP3   OH230836   6.971   7.490  19.741 -0.1078 -0.0686  0.1046
 2214TIP3    H130837   6.877   7.480  19.757  0.2183 -1.0294  1.6412
 2214TIP3    H230838   6.982   7.465  19.649 -1.3787  0.3051 -0.1700
 2215TIP3   OH230839   0.520   4.803  19.393  0.3445 -0.0978 -0.3609
 2215TIP3    H130840   0.475   4.816  19.309  1.2532  1.1012 -0.6869
 2215TIP3    H230841   0.545   4.891  19.421 -1.4239 -0.2575  2.0688
 2216TIP3   OH230842   6.709   6.970  18.313 -0.2705 -0.1306 -0.3276
 2216TIP3    H130843   6.743   7.046  18.266 -0.2287 -0.6776 -1.1929
 2216TIP3    H230844   6.652   7.008  18.380  0.9681  0.7414  0.2948
 2217TIP3   OH230845   2.501   7.475  17.119  0.6356 -0.0083  0.2733
 2217TIP3    H130846   2.561   7.549  17.112  1.4297 -0.5919  0.8043
 2217TIP3    H230847   2.415   7.515  17.129  0.9726  0.8419 -0.1249
 2218TIP3   OH230848   6.744   6.622  19.285  0.0800 -0.9381  0.4885
 2218TIP3    H130849   6.812   6.562  19.254  0.0337 -1.5337  1.5103
 2218TIP3    H230850   6.784   6.665  19.361 -0.4884 -0.8783  0.7531
 2219TIP3   OH230851   2.292   3.768  18.535 -0.0693 -0.3833 -0.2756
 2219TIP3    H130852   2.310   3.678  18.563  0.3603 -0.1375  0.2641
 2219TIP3    H230853   2.378   3.809  18.527 -0.2216 -0.2700 -1.3997
 2220TIP3   OH230854   2.827   6.572  19.229 -0.3498  0.3423 -0.4546
 2220TIP3    H130855   2.898   6.637  19.233 -1.5890  1.7022  0.2798
 2220TIP3    H230856   2.755   6.617  19.186 -1.8611  0.1116  1.6727
 2221TIP3   OH230857   5.709   3.811  17.530  0.1077 -0.0594  0.2302
 2221TIP3    H130858   5.689   3.831  17.438  2.5171  0.6033 -0.2291
 2221TIP3    H230859   5.721   3.716  17.532  0.1745 -0.0603 -0.1665
 2222TIP3   OH230860   4.229   6.816  18.799  0.2091 -1.0055 -0.2478
 2222TIP3    H130861   4.273   6.896  18.769  2.6995 -2.1147  0.1551
 2222TIP3    H230862   4.172   6.845  18.870  0.5597  0.5083 -0.5556
 2223TIP3   OH230863   1.332   6.682  19.211  0.2679 -0.4341 -0.0897
 2223TIP3    H130864   1.378   6.744  19.267 -0.7928  1.6901 -1.4710
 2223TIP3    H230865   1.288   6.623  19.273 -0.2007  1.3134  1.3185
 2224TIP3   OH230866   1.510   3.400  19.284  0.0367  0.1027  0.6659
 2224TIP3    H130867   1.418   3.415  19.305 -0.3089  1.5725 -1.4636
 2224TIP3    H230868   1.554   3.481  19.309  0.9278 -0.8123  2.2397
 2225TIP3   OH230869   5.107   7.194  19.660 -0.1485 -0.6444 -0.0276
 2225TIP3    H130870   5.189   7.240  19.680  0.5487 -1.1797 -1.5296
 2225TIP3    H230871   5.132   7.102  19.655 -0.8808 -0.8302 -0.2896
 2226TIP3   OH230872   5.441   4.673  18.142 -0.1167 -0.3563 -0.0440
 2226TIP3    H130873   5.416   4.708  18.056 -0.6665 -3.5366 -1.3149
 2226TIP3    H230874   5.395   4.729  18.205  0.2249  2.0220 -1.7669
 2227TIP3   OH230875   4.866   4.888  17.253  0.3933 -0.0357  0.5642
 2227TIP3    H130876   4.838   4.816  17.197  1.1559  0.0563  0.0488
 2227TIP3    H230877   4.957   4.868  17.276  0.2569  0.1920  1.3449
 2228TIP3   OH230878   6.546   7.614  17.606 -0.4613  0.3313  0.0310
 2228TIP3    H130879   6.628   7.663  17.608 -0.0981 -0.2823  0.7185
 2228TIP3    H230880   6.548   7.560  17.685 -2.9631  2.5728  1.8341
 2229TIP3   OH230881   5.517   2.937  19.459 -0.1559 -0.0454  0.2307
 2229TIP3    H130882   5.528   3.030  19.478 -0.5673 -0.1130  0.8048
 2229TIP3    H230883   5.570   2.892  19.524  0.9622 -0.1890 -0.7533
 2230TIP3   OH230884   0.437   6.382  18.318  0.8374 -0.2518 -0.2125
 2230TIP3    H130885   0.456   6.311  18.257  2.3656  1.0269 -1.3259
 2230TIP3    H230886   0.380   6.441  18.269 -0.8339 -0.8836  0.8728
 2231TIP3   OH230887   1.718   5.698  18.345 -0.0813 -0.2945 -0.5530
 2231TIP3    H130888   1.739   5.619  18.394  0.6982  1.3767  2.0370
 2231TIP3    H230889   1.719   5.671  18.253  2.1907 -2.8152  0.1049
 2232TIP3   OH230890   1.192   7.334  16.788  0.2089 -0.5491  0.2469
 2232TIP3    H130891   1.124   7.335  16.855 -2.9213  0.3447 -2.6496
 2232TIP3    H230892   1.185   7.247  16.748  0.6731 -0.3862 -0.1951
 2233TIP3   OH230893   1.829   1.948  18.742 -0.5558 -0.2717  0.0633
 2233TIP3    H130894   1.873   2.033  18.741  1.6495 -1.3036  1.6619
 2233TIP3    H230895   1.839   1.915  18.652  0.8155  0.1115  0.0511
 2234TIP3   OH230896   4.314   5.094  18.797  1.0764  0.3385  0.3244
 2234TIP3    H130897   4.339   5.174  18.843 -1.2921  0.9036  0.7448
 2234TIP3    H230898   4.361   5.025  18.842  2.3471  1.3620  0.6360
 2235TIP3   OH230899   6.787   3.428  16.823  0.0647  0.1715  0.6737
 2235TIP3    H130900   6.823   3.510  16.790  0.0489 -0.5716 -1.3118
 2235TIP3    H230901   6.863   3.371  16.833 -0.0818 -0.0397  0.6004
 2236TIP3   OH230902   1.895   2.447  18.381 -0.0555  0.3287  0.3062
 2236TIP3    H130903   1.922   2.372  18.435  0.4189  0.1943 -0.1047
 2236TIP3    H230904   1.896   2.521  18.441  1.1846  0.3151  0.3383
 2237TIP3   OH230905   5.139   1.414  17.963  0.3343  0.6487  0.1309
 2237TIP3    H130906   5.084   1.483  18.000  0.6565  0.7125  0.5037
 2237TIP3    H230907   5.209   1.460  17.917 -1.5998  0.6392 -3.1181
 2238TIP3   OH230908   6.739   2.717  17.394 -0.1363  0.0649 -0.3754
 2238TIP3    H130909   6.689   2.793  17.364 -0.0710 -0.4521 -1.8870
 2238TIP3    H230910   6.764   2.672  17.313 -0.7049 -1.9022  0.4824
 2239TIP3   OH230911   2.806   4.070  17.792  0.2506 -0.0236 -0.2922
 2239TIP3    H130912   2.732   4.018  17.823 -0.9728  2.6337  1.7005
 2239TIP3    H230913   2.772   4.116  17.715  0.9850 -1.3224 -1.4197
 2240TIP3   OH230914   3.075   0.774  17.475 -0.1574 -0.1355 -0.0951
 2240TIP3    H130915   3.122   0.853  17.501 -1.7557  1.8991 -2.8582
 2240TIP3    H230916   3.082   0.772  17.380 -0.6688 -3.0440 -0.1435
 2241TIP3   OH230917   1.900   6.749  17.300 -0.3130  0.4090  0.4798
 2241TIP3    H130918   1.987   6.786  17.289  0.4834 -1.3097  0.6422
 2241TIP3    H230919   1.842   6.808  17.252  1.5591 -0.9410 -3.8584
 2242TIP3   OH230920   0.564   5.186  17.335  0.6060  0.3742 -0.9601
 2242TIP3    H130921   0.471   5.166  17.330  0.2383  1.6694 -0.0294
 2242TIP3    H230922   0.591   5.199  17.244  0.1165 -0.9356 -1.3074
 2243TIP3   OH230923   1.706   7.186  19.213  0.6915  0.3755  0.7780
 2243TIP3    H130924   1.734   7.095  19.221 -0.1019  0.2067  1.8528
 2243TIP3    H230925   1.778   7.229  19.166  0.3945 -1.1034 -1.1304
 2244TIP3   OH230926   3.754   4.101  17.504  0.6019 -0.1728  0.2271
 2244TIP3    H130927   3.715   4.145  17.429 -1.0890 -1.1152  0.5066
 2244TIP3    H230928   3.782   4.172  17.562  0.1162  0.5318 -0.4003
 2245TIP3   OH230929   3.053   4.868  19.100  0.3897 -0.5979 -0.0833
 2245TIP3    H130930   2.961   4.844  19.085  0.5908 -1.0874 -0.5454
 2245TIP3    H230931   3.054   4.903  19.189 -0.7179  1.7375 -0.9120
 2246TIP3   OH230932   3.041   2.582  19.778  0.5186  0.1911 -0.2663
 2246TIP3    H130933   3.078   2.666  19.751  1.8758 -0.8820 -1.9619
 2246TIP3    H230934   2.976   2.561  19.710 -0.1617  0.0789  0.4037
 2247TIP3   OH230935   2.575   2.164  19.201  0.2482  0.1162 -0.4516
 2247TIP3    H130936   2.480   2.152  19.212  0.2908 -0.3025 -0.5242
 2247TIP3    H230937   2.609   2.163  19.290  0.3733 -1.3817 -0.5054
 2248TIP3   OH230938   3.461   6.506  18.736 -0.3913 -0.3930 -0.4927
 2248TIP3    H130939   3.413   6.443  18.790  0.8088 -0.2024  0.8639
 2248TIP3    H230940   3.417   6.589  18.752  0.2216 -0.2556  0.5900
 2249TIP3   OH230941   4.044   7.404  18.053 -0.1363  0.5880  0.0469
 2249TIP3    H130942   4.003   7.329  18.096 -1.5074  1.0608 -0.3905
 2249TIP3    H230943   4.136   7.379  18.045 -0.8654 -1.8423 -1.7921
 2250TIP3   OH230944   1.692   2.829  19.010  0.0169  0.2171 -0.0737
 2250TIP3    H130945   1.779   2.806  19.042  0.5244  0.3442 -1.2844
 2250TIP3    H230946   1.641   2.848  19.088  0.6125 -1.4260  0.7563
 2251TIP3   OH230947   4.035   7.004  18.425  0.0973  0.1898 -0.3506
 2251TIP3    H130948   3.942   6.994  18.403 -0.2880  1.1074  0.7466
 2251TIP3    H230949   4.065   6.915  18.443 -0.6356 -0.0821 -0.4338
 2252TIP3   OH230950   5.958   1.224  17.693  0.3505  0.0743  0.2031
 2252TIP3    H130951   6.024   1.273  17.644  1.9332 -0.6380  1.5572
 2252TIP3    H230952   5.943   1.145  17.641  2.1191 -0.7440  0.8751
 2253TIP3   OH230953   1.482   5.146  19.106 -0.3332 -0.1422  0.0148
 2253TIP3    H130954   1.442   5.088  19.041  0.1678 -0.5380  0.0564
 2253TIP3    H230955   1.415   5.156  19.174 -1.0261  0.6207 -0.7538
 2254TIP3   OH230956   6.525   0.088  18.532  0.2823  0.2630  0.1713
 2254TIP3    H130957   6.567   0.008  18.501  0.8045  0.9375 -0.9008
 2254TIP3    H230958   6.585   0.158  18.506 -0.7002  1.1009  0.1120
 2255TIP3   OH230959   3.599   1.195  19.651 -0.2372 -0.0619  0.2958
 2255TIP3    H130960   3.648   1.243  19.584  0.4062 -2.3498 -0.9995
 2255TIP3    H230961   3.520   1.165  19.606 -0.3169 -0.7194  0.8648
 2256TIP3   OH230962   6.047   0.781  19.175  0.8087  0.1579  0.4211
 2256TIP3    H130963   6.096   0.742  19.103  0.0513 -0.5015  0.2480
 2256TIP3    H230964   6.045   0.714  19.243  0.1742  0.1882  0.4377
 2257TIP3   OH230965   2.974   4.761  19.887 -0.6489  0.3960 -0.1480
 2257TIP3    H130966   2.933   4.847  19.875 -1.2373  0.0904 -0.3782
 2257TIP3    H230967   3.058   4.767  19.841 -1.1896  0.4862 -1.1381
 2258TIP3   OH230968   5.817   2.023  18.652  0.1640 -0.7926 -0.0150
 2258TIP3    H130969   5.811   2.119  18.645  0.5727 -0.5422  2.2403
 2258TIP3    H230970   5.740   1.991  18.606  0.3718  0.5675 -1.4128
 2259TIP3   OH230971   7.542   5.107  17.704  0.2823 -0.2256 -0.2537
 2259TIP3    H130972   7.521   5.182  17.759  0.6089  0.4335 -1.0049
 2259TIP3    H230973   7.555   5.035  17.766 -2.1850 -0.2232  0.3534
 2260TIP3   OH230974   2.836   2.011  20.043  0.0122 -0.1301 -0.2414
 2260TIP3    H130975   2.919   1.969  20.023  0.3340  0.8893 -1.1774
 2260TIP3    H230976   2.859   2.087  20.096  0.3151  2.6822 -3.9445
 2261TIP3   OH230977   5.211   5.082  18.041 -0.2322 -0.3217  0.8747
 2261TIP3    H130978   5.182   5.118  18.125 -0.8343  2.2100 -0.3457
 2261TIP3    H230979   5.300   5.115  18.031  0.3615 -1.7707  1.0955
 2262TIP3   OH230980   1.241   5.593  17.991  0.2918 -0.1696 -0.0994
 2262TIP3    H130981   1.210   5.517  17.942 -2.9528 -0.0571  1.5291
 2262TIP3    H230982   1.308   5.558  18.050 -1.0934 -1.8019  0.5642
 2263TIP3   OH230983   7.319   2.692  18.336 -0.1694  0.0369  0.0318
 2263TIP3    H130984   7.404   2.654  18.355 -0.8413 -0.7899  1.6035
 2263TIP3    H230985   7.314   2.770  18.391 -0.5807 -0.1364  0.2448
 2264TIP3   OH230986   1.966   6.068  18.041  0.9776  0.0270  0.0742
 2264TIP3    H130987   1.895   6.083  18.105  2.4551 -1.5832  2.2287
 2264TIP3    H230988   1.925   6.016  17.972 -0.4524  1.0363  0.0980
 2265TIP3   OH230989   5.433   6.171  18.918 -0.5152  0.4510 -0.4210
 2265TIP3    H130990   5.527   6.163  18.932 -0.6792 -0.1665  0.4149
 2265TIP3    H230991   5.397   6.088  18.949 -1.4712  1.2281  0.6168
 2266TIP3   OH230992   2.705   5.416  17.969  0.1458  0.0117 -0.5262
 2266TIP3    H130993   2.750   5.498  17.947  0.7596 -0.4403 -0.9928
 2266TIP3    H230994   2.766   5.347  17.942 -1.1707 -0.6411 -1.9699
 2267TIP3   OH230995   7.566   4.026  19.418  0.6543 -0.0171  0.1723
 2267TIP3    H130996   7.488   4.035  19.472  1.0031 -0.3590  0.7427
 2267TIP3    H230997   7.637   4.063  19.471  0.6561  1.6389 -0.9173
 2268TIP3   OH230998   2.998   3.772  19.401  0.5771  0.5470 -0.4903
 2268TIP3    H130999   3.053   3.700  19.372  0.3510 -0.2859  1.0065
 2268TIP3    H231000   2.909   3.735  19.403  0.7400  0.0716  2.4654
 2269TIP3   OH231001   1.212   2.920  17.510 -0.7576 -0.3153  0.5074
 2269TIP3    H131002   1.165   3.001  17.491 -1.7570 -0.4307  2.3551
 2269TIP3    H231003   1.150   2.850  17.489 -0.3314 -0.5834  0.0993
 2270TIP3   OH231004   2.409   4.342  17.786 -0.2917 -0.4629 -0.0381
 2270TIP3    H131005   2.469   4.406  17.746  0.2429 -1.6791 -1.2332
 2270TIP3    H231006   2.385   4.283  17.715  0.3693 -2.4578  1.3221
 2271TIP3   OH231007   6.057   4.749  18.185 -0.4029 -0.4657 -0.2039
 2271TIP3    H131008   6.127   4.712  18.239  0.8541 -0.4011 -1.7172
 2271TIP3    H231009   6.020   4.819  18.238 -0.9569 -2.0395  1.5984
 2272TIP3   OH231010   7.499   2.475  18.717 -0.2153 -0.5035  0.2586
 2272TIP3    H131011   7.561   2.403  18.709 -0.6579 -0.8990  0.3504
 2272TIP3    H231012   7.551   2.554  18.698 -0.3389 -1.0427 -2.8050
 2273TIP3   OH231013   0.322   3.732  18.744 -0.0435 -0.2855  0.3821
 2273TIP3    H131014   0.414   3.740  18.771 -0.1247 -0.9451  0.8724
 2273TIP3    H231015   0.274   3.787  18.806 -0.0224 -0.2801  0.3937
 2274TIP3   OH231016   6.576   5.848  19.046 -0.2744 -0.2258  0.7050
 2274TIP3    H131017   6.639   5.905  19.089 -0.9754  0.3549  0.9798
 2274TIP3    H231018   6.559   5.779  19.110  1.0109 -1.1012  0.1541
 2275TIP3   OH231019   0.098   3.394  18.720  0.1943 -0.2132 -0.0338
 2275TIP3    H131020   0.172   3.403  18.660 -1.4324  1.2929 -1.9704
 2275TIP3    H231021   0.114   3.460  18.787 -0.3235  1.5653 -1.5748
 2276TIP3   OH231022   4.139   0.674  20.002  0.2736 -0.0699  0.5659
 2276TIP3    H131023   4.189   0.602  19.964  1.7424  1.3877 -0.4508
 2276TIP3    H231024   4.178   0.688  20.088  1.0723  0.5087  0.1210
 2277TIP3   OH231025   4.555   6.227  19.563 -0.2735  0.0642  0.2670
 2277TIP3    H131026   4.571   6.134  19.579 -1.3812 -0.4775 -1.4476
 2277TIP3    H231027   4.460   6.236  19.567 -0.1851  1.1116  0.3143
 2278TIP3   OH231028   7.446   1.998  19.058  0.8105  0.2801 -0.2371
 2278TIP3    H131029   7.430   1.919  19.109  1.0008  1.4531  1.7468
 2278TIP3    H231030   7.414   2.069  19.114  3.0312  1.8145 -0.7703
 2279TIP3   OH231031   2.608   4.306  19.954 -0.2261 -0.5218 -0.1185
 2279TIP3    H131032   2.650   4.220  19.956  0.4808 -0.1845 -0.2412
 2279TIP3    H231033   2.669   4.364  19.999 -0.4872  0.0083 -0.4328
 2280TIP3   OH231034   0.077   0.521  18.238 -0.2095 -0.5397 -0.2074
 2280TIP3    H131035   0.025   0.591  18.279 -2.1957 -1.2055 -1.4455
 2280TIP3    H231036   0.085   0.455  18.307 -1.0715 -0.4497 -0.0108
 2281TIP3   OH231037   5.271   4.841  18.613 -0.2212  0.4795 -0.4369
 2281TIP3    H131038   5.238   4.872  18.529 -0.5964 -0.1222 -0.5168
 2281TIP3    H231039   5.358   4.807  18.594  0.1602  1.3734 -0.3674
 2282TIP3   OH231040   5.194   4.954  19.320  0.7888  0.3772  0.2387
 2282TIP3    H131041   5.169   4.868  19.288  1.4722  0.3045 -0.1075
 2282TIP3    H231042   5.276   4.940  19.367  0.9894  0.8658  0.0399
 2283TIP3   OH231043   5.946   6.590  19.372  0.4374  0.0538  0.0629
 2283TIP3    H131044   5.871   6.572  19.316  1.8182 -1.8791 -1.2764
 2283TIP3    H231045   5.964   6.506  19.415  2.0403  0.3677  0.0585
 2284TIP3   OH231046   3.711   2.869  17.776 -0.1673 -0.6523  0.0052
 2284TIP3    H131047   3.735   2.884  17.868  1.3220  0.6384 -0.5503
 2284TIP3    H231048   3.774   2.803  17.746  0.8953  0.6086 -0.6662
 2285TIP3   OH231049   7.581   2.992  18.706 -0.4581 -0.7629 -0.2060
 2285TIP3    H131050   7.605   3.032  18.622  0.0712 -0.6110  0.0180
 2285TIP3    H231051   7.532   3.059  18.752  0.6068 -0.2880  0.2562
 2286TIP3   OH231052   2.555   3.718  19.009  0.3869 -0.5027 -0.2914
 2286TIP3    H131053   2.504   3.765  18.942 -0.8987 -2.5359 -0.8300
 2286TIP3    H231054   2.505   3.731  19.090  0.2446 -0.6015 -0.3617
 2287TIP3   OH231055   3.954   6.782  19.272 -0.6991  0.3528  0.1380
 2287TIP3    H131056   3.978   6.814  19.359 -0.6168 -0.0550  0.2666
 2287TIP3    H231057   3.870   6.823  19.253 -0.5731  0.6799  0.2826
 2288TIP3   OH231058   5.705   0.699  18.971  1.2338  0.5868  0.4123
 2288TIP3    H131059   5.654   0.667  18.897 -0.3060  0.3358  1.5423
 2288TIP3    H231060   5.771   0.630  18.986  0.4228 -0.2176  0.3829
 2289TIP3   OH231061   0.564   3.021  18.883 -0.0511  0.1608  0.1398
 2289TIP3    H131062   0.607   3.106  18.877  1.2841 -0.5431 -1.1180
 2289TIP3    H231063   0.618   2.971  18.944  0.5104 -0.4762 -0.8390
 2290TIP3   OH231064   0.383   6.017  19.277  0.8895  0.2741  0.0918
 2290TIP3    H131065   0.428   6.086  19.326 -1.4290  1.6218  0.4535
 2290TIP3    H231066   0.404   6.036  19.186  1.0197  0.9164  0.2453
 2291TIP3   OH231067   1.531   7.329  18.880  0.2326  0.2184 -0.4824
 2291TIP3    H131068   1.514   7.341  18.973  0.3063  0.1172 -0.4560
 2291TIP3    H231069   1.528   7.418  18.844  1.7562  0.4499 -0.1186
 2292TIP3   OH231070   4.473   4.052  16.675  0.1985  0.1976  0.1176
 2292TIP3    H131071   4.513   4.138  16.686  1.2709 -0.2916  0.2302
 2292TIP3    H231072   4.405   4.047  16.742  0.3297  0.8396  0.3028
 2293TIP3   OH231073   3.341   6.464  19.597  0.6129  0.4147  0.1281
 2293TIP3    H131074   3.356   6.444  19.504 -0.0774 -0.2826  0.1597
 2293TIP3    H231075   3.311   6.381  19.635  0.1705  0.8818  0.8158
 2294TIP3   OH231076   1.889   7.100  18.847 -0.0308  0.2409  0.1807
 2294TIP3    H131077   1.851   7.148  18.920  0.8437  0.7638  0.3073
 2294TIP3    H231078   1.976   7.138  18.836  0.2044 -0.4738 -0.5270
 2295TIP3   OH231079   4.798   2.024  17.963 -0.0655  0.0790  0.5600
 2295TIP3    H131080   4.721   2.077  17.978 -0.1304  0.0429  0.3575
 2295TIP3    H231081   4.859   2.082  17.918 -0.1525 -0.0276  0.3027
 2296TIP3   OH231082   3.406   1.363  17.744 -0.5321  0.1385  0.2280
 2296TIP3    H131083   3.317   1.359  17.781 -0.2330 -0.4914  0.9222
 2296TIP3    H231084   3.414   1.282  17.693 -0.2642  0.0516  0.4044
 2297TIP3   OH231085   6.510   3.398  18.292  0.0404 -0.4632  0.0095
 2297TIP3    H131086   6.593   3.441  18.271  0.2411 -0.5277  0.6465
 2297TIP3    H231087   6.462   3.397  18.209  0.3228  0.3474 -0.1750
 2298TIP3   OH231088   0.622   5.502  17.431  0.4388  0.3293 -0.1117
 2298TIP3    H131089   0.645   5.411  17.447  0.6798  0.3449 -0.3532
 2298TIP3    H231090   0.528   5.500  17.414  0.2001  0.2998  1.1392
 2299TIP3   OH231091   1.263   6.926  17.496  0.0360 -0.7121  0.0197
 2299TIP3    H131092   1.189   6.912  17.438  0.6914 -1.6331 -0.6380
 2299TIP3    H231093   1.313   6.844  17.491  1.0495 -0.1494  0.4979
 2300TIP3   OH231094   4.431   2.032  16.733 -0.0112  0.2054 -0.3242
 2300TIP3    H131095   4.463   2.014  16.645  1.1087 -0.5284  0.2037
 2300TIP3    H231096   4.493   1.988  16.791 -1.0775  0.1368  0.8189
 2301TIP3   OH231097   6.586   6.804  17.233 -0.6087  0.0737  0.5882
 2301TIP3    H131098   6.548   6.892  17.241  0.2961  0.5507 -0.1386
 2301TIP3    H231099   6.672   6.811  17.273  0.1098 -0.0286 -0.8531
 2302TIP3   OH231100   3.289   4.830  18.933  0.1135 -0.7850  0.4799
 2302TIP3    H131101   3.244   4.759  18.888 -0.7531  0.4236 -0.6188
 2302TIP3    H231102   3.226   4.862  18.997 -1.0054  1.4095 -1.5721
 2303TIP3   OH231103   7.015   5.291  16.617  0.2236  0.4301 -0.2054
 2303TIP3    H131104   7.095   5.248  16.587  1.2577  1.7500  0.5002
 2303TIP3    H231105   7.041   5.335  16.698 -0.7839  2.1813 -0.7735
 2304TIP3   OH231106   3.192   2.866  19.456  0.2521  0.0560 -0.1964
 2304TIP3    H131107   3.254   2.937  19.470  0.0024  0.2731 -0.1970
 2304TIP3    H231108   3.227   2.793  19.508  0.8764 -0.0430 -0.7346
 2305TIP3   OH231109   3.283   4.311  19.708  0.5776 -0.3610 -0.3130
 2305TIP3    H131110   3.329   4.248  19.764 -0.8293 -0.9416  0.2442
 2305TIP3    H231111   3.191   4.285  19.713  0.2248  0.4795 -1.7534
 2306TIP3   OH231112   3.335   6.007  18.107 -0.1719 -0.0483  0.0758
 2306TIP3    H131113   3.349   6.072  18.175  0.7180 -0.5574  0.3967
 2306TIP3    H231114   3.398   5.937  18.127 -0.6805 -0.7227 -0.6084
 2307TIP3   OH231115   3.313   7.217  18.947 -0.6786  0.8956  0.0879
 2307TIP3    H131116   3.395   7.211  18.898 -0.7400  0.2571  0.0617
 2307TIP3    H231117   3.341   7.235  19.037 -0.4268 -0.7888  0.3771
 2308TIP3   OH231118   7.099   1.935  18.042  0.1736  0.3017  0.3852
 2308TIP3    H131119   7.036   1.978  18.100 -2.1236 -0.7959 -1.1078
 2308TIP3    H231120   7.076   1.842  18.049  1.3166 -0.0659 -0.6083
 2309TIP3   OH231121   6.702   0.376  19.972 -0.1882 -0.0343  0.3967
 2309TIP3    H131122   6.694   0.313  19.900 -0.4097  1.6435 -1.1288
 2309TIP3    H231123   6.763   0.335  20.034  0.7324 -1.1459 -1.1786
 2310TIP3   OH231124   3.322   1.816  19.823  0.2848 -0.2866  1.1880
 2310TIP3    H131125   3.313   1.889  19.762 -2.3001 -0.1117  1.6314
 2310TIP3    H231126   3.416   1.801  19.830  0.7582  1.1920 -1.0208
 2311TIP3   OH231127   2.740   1.323  19.758 -0.3205  0.4453 -0.1463
 2311TIP3    H131128   2.758   1.414  19.783 -0.4193  0.2448  0.6648
 2311TIP3    H231129   2.755   1.322  19.663 -0.1677  1.2704 -0.1450
 2312TIP3   OH231130   5.064   5.811  18.788  0.9080 -0.1753  0.4270
 2312TIP3    H131131   4.988   5.770  18.746 -0.3082  1.0272  1.3545
 2312TIP3    H231132   5.107   5.859  18.718 -1.3179  2.1403  0.5202
 2313TIP3   OH231133   2.489   4.618  18.652  0.4563  0.2969  0.8258
 2313TIP3    H131134   2.398   4.618  18.683 -0.4828 -1.3004 -1.6300
 2313TIP3    H231135   2.500   4.703  18.609 -0.4471 -0.1112 -0.2564
 2314TIP3   OH231136   1.101   6.444  17.852  0.3616  0.1786 -0.1320
 2314TIP3    H131137   1.011   6.471  17.836  0.1004 -0.1893  0.6497
 2314TIP3    H231138   1.149   6.526  17.865 -0.1316  0.3395  0.7668
 2315TIP3   OH231139   1.010   7.653  18.843  0.0575  0.3267 -0.0722
 2315TIP3    H131140   0.937   7.643  18.781 -0.2971 -0.0761  0.4047
 2315TIP3    H231141   0.979   7.716  18.907 -0.3903 -0.8006  0.8650
 2316TIP3   OH231142   5.967   4.871  18.590  0.2610 -0.6213 -0.4387
 2316TIP3    H131143   6.021   4.935  18.636 -1.8878  0.0232  1.3853
 2316TIP3    H231144   5.939   4.916  18.510 -0.2470  0.3207  0.2444
 2317TIP3   OH231145   6.196   2.298  18.778  0.3471 -0.2360  0.6940
 2317TIP3    H131146   6.153   2.282  18.862  0.2289 -1.2888  0.4513
 2317TIP3    H231147   6.275   2.244  18.781  1.1775  0.9391  0.7479
 2318TIP3   OH231148   2.609   5.723  18.074  0.1858  0.2888  0.3376
 2318TIP3    H131149   2.684   5.743  18.130 -0.7175  0.7320  1.4340
 2318TIP3    H231150   2.648   5.690  17.992  1.6509  2.5852  0.0080
 2319TIP3   OH231151   6.326   4.718  18.359  0.2307  0.7819  0.0370
 2319TIP3    H131152   6.385   4.791  18.341 -0.5223  1.6120  0.8803
 2319TIP3    H231153   6.339   4.659  18.285 -0.1540  2.4258 -1.4332
 2320TIP3   OH231154   0.817   5.184  17.439  0.3969 -0.9571  0.2777
 2320TIP3    H131155   0.735   5.180  17.390 -0.3052 -0.9471  1.4188
 2320TIP3    H231156   0.793   5.160  17.528  1.4201  0.1812  0.8941
 2321TIP3   OH231157   7.595   0.893  17.138  0.4637 -0.0575  0.8417
 2321TIP3    H131158   7.581   0.925  17.227 -0.6441  0.6837  0.4135
 2321TIP3    H231159   7.526   0.828  17.124  1.6479 -1.4133  1.0941
 2322TIP3   OH231160   3.343   2.041  19.645  0.1537  0.1976 -0.0265
 2322TIP3    H131161   3.431   2.016  19.619 -0.5877 -1.6304 -0.9815
 2322TIP3    H231162   3.353   2.078  19.733  1.8115 -0.3455  0.0456
 2323TIP3   OH231163   6.441   2.959  17.795  0.3684  0.1296  0.1512
 2323TIP3    H131164   6.373   3.003  17.847  0.0799  0.7197 -0.7003
 2323TIP3    H231165   6.493   3.030  17.759  1.1247 -0.3101  0.3638
 2324TIP3   OH231166   7.096   2.446  18.455  0.5536  0.0330 -0.0460
 2324TIP3    H131167   7.069   2.537  18.465  2.8932  0.5869  2.2099
 2324TIP3    H231168   7.187   2.451  18.425  0.9430 -1.5427  0.7639
 2325TIP3   OH231169   0.695   2.454  19.721  0.3208 -0.1218  0.2606
 2325TIP3    H131170   0.623   2.479  19.779  0.4183 -0.7516  0.6737
 2325TIP3    H231171   0.738   2.381  19.767  2.6483  1.6901  1.1576
 2326TIP3   OH231172   7.153   2.300  18.127 -0.3885 -0.0108 -0.0330
 2326TIP3    H131173   7.225   2.304  18.190 -1.0673  0.1698  0.7465
 2326TIP3    H231174   7.196   2.287  18.042  0.5833  0.5211  0.3625
 2327TIP3   OH231175   4.536   7.450  17.965  0.0535 -0.2922  0.0676
 2327TIP3    H131176   4.571   7.381  17.909  0.9399 -2.4955  3.0744
 2327TIP3    H231177   4.614   7.493  18.001 -0.4647  0.4759  0.2948
 2328TIP3   OH231178   0.532   2.762  18.307 -0.0173  0.1955  0.8742
 2328TIP3    H131179   0.437   2.749  18.308  0.1502 -1.5706 -0.4247
 2328TIP3    H231180   0.557   2.764  18.400 -1.1078 -1.4327  1.2471
 2329TIP3   OH231181   0.338   2.879  19.076 -0.3343 -0.1748  0.3687
 2329TIP3    H131182   0.389   2.862  18.997 -0.8711 -0.5982  0.1122
 2329TIP3    H231183   0.401   2.917  19.137  0.7295 -2.3143  0.6947
 2330TIP3   OH231184   6.128   4.409  17.603 -0.1515 -0.2886 -0.1280
 2330TIP3    H131185   6.157   4.344  17.667  2.4278  0.2298 -0.6824
 2330TIP3    H231186   6.129   4.363  17.519 -0.4720 -0.1039 -0.2369
 2331TIP3   OH231187   0.355   3.428  18.581  0.2173 -0.8003  0.1927
 2331TIP3    H131188   0.429   3.438  18.639  1.4398 -2.1841 -1.0325
 2331TIP3    H231189   0.375   3.483  18.505  0.6144 -2.0965 -0.6771
 2332TIP3   OH231190   3.698   6.681  18.126  0.2451  0.0099 -0.5338
 2332TIP3    H131191   3.772   6.673  18.185 -1.4138 -1.1475  1.5262
 2332TIP3    H231192   3.643   6.605  18.147 -1.5516  0.8559 -1.9387
 2333TIP3   OH231193   1.452   3.986  18.121  0.6904 -0.3508 -0.1351
 2333TIP3    H131194   1.392   4.036  18.065  1.3101 -0.8280 -1.2521
 2333TIP3    H231195   1.418   3.998  18.210 -0.7381 -0.1722 -0.6872
 2334TIP3   OH231196   5.249   4.440  19.718  0.1467 -0.4528  0.2241
 2334TIP3    H131197   5.326   4.424  19.663  0.5764 -1.1363  1.0139
 2334TIP3    H231198   5.219   4.527  19.691  2.3603  0.7249  1.2162
 2335TIP3   OH231199   3.547   4.335  19.554  0.0766  0.2066  0.3163
 2335TIP3    H131200   3.465   4.311  19.597  0.7008  1.4600  2.3401
 2335TIP3    H231201   3.602   4.258  19.560 -0.7045 -0.4485 -0.5342
 2336TIP3   OH231202   3.993   3.526  18.712 -0.0199 -0.6457 -0.1104
 2336TIP3    H131203   4.002   3.522  18.807  1.8561 -0.5381 -0.2482
 2336TIP3    H231204   4.014   3.437  18.682  1.3074 -0.2178 -0.5216
 2337TIP3   OH231205   1.642   3.200  19.523 -0.0256  0.1804 -0.0232
 2337TIP3    H131206   1.675   3.282  19.561 -2.1048  0.8000  0.6091
 2337TIP3    H231207   1.559   3.225  19.482 -0.6037 -1.5788  0.0075
 2338TIP3   OH231208   4.591   1.863  16.870 -0.1596  0.0293  0.1537
 2338TIP3    H131209   4.609   1.778  16.910  1.5125 -1.6609 -3.6898
 2338TIP3    H231210   4.676   1.905  16.864 -0.8392  1.6098  1.1272
 2339TIP3   OH231211   7.178   4.909  17.059 -0.1530 -0.0543 -0.1622
 2339TIP3    H131212   7.166   5.003  17.076 -0.2613 -0.0307 -0.3552
 2339TIP3    H231213   7.104   4.886  17.002 -0.0322 -0.2197 -0.2522
 2340TIP3   OH231214   3.851   3.990  19.501 -0.4942 -0.2537  0.3586
 2340TIP3    H131215   3.850   4.085  19.501  1.2745 -0.1842  2.2015
 2340TIP3    H231216   3.897   3.966  19.420 -0.5265  0.4539  0.1248
 2341TIP3   OH231217   3.325   6.707  18.908 -0.7163  0.4973  0.0034
 2341TIP3    H131218   3.315   6.802  18.899  0.8722  0.6785 -0.0201
 2341TIP3    H231219   3.236   6.673  18.899 -1.3125  1.9810  0.0401
 2342TIP3   OH231220   1.646   3.324  18.447  0.1276  0.5806 -0.3599
 2342TIP3    H131221   1.640   3.231  18.428 -0.1809  0.1150  1.7305
 2342TIP3    H231222   1.738   3.347  18.430  0.2121 -0.1097 -0.8341
 2343TIP3   OH231223   6.026   3.328  17.002 -0.0402 -0.0884  0.3416
 2343TIP3    H131224   6.058   3.410  16.964  0.5618 -0.3756  0.2156
 2343TIP3    H231225   6.011   3.271  16.927 -1.1429  0.1357  0.3792
 2344TIP3   OH231226   2.870   4.985  18.435 -0.0590  0.5851  0.2981
 2344TIP3    H131227   2.952   4.944  18.407 -0.3099 -0.0357  0.4672
 2344TIP3    H231228   2.897   5.069  18.472  0.6916 -0.3243  1.8954
 2345TIP3   OH231229   4.173   5.086  18.558 -0.3991 -0.5155 -0.1097
 2345TIP3    H131230   4.199   5.105  18.649 -1.4059  0.1752  0.0532
 2345TIP3    H231231   4.142   4.995  18.561  0.5661 -0.8593 -0.0041
 2346TIP3   OH231232   0.811   5.208  16.910  0.1364  0.6404  0.1340
 2346TIP3    H131233   0.847   5.119  16.904  0.9881  0.9812 -0.0159
 2346TIP3    H231234   0.768   5.222  16.826 -1.3676 -0.1861  0.7324
 2347TIP3   OH231235   3.492   3.216  19.450 -0.6004 -0.3904 -0.4255
 2347TIP3    H131236   3.576   3.262  19.455 -0.5634 -0.5050  0.0689
 2347TIP3    H231237   3.434   3.278  19.405 -0.8282  0.5852  1.1222
 2348TIP3   OH231238   1.869   4.546  19.276 -0.0989  0.3082 -0.0711
 2348TIP3    H131239   1.948   4.501  19.244 -0.5995  0.7507 -2.0640
 2348TIP3    H231240   1.891   4.639  19.270 -0.3201  0.4085  0.6403
 2349TIP3   OH231241   4.583   1.622  18.110 -0.0022  0.0908  0.0905
 2349TIP3    H131242   4.502   1.664  18.141 -0.2263 -1.8333  2.5174
 2349TIP3    H231243   4.651   1.687  18.127 -0.6050  0.4013  1.5221
 2350TIP3   OH231244   6.208   7.467  19.863  0.3841  0.4172 -0.0141
 2350TIP3    H131245   6.199   7.496  19.953 -0.4193  0.0462  0.0312
 2350TIP3    H231246   6.275   7.399  19.866  1.7101  1.6732 -0.0012
 2351TIP3   OH231247   4.450   1.959  19.385  0.7607 -0.2318 -0.2481
 2351TIP3    H131248   4.459   2.053  19.398 -1.1708 -0.0131 -0.2930
 2351TIP3    H231249   4.538   1.930  19.360  0.9274  1.9535 -2.6346
 2352TIP3   OH231250   3.844   3.964  17.809  0.3187 -0.8210  0.2202
 2352TIP3    H131251   3.929   4.005  17.793  0.2554 -0.3843  0.9512
 2352TIP3    H231252   3.865   3.872  17.828  0.7718 -0.4226  1.7651
 2353TIP3   OH231253   0.104   7.333  17.294  0.1752  0.0494 -0.3094
 2353TIP3    H131254   0.036   7.291  17.242 -0.0019  0.5064 -0.4561
 2353TIP3    H231255   0.101   7.425  17.267 -0.7694  0.5582  1.3820
 2354TIP3   OH231256   2.957   5.219  18.546 -0.2462 -0.4271  0.2000
 2354TIP3    H131257   2.963   5.264  18.630 -0.0147  0.9415 -0.5124
 2354TIP3    H231258   2.923   5.286  18.486  1.6888 -0.6897 -1.2777
 2355TIP3   OH231259   1.445   6.233  19.219 -0.3409 -0.6758  0.2018
 2355TIP3    H131260   1.426   6.321  19.186  0.5940 -0.3656  0.4543
 2355TIP3    H231261   1.444   6.243  19.314  2.8249 -0.1780  0.3000
 2356TIP3   OH231262   2.360   1.169  19.471  0.0329 -0.4490 -0.2955
 2356TIP3    H131263   2.265   1.177  19.484  0.2723  2.2965  0.4344
 2356TIP3    H231264   2.390   1.116  19.545 -0.8817 -1.1748 -0.4217
 2357TIP3   OH231265   4.819   1.267  19.288  0.3784 -0.0277 -0.6829
 2357TIP3    H131266   4.850   1.324  19.217  0.9492 -1.4167 -1.5765
 2357TIP3    H231267   4.823   1.179  19.252 -0.9741 -0.6069  0.5157
 2358TIP3   OH231268   7.059   3.489  17.926 -0.1104  0.7149  0.4407
 2358TIP3    H131269   6.989   3.467  17.865  1.2419  0.8842 -1.2130
 2358TIP3    H231270   7.087   3.405  17.962 -0.6890  0.5843  0.6010
 2359TIP3   OH231271   5.815   6.177  17.832 -0.0484 -0.5551  0.1493
 2359TIP3    H131272   5.909   6.190  17.819 -0.1586 -0.9676 -1.3161
 2359TIP3    H231273   5.809   6.100  17.888  0.4997 -1.4247 -0.9460
 2360TIP3   OH231274   6.857   4.340  19.250 -0.2163 -0.8354 -0.6114
 2360TIP3    H131275   6.871   4.330  19.156 -0.4343 -1.7353 -0.5554
 2360TIP3    H231276   6.821   4.428  19.259  1.5419 -0.0287 -1.1705
 2361TIP3   OH231277   0.836   3.321  19.832 -0.1872 -0.5024 -0.3472
 2361TIP3    H131278   0.920   3.290  19.865  1.1473  0.0540 -2.9155
 2361TIP3    H231279   0.855   3.410  19.801 -1.4743 -0.6955 -1.7939
 2362TIP3   OH231280   4.661   5.679  19.805 -0.7554  0.2540  0.3213
 2362TIP3    H131281   4.706   5.623  19.868  1.1480 -0.0777 -1.2502
 2362TIP3    H231282   4.700   5.766  19.818 -3.1564  1.1888  2.2205
 2363TIP3   OH231283   0.785   0.948  17.580  0.4000 -0.0818 -0.0429
 2363TIP3    H131284   0.725   1.006  17.533  0.0331  0.0590  0.5801
 2363TIP3    H231285   0.871   0.969  17.546  0.5760  2.4616  1.7323
 2364TIP3   OH231286   6.529   5.391  17.625 -0.2071 -0.1213  0.4289
 2364TIP3    H131287   6.621   5.398  17.602 -0.3346  1.0919  0.2122
 2364TIP3    H231288   6.528   5.337  17.704  0.7457  0.3981  0.8077
 2365TIP3   OH231289   6.113   3.870  18.428  0.0414  0.1681  0.1316
 2365TIP3    H131290   6.171   3.839  18.498 -0.4685 -3.3843 -0.8378
 2365TIP3    H231291   6.031   3.890  18.472  0.6357  0.9120  0.9258
 2366TIP3   OH231292   7.397   3.573  18.178 -0.6288 -0.5486  0.6960
 2366TIP3    H131293   7.313   3.600  18.140 -0.3687 -0.1743  0.3769
 2366TIP3    H231294   7.420   3.644  18.238 -0.2552 -0.3714  0.3413
 2367TIP3   OH231295   2.342   3.579  19.772 -0.6940 -0.3906 -0.1122
 2367TIP3    H131296   2.254   3.550  19.795 -0.3956 -1.2159  0.0330
 2367TIP3    H231297   2.365   3.644  19.839 -0.8964 -0.7365  0.2942
 2368TIP3   OH231298   3.521   1.486  18.252 -0.3542  0.2645 -0.2644
 2368TIP3    H131299   3.566   1.403  18.238 -0.6911 -0.0982  0.7196
 2368TIP3    H231300   3.552   1.543  18.182  0.9173 -0.2641 -0.1491
 2369TIP3   OH231301   4.861   2.425  18.337 -0.2223 -0.4276  0.5827
 2369TIP3    H131302   4.946   2.431  18.293 -0.1574 -0.5507  0.6893
 2369TIP3    H231303   4.883   2.428  18.430 -0.3675 -0.0639  0.6049
 2370TIP3   OH231304   7.381   3.922  18.839 -0.1559  0.0437  0.3808
 2370TIP3    H131305   7.397   3.854  18.773 -0.3250 -0.5014  0.8847
 2370TIP3    H231306   7.303   3.891  18.886  0.7533 -0.2817  1.7198
 2371TIP3   OH231307   2.010   0.252  18.948 -0.1105  0.0751 -0.7003
 2371TIP3    H131308   2.092   0.295  18.971  0.0330  0.2418 -1.5161
 2371TIP3    H231309   1.993   0.194  19.022 -0.2540  1.4332  0.3682
 2372TIP3   OH231310   5.425   3.630  17.421 -0.0776  0.3524 -0.2146
 2372TIP3    H131311   5.421   3.708  17.365 -0.2782  0.8142  0.4219
 2372TIP3    H231312   5.454   3.664  17.506 -0.1937 -0.2680  0.0777
 2373TIP3   OH231313   5.398   2.088  18.972  0.4737  0.6060 -0.0493
 2373TIP3    H131314   5.316   2.076  19.019  0.2749 -1.0150 -0.7479
 2373TIP3    H231315   5.437   2.167  19.011 -1.3493  1.3502  0.3458
 2374TIP3   OH231316   2.351   7.105  19.091 -0.6407  0.4376  0.4594
 2374TIP3    H131317   2.306   7.021  19.078 -0.2735  0.0906  1.3448
 2374TIP3    H231318   2.428   7.099  19.035 -0.8311  0.3552  0.2021
 2375TIP3   OH231319   1.962   1.166  18.260  0.2159  0.0879  0.1295
 2375TIP3    H131320   2.014   1.085  18.256  1.7725  0.9970  0.9999
 2375TIP3    H231321   2.024   1.235  18.236 -0.2044  1.3570  2.4388
 2376TIP3   OH231322   2.886   2.952  18.656 -0.2441 -0.1101  0.0692
 2376TIP3    H131323   2.837   2.994  18.586 -0.1645 -0.0513  0.0482
 2376TIP3    H231324   2.822   2.938  18.726 -0.8785 -2.2711 -0.8716
 2377TIP3   OH231325   2.912   2.303  18.454 -0.1320  0.6206 -0.0693
 2377TIP3    H131326   3.000   2.328  18.485  0.6979 -0.4998 -1.4000
 2377TIP3    H231327   2.874   2.255  18.528  0.7440  0.3331  0.2205
 2378TIP3   OH231328   7.450   2.254  19.639 -0.5961 -0.5512  0.2152
 2378TIP3    H131329   7.528   2.279  19.689 -0.1301  0.0241 -0.7635
 2378TIP3    H231330   7.413   2.337  19.610 -1.9623 -0.7736  1.1845
 2379TIP3   OH231331   5.784   4.039  17.343 -0.3836  0.2464 -0.4565
 2379TIP3    H131332   5.859   4.012  17.396  0.2179 -0.5286 -1.6735
 2379TIP3    H231333   5.822   4.089  17.271 -1.0043 -0.3591 -1.2137
 2380TIP3   OH231334   2.654   2.971  18.483  0.1022 -0.4912  0.3356
 2380TIP3    H131335   2.569   2.974  18.526 -0.4723 -0.2590 -0.7675
 2380TIP3    H231336   2.640   2.918  18.404  0.9836 -0.4699  0.1445
 2381TIP3   OH231337   3.898   3.499  19.732 -0.1268 -0.1479  0.5038
 2381TIP3    H131338   3.874   3.592  19.740  0.5049  0.0679  0.0256
 2381TIP3    H231339   3.862   3.458  19.810 -1.3889  0.2921  0.1859
 2382TIP3   OH231340   4.940   6.546  17.372  0.4152  0.1577 -0.1081
 2382TIP3    H131341   4.887   6.595  17.309  0.1650 -2.6412 -2.2436
 2382TIP3    H231342   4.987   6.482  17.319  1.8773 -0.9372  2.3646
 2383TIP3   OH231343   2.245   4.987  18.186 -0.2215 -0.0300  0.0693
 2383TIP3    H131344   2.337   5.009  18.191  0.2838 -1.9392  0.0892
 2383TIP3    H231345   2.235   4.910  18.242 -1.6927 -0.2201 -0.3990
 2384TIP3   OH231346   1.248   4.730  18.205 -0.1350 -0.2196  0.5897
 2384TIP3    H131347   1.182   4.790  18.172  0.1761 -0.3293 -0.2477
 2384TIP3    H231348   1.258   4.755  18.297 -0.5436  0.5191  0.4469
 2385TIP3   OH231349   6.231   2.473  19.660 -0.1065 -0.2297 -0.2144
 2385TIP3    H131350   6.203   2.484  19.569  1.1796 -2.2044 -0.9091
 2385TIP3    H231351   6.310   2.419  19.654  0.3488  0.1229  2.0472
 2386TIP3   OH231352   2.758   0.664  18.651 -0.1807 -0.1055  0.2751
 2386TIP3    H131353   2.750   0.684  18.744 -0.6120 -1.5455  0.5709
 2386TIP3    H231354   2.792   0.575  18.648  1.9026  0.6449 -0.9799
 2387TIP3   OH231355   7.092   4.090  19.141  0.3537  0.7142  0.0405
 2387TIP3    H131356   7.098   4.179  19.105  2.6907  0.1547 -1.1215
 2387TIP3    H231357   7.035   4.043  19.080 -0.2362  1.1731  0.2212
 2388TIP3   OH231358   2.195   5.573  18.227  0.3866  0.3231 -0.1363
 2388TIP3    H131359   2.265   5.562  18.161  1.7174  2.2349  0.8749
 2388TIP3    H231360   2.126   5.620  18.181  0.7509  0.4811 -0.5322
 2389TIP3   OH231361   1.184   7.197  18.882  0.1788  0.3272  0.7505
 2389TIP3    H131362   1.108   7.255  18.874  0.4796  0.7467  0.8825
 2389TIP3    H231363   1.255   7.245  18.839  0.2072 -0.3667  0.0206
 2390TIP3   OH231364   6.083   6.207  18.942  0.7738  0.2513 -0.0383
 2390TIP3    H131365   6.067   6.301  18.950 -1.4107 -0.0221 -0.5605
 2390TIP3    H231366   6.032   6.180  18.865  0.8144 -1.4689  0.4802
 2391TIP3   OH231367   5.460   4.914  17.648 -0.7359  0.0621  0.4940
 2391TIP3    H131368   5.552   4.891  17.660 -1.0864 -1.1024  1.0814
 2391TIP3    H231369   5.454   4.942  17.557  0.0809 -0.4154  0.2847
 2392TIP3   OH231370   0.816   2.833  20.021  0.2941  0.1412  0.1486
 2392TIP3    H131371   0.721   2.836  20.029  0.0867  0.6604 -1.9508
 2392TIP3    H231372   0.832   2.781  19.942  1.7375  0.7284  0.0183
 2393TIP3   OH231373   5.795   5.127  18.163  0.4747 -0.0916 -0.3046
 2393TIP3    H131374   5.828   5.114  18.075 -2.9867  0.4475 -1.8527
 2393TIP3    H231375   5.779   5.221  18.170  0.6195 -0.1346  0.8927
 2394TIP3   OH231376   4.675   2.857  19.409  0.3004 -0.2090  0.0167
 2394TIP3    H131377   4.747   2.877  19.468 -0.1089  0.4258  0.3024
 2394TIP3    H231378   4.631   2.940  19.394  0.2159 -0.4139 -0.9449
 2395TIP3   OH231379   6.289   1.307  18.990  0.2061 -0.2021  0.5334
 2395TIP3    H131380   6.378   1.342  18.992  0.2140 -0.2277  1.7948
 2395TIP3    H231381   6.233   1.384  19.000  0.0037 -0.0339 -1.5359
 2396TIP3   OH231382   2.559   7.549  18.107 -0.2522 -0.4217  0.6462
 2396TIP3    H131383   2.524   7.464  18.134 -0.6889 -0.4053  0.1335
 2396TIP3    H231384   2.619   7.528  18.036  0.5323 -0.4129  1.2882
 2397TIP3   OH231385   0.197   6.500  19.238  0.1479 -0.0005 -0.7373
 2397TIP3    H131386   0.250   6.466  19.309 -1.3997 -0.7923  0.1020
 2397TIP3    H231387   0.123   6.440  19.232 -0.7691  1.1580 -1.7064
 2398TIP3   OH231388   4.362   7.175  19.649  0.3899 -0.6839 -0.6511
 2398TIP3    H131389   4.453   7.168  19.619  0.3160 -1.5851 -0.6759
 2398TIP3    H231390   4.370   7.204  19.740  0.6011  2.5066 -1.5365
 2399TIP3   OH231391   6.876   2.261  17.333 -1.0012  0.2544 -0.2896
 2399TIP3    H131392   6.806   2.206  17.368 -1.1353  0.4331 -0.2751
 2399TIP3    H231393   6.957   2.218  17.361 -1.0939 -0.2618 -0.7828
 2400TIP3   OH231394   5.858   5.618  18.739 -0.0021  0.3133  0.0043
 2400TIP3    H131395   5.789   5.609  18.805  2.1273  2.0347  2.6990
 2400TIP3    H231396   5.836   5.699  18.692  0.0286  0.7437  0.7100
 2401TIP3   OH231397   1.544   6.318  17.937  0.0873 -0.5733 -0.1036
 2401TIP3    H131398   1.453   6.334  17.962  0.4570  1.2155  0.2202
 2401TIP3    H231399   1.594   6.380  17.989  1.2843  0.0581 -1.9192
 2402TIP3   OH231400   4.034   4.019  16.998  0.7427 -0.4547  0.1526
 2402TIP3    H131401   3.973   3.947  17.014  0.4291 -0.1090  0.5209
 2402TIP3    H231402   4.001   4.091  17.051  1.8399 -0.4560  0.8814
 2403TIP3   OH231403   1.850   7.557  18.933 -0.2874 -0.3059 -0.3293
 2403TIP3    H131404   1.939   7.578  18.958 -0.8563  1.2392  0.5190
 2403TIP3    H231405   1.840   7.593  18.845 -0.4888  0.7961  0.1342
 2404TIP3   OH231406   4.060   1.627  19.806 -0.6658  0.2849  0.2346
 2404TIP3    H131407   4.139   1.639  19.754 -2.3469  0.9171 -2.3691
 2404TIP3    H231408   4.035   1.536  19.792 -0.4723  0.1066  0.9950
 2405TIP3   OH231409   3.503   5.617  19.447 -0.8022 -0.0049  0.0249
 2405TIP3    H131410   3.463   5.614  19.361  1.0208  0.9189 -0.9032
 2405TIP3    H231411   3.591   5.651  19.432 -0.2527 -0.3045  2.1869
 2406TIP3   OH231412   4.231   6.363  18.590  0.3604  0.1826 -0.2115
 2406TIP3    H131413   4.296   6.426  18.560 -1.0421  1.5941 -0.4371
 2406TIP3    H231414   4.168   6.357  18.518 -0.4380 -0.1494  0.4871
 2407TIP3   OH231415   5.151   6.254  19.111  0.2871  0.4096  0.0467
 2407TIP3    H131416   5.146   6.176  19.056 -0.9779 -1.2340  2.2677
 2407TIP3    H231417   5.066   6.297  19.100 -0.0453 -0.0305  0.7975
 2408TIP3   OH231418   7.038   4.127  18.068  0.6395 -0.8739 -0.2677
 2408TIP3    H131419   7.065   4.168  17.985 -2.1426  0.7068 -0.5052
 2408TIP3    H231420   7.035   4.200  18.130  0.8514 -1.7147  0.7493
 2409TIP3   OH231421   3.937   5.564  18.653 -0.5409 -0.2212  0.0981
 2409TIP3    H131422   3.906   5.484  18.696  1.1202 -0.4869  0.9152
 2409TIP3    H231423   3.944   5.627  18.725  0.8495 -0.2178 -0.0154
 2410TIP3   OH231424   1.149   4.487  19.246 -0.5907 -0.0972  0.8206
 2410TIP3    H131425   1.206   4.473  19.322 -1.6107  1.1784  1.8610
 2410TIP3    H231426   1.120   4.577  19.254 -1.3374 -0.1790 -0.6807
 2411TIP3   OH231427   0.760   4.735  18.464  0.2938  0.8291 -0.7204
 2411TIP3    H131428   0.812   4.789  18.405  0.5780  1.2708 -0.0689
 2411TIP3    H231429   0.813   4.657  18.479  0.0823  0.5683 -1.2957
 2412TIP3   OH231430   1.328   2.737  18.845  0.4873 -0.0676 -0.0994
 2412TIP3    H131431   1.383   2.687  18.785 -1.8765 -1.1636 -1.4500
 2412TIP3    H231432   1.363   2.826  18.840  0.3187 -0.0693 -3.2278
 2413TIP3   OH231433   0.002   5.729  18.340  0.0356 -0.3286 -0.2670
 2413TIP3    H131434  -0.054   5.804  18.321  0.6575  0.2244  0.0609
 2413TIP3    H231435  -0.058   5.662  18.372 -0.6650 -0.3436 -1.5516
 2414TIP3   OH231436   5.712   4.024  18.670 -0.0497  1.0398 -0.0243
 2414TIP3    H131437   5.752   3.950  18.625  0.5034  1.7371 -0.6981
 2414TIP3    H231438   5.618   4.009  18.661  0.0159 -0.4877  1.3751
 2415TIP3   OH231439   1.267   2.806  19.765 -0.2051 -0.0021  0.3689
 2415TIP3    H131440   1.362   2.793  19.764 -0.2015 -0.0112 -0.6290
 2415TIP3    H231441   1.255   2.899  19.746 -0.3966 -0.1197 -0.1206
 2416TIP3   OH231442   2.127   6.197  19.377  0.1134 -0.3459  0.4330
 2416TIP3    H131443   2.175   6.277  19.394 -0.1847  0.0464 -0.4912
 2416TIP3    H231444   2.054   6.224  19.321  0.9145 -1.4685 -1.2627
 2417TIP3   OH231445   0.497   7.034  18.039 -0.0474  0.0905 -0.6694
 2417TIP3    H131446   0.510   6.955  18.091 -2.3776  0.3127  0.4037
 2417TIP3    H231447   0.478   7.102  18.104 -0.0800  1.0693 -1.6767
 2418TIP3   OH231448   3.642   6.654  19.711 -0.2203 -0.8114 -0.5745
 2418TIP3    H131449   3.587   6.649  19.632 -0.8254  2.6151 -0.5337
 2418TIP3    H231450   3.706   6.722  19.690  0.5557 -0.9080  1.3618
 2419TIP3   OH231451   6.576   2.699  19.628  0.3877  0.3116  0.4925
 2419TIP3    H131452   6.533   2.749  19.698 -1.6849 -1.0626  0.3174
 2419TIP3    H231453   6.595   2.614  19.668  0.0467 -0.1629 -0.3280
 2420TIP3   OH231454   7.288   5.230  19.161  0.4111 -0.0915 -0.1318
 2420TIP3    H131455   7.314   5.194  19.077  0.8819  2.2132 -1.0367
 2420TIP3    H231456   7.224   5.167  19.195 -1.0251 -0.3104 -2.9446
 2421TIP3   OH231457   1.882   4.804  19.707 -0.0903  0.2887 -0.5999
 2421TIP3    H131458   1.861   4.895  19.687 -3.1105  0.0545  0.9037
 2421TIP3    H231459   1.801   4.756  19.690  0.5921 -1.6611  1.1636
 2422TIP3   OH231460   4.533   2.001  18.419 -0.8499  0.3525  0.0472
 2422TIP3    H131461   4.466   1.990  18.351  0.6164  0.9402 -1.5600
 2422TIP3    H231462   4.589   2.072  18.386  0.7555 -0.3373  1.1733
 2423TIP3   OH231463   5.432   6.226  17.503 -0.7011  0.1063  0.3917
 2423TIP3    H131464   5.396   6.273  17.428 -2.4371 -0.0451  1.0942
 2423TIP3    H231465   5.488   6.159  17.463 -0.1000  1.1985 -0.6884
 2424TIP3   OH231466   1.612   6.517  19.800  0.3624 -0.0662  0.7479
 2424TIP3    H131467   1.543   6.573  19.836 -1.1886 -1.4876  0.1659
 2424TIP3    H231468   1.610   6.534  19.706  0.9218 -0.0088  0.7459
 2425TIP3   OH231469   7.090   6.699  19.196  0.0132 -0.1941 -0.0113
 2425TIP3    H131470   7.038   6.751  19.258 -0.5641 -1.4591  0.5922
 2425TIP3    H231471   7.039   6.701  19.115  1.0595  1.9665 -0.7021
 2426TIP3   OH231472   2.356   5.841  17.850  0.2038 -0.6549 -0.4580
 2426TIP3    H131473   2.385   5.878  17.766 -0.8350 -2.1611 -1.5415
 2426TIP3    H231474   2.288   5.900  17.881  1.9911  1.0478  0.4144
 2427TIP3   OH231475   5.856   1.315  18.405  0.9199 -0.5291  0.2268
 2427TIP3    H131476   5.910   1.347  18.333  1.1265 -0.9045  0.2110
 2427TIP3    H231477   5.898   1.233  18.432  0.6585 -0.5590  0.5603
 2428TIP3   OH231478   6.889   3.346  19.541  0.0584 -1.0147 -0.2201
 2428TIP3    H131479   6.867   3.356  19.448 -1.1113 -0.2472  0.1104
 2428TIP3    H231480   6.850   3.262  19.566 -0.3370 -0.8408 -0.2419
 2429TIP3   OH231481   0.914   6.194  19.435  0.3218 -0.9026 -0.0786
 2429TIP3    H131482   0.896   6.136  19.362 -0.7145  0.5269 -1.0146
 2429TIP3    H231483   0.958   6.139  19.500 -1.6002 -3.0006 -0.4494
 2430TIP3   OH231484   1.163   5.468  17.190  0.5559  0.0707  0.0252
 2430TIP3    H131485   1.237   5.407  17.192  0.8913  0.4573 -0.1882
 2430TIP3    H231486   1.086   5.413  17.177  0.6338 -0.4841  1.6825
 2431TIP3   OH231487   6.364   3.526  18.075 -0.4311  0.1537  1.0590
 2431TIP3    H131488   6.331   3.534  17.985  3.0620  0.6136 -0.3375
 2431TIP3    H231489   6.386   3.616  18.100  0.9820 -0.2545  1.3396
 2432TIP3   OH231490   6.653   0.323  19.469 -0.1151  0.4137 -0.7495
 2432TIP3    H131491   6.602   0.249  19.500 -0.1226  0.9791  0.6651
 2432TIP3    H231492   6.600   0.362  19.399 -1.0178  0.2210 -0.1848
 2433TIP3   OH231493   3.215   6.020  17.417  0.0669 -0.0578  0.3574
 2433TIP3    H131494   3.148   6.011  17.349  0.2494 -0.2266  0.1960
 2433TIP3    H231495   3.292   5.979  17.379  0.4574  0.7376  0.2780
 2434TIP3   OH231496   6.667   5.181  18.886  0.1114  0.2831  0.1868
 2434TIP3    H131497   6.721   5.165  18.808  0.3938 -0.8984  0.5945
 2434TIP3    H231498   6.709   5.128  18.955 -0.7072  0.5261  0.8855
 2435TIP3   OH231499   4.420   5.914  18.693 -0.0833  0.0734  0.3320
 2435TIP3    H131500   4.389   5.904  18.783  1.4381  1.0874  1.0237
 2435TIP3    H231501   4.341   5.930  18.641 -1.0039 -0.7464  1.4318
 2436TIP3   OH231502   3.866   5.657  19.676  0.3539  0.0813  0.8256
 2436TIP3    H131503   3.838   5.599  19.748  0.2291 -1.9347 -0.7526
 2436TIP3    H231504   3.817   5.738  19.691 -0.7920 -0.8035  2.1891
 2437TIP3   OH231505   6.000   4.639  18.961 -0.1041 -0.6371  0.1583
 2437TIP3    H131506   5.955   4.565  18.919 -2.1015  0.7558 -0.2586
 2437TIP3    H231507   5.974   4.634  19.053 -1.8378  0.5974 -0.2151
 2438TIP3   OH231508   5.789   5.561  19.716 -0.1544 -0.0371 -0.1994
 2438TIP3    H131509   5.712   5.594  19.761  0.4586  0.0887  0.7754
 2438TIP3    H231510   5.812   5.631  19.655 -0.4492  0.1821 -0.0645
 2439TIP3   OH231511   7.431   3.774  17.151  0.0045 -0.0324 -0.8193
 2439TIP3    H131512   7.422   3.869  17.158 -0.8963 -0.0629 -1.4347
 2439TIP3    H231513   7.469   3.760  17.064  0.3779 -0.2346 -0.6295
 2440TIP3   OH231514   6.076   4.209  18.148 -0.0030 -0.2909 -0.1420
 2440TIP3    H131515   6.148   4.148  18.135 -0.5362 -0.8107 -0.7235
 2440TIP3    H231516   6.051   4.197  18.239 -0.3858 -1.2742 -0.3605
 2441TIP3   OH231517   0.703   3.335  19.350 -0.0252 -0.2581 -0.2559
 2441TIP3    H131518   0.643   3.345  19.276  0.0686 -1.0567 -0.4521
 2441TIP3    H231519   0.771   3.277  19.317 -0.2357 -1.0125  0.6086
 2442TIP3   OH231520   1.944   7.673  17.796 -0.1548 -0.0283 -0.7779
 2442TIP3    H131521   1.991   7.718  17.866  0.8834 -1.0950 -0.7564
 2442TIP3    H231522   1.958   7.727  17.719 -2.5534  1.9632  0.0721
 2443TIP3   OH231523   7.199   5.350  18.197  0.0761  0.5857  0.6409
 2443TIP3    H131524   7.174   5.341  18.289 -0.2704  1.2776  0.6232
 2443TIP3    H231525   7.170   5.269  18.157 -0.6892  0.6916  0.9518
 2444TIP3   OH231526   7.218   7.409  17.802  0.4518  0.3685 -0.1366
 2444TIP3    H131527   7.199   7.403  17.708 -0.8966 -0.5849  0.1765
 2444TIP3    H231528   7.135   7.391  17.845  1.1048  0.5669  1.2583
 2445TIP3   OH231529   1.335   0.366  19.441 -0.5173  0.2442 -0.4671
 2445TIP3    H131530   1.300   0.283  19.474  1.8947 -1.2577 -1.4311
 2445TIP3    H231531   1.258   0.423  19.433 -1.8758 -0.7599  3.2496
 2446TIP3   OH231532   3.013   4.696  17.651  0.2729 -0.0801  0.4274
 2446TIP3    H131533   3.042   4.777  17.608 -0.6475  0.0084 -0.0474
 2446TIP3    H231534   2.922   4.687  17.625  1.0186 -2.6845 -1.6799
 2447TIP3   OH231535   1.010   2.716  17.496 -0.5057 -0.6582 -0.3298
 2447TIP3    H131536   0.960   2.648  17.450 -0.4183 -0.8021 -0.2106
 2447TIP3    H231537   1.052   2.670  17.568  1.8948 -1.0969 -1.8817
 2448TIP3   OH231538   6.899   5.948  17.014 -0.4506  0.0941  0.2889
 2448TIP3    H131539   6.981   5.995  17.033 -1.7531  1.8472  1.9848
 2448TIP3    H231540   6.919   5.856  17.031  0.7102  0.6872  2.5053
 2449TIP3   OH231541   4.373   5.363  19.202  0.8634  0.2701  0.6748
 2449TIP3    H131542   4.358   5.385  19.110 -1.9386  0.7057  1.1518
 2449TIP3    H231543   4.399   5.271  19.201 -1.3759 -0.4125 -0.4689
 2450TIP3   OH231544   2.017   0.763  18.083  0.0148  0.0944 -0.1881
 2450TIP3    H131545   2.104   0.747  18.117  0.1248 -0.1175 -0.5662
 2450TIP3    H231546   1.959   0.755  18.159  0.0609 -2.0003 -0.3360
 2451TIP3   OH231547   5.679   6.212  17.171 -0.1350  0.2297  0.3752
 2451TIP3    H131548   5.622   6.289  17.176  0.8430  0.9549  0.5660
 2451TIP3    H231549   5.753   6.241  17.118  0.4910 -0.4271  0.8749
 2452TIP3   OH231550   3.512   1.004  19.065 -0.0143  0.3010  0.2738
 2452TIP3    H131551   3.598   0.999  19.107  0.1902  0.2506 -0.1432
 2452TIP3    H231552   3.451   0.971  19.130  0.2630  0.4991  0.6345
 2453TIP3   OH231553   0.856   6.506  17.788  0.2600  0.1625 -0.7904
 2453TIP3    H131554   0.833   6.443  17.720 -2.7666 -0.0746  0.2741
 2453TIP3    H231555   0.808   6.586  17.764  0.0660  0.4303  0.4050
 2454TIP3   OH231556   3.259   3.211  19.632  0.6935  0.3442  0.2784
 2454TIP3    H131557   3.224   3.276  19.572  0.0680 -0.0652  0.1818
 2454TIP3    H231558   3.335   3.175  19.588  1.3822  1.3911  0.5734
 2455TIP3   OH231559   0.480   2.533  17.698 -0.4617 -0.1164  0.8729
 2455TIP3    H131560   0.510   2.622  17.678  0.7467 -0.1701  2.2551
 2455TIP3    H231561   0.546   2.476  17.659 -1.1819 -0.4222  0.0754
 2456TIP3   OH231562   0.996   6.891  19.307 -0.1596  0.2843 -0.0431
 2456TIP3    H131563   0.980   6.797  19.294 -1.0780  0.5054 -0.5751
 2456TIP3    H231564   1.049   6.895  19.387  3.7600 -0.9916 -2.2918
 2457TIP3   OH231565   6.278   4.298  19.649 -0.2454 -0.1752  0.0131
 2457TIP3    H131566   6.244   4.245  19.721  1.6975 -3.9209 -1.5680
 2457TIP3    H231567   6.368   4.317  19.673  0.2996 -1.1197 -1.1435
 2458TIP3   OH231568   0.514   3.233  17.476 -0.2331  1.0451 -0.1894
 2458TIP3    H131569   0.490   3.141  17.466  1.6855  0.2404  1.7255
 2458TIP3    H231570   0.577   3.250  17.406 -0.5399  0.8950 -0.5043
 2459TIP3   OH231571   2.138   6.206  18.254  0.7548 -0.2713  0.2605
 2459TIP3    H131572   2.045   6.209  18.233  1.0445  0.4943 -0.9683
 2459TIP3    H231573   2.151   6.118  18.290 -0.4818 -0.2935  0.7097
 2460TIP3   OH231574   2.446   4.031  19.206  0.2458  0.6888 -0.2643
 2460TIP3    H131575   2.392   3.954  19.188  2.4619 -1.2617  0.8730
 2460TIP3    H231576   2.444   4.082  19.125 -2.1051  0.0060 -0.7062
 2461TIP3   OH231577   6.691   7.330  19.737 -0.5349  0.2837 -0.1835
 2461TIP3    H131578   6.657   7.353  19.650  0.1406  0.4955 -0.3928
 2461TIP3    H231579   6.780   7.299  19.720 -0.3959  0.3451  0.4411
 2462TIP3   OH231580   2.544   4.519  18.997  0.2171 -0.1353  0.4001
 2462TIP3    H131581   2.573   4.573  18.923 -0.0560  0.3258  0.6286
 2462TIP3    H231582   2.455   4.493  18.973 -0.3441  1.0317  1.1095
 2463TIP3   OH231583   3.104   1.666  18.765  0.0033  0.3839  0.1276
 2463TIP3    H131584   3.180   1.707  18.807 -0.4618  0.1770  1.1985
 2463TIP3    H231585   3.135   1.579  18.740  0.3408  0.5737 -0.1106
 2464TIP3   OH231586   0.822   3.254  17.453  0.1121 -0.1273  0.3618
 2464TIP3    H131587   0.811   3.326  17.515 -1.0103  0.3911 -0.4060
 2464TIP3    H231588   0.754   3.268  17.387  0.2404 -1.5744 -0.1204
 2465TIP3   OH231589   2.909   7.523  18.758  0.0696  0.0368  0.4509
 2465TIP3    H131590   2.950   7.519  18.845 -0.3637 -0.1745  0.6458
 2465TIP3    H231591   2.982   7.511  18.698  0.4585  0.7283  0.7692
 2466TIP3   OH231592   4.486   5.119  19.204  0.1335 -0.4384 -0.1137
 2466TIP3    H131593   4.562   5.072  19.169  1.3218  1.7599 -0.7069
 2466TIP3    H231594   4.491   5.105  19.298  1.7720  0.2666 -0.0589
 2467TIP3   OH231595   0.936   1.047  17.857 -0.0583  0.4599 -0.2551
 2467TIP3    H131596   0.925   1.077  17.947  1.0159 -1.8061  0.7270
 2467TIP3    H231597   0.849   1.019  17.829  0.0223 -1.4704  1.1965
 2468TIP3   OH231598   3.916   6.637  18.290  0.1464 -0.2698 -0.4906
 2468TIP3    H131599   3.894   6.549  18.321 -2.1450  0.3204 -0.2490
 2468TIP3    H231600   3.932   6.687  18.371  0.6554 -0.2452 -0.5991
 2469TIP3   OH231601   6.665   3.214  18.759 -0.1747 -0.3084  0.2651
 2469TIP3    H131602   6.595   3.268  18.796 -1.0551 -0.9311 -0.4690
 2469TIP3    H231603   6.662   3.232  18.665  2.1147  1.3468  0.4114
 2470TIP3   OH231604   4.244   6.115  19.627 -0.0954 -0.0700 -0.6004
 2470TIP3    H131605   4.153   6.133  19.650  0.2638  0.8780  0.1271
 2470TIP3    H231606   4.277   6.064  19.701 -0.6114 -2.3565 -1.8448
 2471TIP3   OH231607   4.228   6.109  17.877  0.2379 -0.2375  0.4053
 2471TIP3    H131608   4.249   6.110  17.784 -1.7460  0.5736 -0.0720
 2471TIP3    H231609   4.163   6.039  17.886  1.9638 -1.8122  1.6130
 2472TIP3   OH231610   3.249   3.899  19.950 -0.1849 -0.9818  0.2071
 2472TIP3    H131611   3.267   3.818  19.996  2.1789 -1.5096 -1.4453
 2472TIP3    H231612   3.158   3.920  19.972 -0.5691 -3.5445  1.4055
 2473TIP3   OH231613   7.457   2.371  19.372 -0.7504 -0.1639 -0.1184
 2473TIP3    H131614   7.437   2.284  19.338  0.7669 -0.2023 -1.0349
 2473TIP3    H231615   7.383   2.425  19.344 -1.4957 -1.0626  0.0756
 2474TIP3   OH231616   7.297   0.267  18.893 -0.2511  0.2612  0.3151
 2474TIP3    H131617   7.389   0.293  18.886  0.8198 -2.2347  2.8682
 2474TIP3    H231618   7.291   0.187  18.841 -0.6807 -0.1335  0.9576
 2475TIP3   OH231619   0.262   4.716  18.225 -0.0972  0.3144  0.0906
 2475TIP3    H131620   0.352   4.745  18.237  0.0908 -0.3297  0.2939
 2475TIP3    H231621   0.248   4.718  18.130  0.2946 -0.0573  0.0251
 2476TIP3   OH231622   5.829   5.902  17.952 -0.4842 -0.1256 -0.2627
 2476TIP3    H131623   5.902   5.846  17.926  0.3342  0.7871  0.0222
 2476TIP3    H231624   5.817   5.883  18.045  1.2594  1.7158  0.4133
 2477TIP3   OH231625   3.267   6.829  19.418 -0.2870  0.3463 -0.0352
 2477TIP3    H131626   3.234   6.751  19.462 -1.1789  0.6597 -0.1324
 2477TIP3    H231627   3.269   6.896  19.486 -0.1871  0.4192 -0.1094
 2478TIP3   OH231628   0.985   1.398  18.373 -0.2243  0.0999  0.3219
 2478TIP3    H131629   0.995   1.468  18.308 -1.3429  1.3877  1.4532
 2478TIP3    H231630   0.906   1.352  18.346 -0.2239  0.1141  0.2953
 2479TIP3   OH231631   5.329   5.748  17.313  0.6468 -0.4479  0.5411
 2479TIP3    H131632   5.283   5.697  17.246  0.6228 -0.1911  0.3556
 2479TIP3    H231633   5.372   5.683  17.368  2.1444 -0.6326 -0.7737
 2480TIP3   OH231634   3.558   3.691  19.617 -0.3258 -0.2420 -0.5394
 2480TIP3    H131635   3.506   3.699  19.537  0.0517  0.5680 -0.7189
 2480TIP3    H231636   3.495   3.665  19.684 -0.6967 -0.6492 -1.0406
 2481TIP3   OH231637   6.166   3.410  17.208 -0.4323  0.2557 -0.4481
 2481TIP3    H131638   6.115   3.370  17.137 -2.3683 -2.3461  2.1633
 2481TIP3    H231639   6.100   3.459  17.258  0.1243 -0.9243  1.5010
 2482TIP3   OH231640   5.977   0.385  17.506  0.1999  0.2204  0.0159
 2482TIP3    H131641   5.998   0.474  17.477 -1.6635  1.1427  1.2488
 2482TIP3    H231642   5.881   0.383  17.506  0.2094 -1.5643  0.6931
 2483TIP3   OH231643   5.176   0.646  17.868  0.0449  0.1516 -0.5986
 2483TIP3    H131644   5.167   0.568  17.923 -0.8008 -0.1705 -1.1702
 2483TIP3    H231645   5.262   0.682  17.892 -0.4657  0.2782  1.2475
 2484TIP3   OH231646   1.585   1.743  18.330 -0.3562 -0.4531 -0.1522
 2484TIP3    H131647   1.506   1.692  18.345  0.1292 -1.3407 -0.5146
 2484TIP3    H231648   1.624   1.754  18.416 -0.9983  0.2033  0.0588
 2485TIP3   OH231649   4.189   1.011  18.485 -0.1763  0.3163  0.4418
 2485TIP3    H131650   4.241   0.998  18.406 -0.8250 -0.2439  0.0997
 2485TIP3    H231651   4.107   0.964  18.468 -0.2427  0.0258  1.5248
 2486TIP3   OH231652   6.129   4.252  17.828 -0.1882 -0.0497 -0.8102
 2486TIP3    H131653   6.161   4.312  17.895  0.7060  0.0410 -1.2926
 2486TIP3    H231654   6.145   4.165  17.864  0.9882 -0.0129 -1.1834
 2487TIP3   OH231655   3.607   6.024  17.928  0.3317 -0.0690 -0.3638
 2487TIP3    H131656   3.512   6.022  17.918  0.3110 -0.3388 -0.1138
 2487TIP3    H231657   3.634   6.101  17.878 -0.3394  1.9407  2.1194
 2488TIP3   OH231658   0.144   6.630  19.007  0.3863  0.1631  0.6064
 2488TIP3    H131659   0.057   6.660  19.034  0.3778  0.6909  0.0141
 2488TIP3    H231660   0.153   6.544  19.048 -1.4501 -1.0461 -1.3409
 2489TIP3   OH231661   1.179   6.077  19.574  0.1034 -0.8083 -0.2679
 2489TIP3    H131662   1.234   6.097  19.650  0.9090  1.3463 -1.3375
 2489TIP3    H231663   1.188   5.982  19.563 -0.7099 -1.3752  2.7632
 2490TIP3   OH231664   2.986   7.198  18.808  0.0119  0.5641  0.0928
 2490TIP3    H131665   3.020   7.191  18.897 -1.2558 -1.2076  0.4862
 2490TIP3    H231666   3.019   7.282  18.776  2.6519  0.0570  1.2858
 2491TIP3   OH231667   0.453   0.672  18.543 -0.0781  0.1648 -0.1166
 2491TIP3    H131668   0.544   0.687  18.518 -0.1497  2.0594  0.5445
 2491TIP3    H231669   0.439   0.733  18.616 -1.7808 -0.3429  0.0116
 2492TIP3   OH231670   3.399   6.477  19.145 -0.0974 -0.1259 -0.1400
 2492TIP3    H131671   3.357   6.455  19.228  0.1383 -0.1198 -0.0174
 2492TIP3    H231672   3.329   6.514  19.092  0.1791  1.9381  0.8286
 2493TIP3   OH231673   5.202   0.606  19.179 -0.1190  0.6906  0.0405
 2493TIP3    H131674   5.232   0.695  19.200 -1.3920  0.7999  1.5881
 2493TIP3    H231675   5.279   0.563  19.143  0.9479  1.9658  0.6969
 2494TIP3   OH231676   7.556   0.222  19.516  0.0655 -0.1975 -0.0970
 2494TIP3    H131677   7.509   0.305  19.520  1.3050  0.6135 -1.4154
 2494TIP3    H231678   7.510   0.171  19.450  0.0529 -0.0538 -0.2007
 2495TIP3   OH231679   3.421   1.488  18.806 -0.3361  0.0446  0.6717
 2495TIP3    H131680   3.417   1.521  18.717 -0.9862  0.8062  0.9773
 2495TIP3    H231681   3.353   1.421  18.810 -0.2544 -0.0443  0.5779
 2496TIP3   OH231682   3.137   0.826  18.694  0.0140 -0.2100  0.1709
 2496TIP3    H131683   3.232   0.821  18.708  0.2355 -3.6119 -1.5705
 2496TIP3    H231684   3.102   0.751  18.743 -1.6247  0.1954 -0.3261
 2497TIP3   OH231685   5.983   5.654  17.966 -0.4881 -0.4187 -0.0850
 2497TIP3    H131686   6.049   5.615  17.909 -1.1873 -1.7652 -0.0252
 2497TIP3    H231687   5.947   5.580  18.016 -1.3698  0.4159  0.5730
 2498TIP3   OH231688   0.821   1.519  19.006  0.2722 -0.4534  0.5892
 2498TIP3    H131689   0.726   1.508  19.006  0.0792  0.8917 -0.6744
 2498TIP3    H231690   0.835   1.604  18.965  2.0061 -0.3469  1.3213
 2499TIP3   OH231691   5.482   0.686  17.947  0.1079  0.8092  0.5259
 2499TIP3    H131692   5.543   0.718  18.014  1.9952 -0.3633 -0.5497
 2499TIP3    H231693   5.535   0.629  17.892 -1.5780  1.1136 -1.5173
 2500TIP3   OH231694   0.509   7.597  18.714  0.0422 -0.4487 -0.2454
 2500TIP3    H131695   0.558   7.517  18.695  0.7355  0.1516 -1.0621
 2500TIP3    H231696   0.418   7.574  18.696  0.3069 -0.8869 -1.0802
 2501TIP3   OH231697   2.311   1.529  19.033 -0.4442  0.2459 -0.3930
 2501TIP3    H131698   2.341   1.441  19.057  0.1026  0.6818  0.5531
 2501TIP3    H231699   2.363   1.552  18.956  0.9095  0.5491  0.5758
 2502TIP3   OH231700   1.318   0.363  19.097 -0.2724  0.6740 -0.1802
 2502TIP3    H131701   1.269   0.288  19.131 -0.8295  0.5441 -1.2120
 2502TIP3    H231702   1.254   0.410  19.043  0.1627  1.7197  0.2005
 2503TIP3   OH231703   7.069   6.055  17.521 -0.2822 -0.4845 -0.0762
 2503TIP3    H131704   7.096   6.136  17.477  0.8486  0.1646  1.7027
 2503TIP3    H231705   6.974   6.054  17.513 -0.3936  1.4280  0.4743
 2504TIP3   OH231706   2.928   1.678  19.357  0.2526  0.1966 -0.0798
 2504TIP3    H131707   2.873   1.741  19.404  0.7557  1.0561 -0.6221
 2504TIP3    H231708   2.995   1.653  19.421  2.1375  2.8644 -0.8314
 2505TIP3   OH231709   1.457   7.036  18.482 -0.3428  0.2129  0.2994
 2505TIP3    H131710   1.493   7.013  18.567  3.7828  2.3731 -0.5861
 2505TIP3    H231711   1.415   7.121  18.496 -0.9936 -0.1285  0.4403
 2506TIP3   OH231712   7.482   2.956  19.364 -0.2315  0.0772 -0.2524
 2506TIP3    H131713   7.390   2.971  19.384  0.0264 -1.6761  2.9650
 2506TIP3    H231714   7.505   2.878  19.415  2.5564 -0.7832 -2.5498
 2507TIP3   OH231715   3.641   3.531  19.270 -0.5248 -0.3674  0.2075
 2507TIP3    H131716   3.687   3.613  19.252  1.1324 -1.3383 -0.1702
 2507TIP3    H231717   3.675   3.503  19.355  0.7479 -1.8418 -0.7392
 2508TIP3   OH231718   3.213   3.828  19.154 -0.5805 -0.2070  0.1764
 2508TIP3    H131719   3.185   3.881  19.229  0.4846 -0.1491  0.5466
 2508TIP3    H231720   3.169   3.868  19.079 -0.3937  0.7346  0.5538
 2509TIP3   OH231721   0.661   3.919  19.081 -0.2510 -0.7362 -0.5058
 2509TIP3    H131722   0.747   3.960  19.080 -0.2334 -0.7735 -0.5506
 2509TIP3    H231723   0.599   3.991  19.094 -0.3194 -0.5196 -1.8833
 2510TIP3   OH231724   6.725   4.810  18.349  0.0427 -0.3073  0.2666
 2510TIP3    H131725   6.675   4.853  18.418 -0.7088  0.0021 -0.4563
 2510TIP3    H231726   6.811   4.851  18.352  0.1674 -0.6205  1.3177
 2511TIP3   OH231727   2.912   6.084  18.680  0.0357  0.0568  0.0250
 2511TIP3    H131728   2.849   6.017  18.656 -1.3814  1.2038  0.3604
 2511TIP3    H231729   2.975   6.086  18.608 -0.3860 -1.0220 -0.3840
 2512TIP3   OH231730   7.561   0.796  18.534  0.0124 -0.0233  0.2950
 2512TIP3    H131731   7.618   0.721  18.548  0.2643  0.2733  0.9008
 2512TIP3    H231732   7.619   0.872  18.540 -0.1110  0.2050 -1.0027
 2513TIP3   OH231733   3.526   2.390  19.748  0.0487 -0.0063 -0.2335
 2513TIP3    H131734   3.434   2.417  19.756 -0.1553  0.2074 -2.6060
 2513TIP3    H231735   3.573   2.472  19.737  0.2842 -0.2276 -0.8734
 2514TIP3   OH231736   0.902   2.508  17.771 -0.5466 -0.0820 -0.7447
 2514TIP3    H131737   0.876   2.561  17.846 -0.1876 -0.0170 -0.6657
 2514TIP3    H231738   0.820   2.489  17.725 -0.7463  0.0159 -0.4277
 2515TIP3   OH231739   4.102   7.357  19.544 -0.6348  0.3682  0.0961
 2515TIP3    H131740   4.170   7.357  19.612 -0.9369  1.7469  0.4220
 2515TIP3    H231741   4.150   7.356  19.462 -0.2648 -1.8188  0.2876
 2516TIP3   OH231742   1.599   3.102  19.068  0.4002  0.6189 -0.1195
 2516TIP3    H131743   1.521   3.158  19.078  1.3903  1.8680  1.0491
 2516TIP3    H231744   1.602   3.083  18.974 -1.9429 -0.4517 -0.0559
 2517TIP3   OH231745   7.383   4.733  17.858  0.1670 -0.2351 -0.1495
 2517TIP3    H131746   7.475   4.758  17.858  0.5957 -1.7178 -0.9378
 2517TIP3    H231747   7.357   4.732  17.766 -1.1010  1.6339  0.1248
 2518TIP3   OH231748   5.903   6.692  18.947 -0.3233  0.0287 -0.0132
 2518TIP3    H131749   5.926   6.781  18.918 -2.5657  0.0611 -1.9296
 2518TIP3    H231750   5.807   6.691  18.947 -0.4156 -2.9076 -1.9149
 2519TIP3   OH231751   5.639   2.568  18.741  0.5450  0.5908 -0.1154
 2519TIP3    H131752   5.564   2.518  18.773  1.5746  0.1907  1.8262
 2519TIP3    H231753   5.601   2.641  18.694 -1.0300 -0.5180 -0.6468
 2520TIP3   OH231754   4.747   1.132  19.784  0.0700 -0.1523 -0.5648
 2520TIP3    H131755   4.708   1.130  19.697 -1.0515  0.7885 -0.1037
 2520TIP3    H231756   4.748   1.225  19.808 -1.3943 -0.5358  1.1764
 2521TIP3   OH231757   1.812   6.262  17.636  0.5870  0.1030  0.6510
 2521TIP3    H131758   1.844   6.318  17.707  1.0581  0.1957  0.3677
 2521TIP3    H231759   1.791   6.179  17.680  0.5846  0.2605  0.9505
 2522TIP3   OH231760   4.043   2.419  19.632 -0.3182  0.1609 -0.4513
 2522TIP3    H131761   4.080   2.428  19.720  0.6432 -1.6480 -0.6036
 2522TIP3    H231762   3.953   2.449  19.640 -0.4296 -0.5240  1.3206
 2523TIP3   OH231763   0.881   3.526  17.521 -0.7379  0.0957  0.1887
 2523TIP3    H131764   0.950   3.518  17.587 -2.1959  4.7283  2.6609
 2523TIP3    H231765   0.928   3.541  17.439  1.0975 -2.0751  0.7434
 2524TIP3   OH231766   0.992   3.935  19.878 -0.8893  0.2567 -0.1916
 2524TIP3    H131767   1.018   3.904  19.791 -0.4827  0.8428 -0.2868
 2524TIP3    H231768   1.070   3.980  19.911 -1.6483  1.7195 -0.3186
 2525TIP3   OH231769   3.961   0.846  18.409 -0.2926  0.1688 -0.4398
 2525TIP3    H131770   3.959   0.849  18.505  0.8564  1.0571 -0.4225
 2525TIP3    H231771   3.984   0.756  18.389  2.4433  0.6237  0.2378
 2526TIP3   OH231772   5.211   4.502  17.539  0.7406 -0.6285  0.2138
 2526TIP3    H131773   5.230   4.588  17.502 -1.9320 -0.2454 -0.4918
 2526TIP3    H231774   5.241   4.507  17.629  0.2921  1.2161  0.2996
 2527TIP3   OH231775   2.038   4.383  18.790  0.2159  0.8576  0.6706
 2527TIP3    H131776   1.997   4.427  18.864  0.1723 -0.8371  1.7092
 2527TIP3    H231777   2.065   4.297  18.824 -0.7015 -0.3978 -1.4964
 2528TIP3   OH231778   2.005   5.661  17.869 -0.3466 -0.5380  0.2645
 2528TIP3    H131779   1.949   5.735  17.843  0.5882  0.8603  1.9894
 2528TIP3    H231780   2.060   5.696  17.939  2.5383 -1.9081 -1.1385
 2529TIP3   OH231781   1.395   2.532  19.736 -0.2229  0.2914  0.2648
 2529TIP3    H131782   1.330   2.466  19.715 -0.7029  1.0754 -0.7938
 2529TIP3    H231783   1.355   2.585  19.805 -0.0024 -0.2694  0.8258
 2530TIP3   OH231784   5.710   2.140  17.989 -0.3694  0.2976  0.2034
 2530TIP3    H131785   5.721   2.107  18.079  0.5676  1.0637  0.3787
 2530TIP3    H231786   5.616   2.155  17.981 -0.9794 -2.8783 -0.0666
 2531TIP3   OH231787   6.306   7.664  17.498  0.0336 -0.0415 -0.8774
 2531TIP3    H131788   6.265   7.588  17.541  0.1305 -0.5744 -1.7104
 2531TIP3    H231789   6.397   7.661  17.527  0.1666 -0.5677 -1.3433
 2532TIP3   OH231790   3.342   3.363  19.232  0.0553  0.4998 -0.0258
 2532TIP3    H131791   3.418   3.387  19.179  0.8083 -1.2184  0.2105
 2532TIP3    H231792   3.268   3.370  19.172  0.1442  3.3769  0.0538
 2533TIP3   OH231793   1.359   0.057  18.564  0.0043 -0.1805 -0.9881
 2533TIP3    H131794   1.296   0.118  18.603  2.5202  1.8808  0.1283
 2533TIP3    H231795   1.334   0.053  18.472 -2.4157 -0.3911 -0.4106
 2534TIP3   OH231796   3.360   6.080  17.814 -0.9373  0.4698  0.0589
 2534TIP3    H131797   3.318   6.142  17.874 -1.7499  0.2162 -0.2331
 2534TIP3    H231798   3.290   6.021  17.787 -0.5608  0.4975 -1.0431
 2535TIP3   OH231799   2.463   6.584  19.382  0.0062 -0.3547 -0.2262
 2535TIP3    H131800   2.505   6.621  19.304  0.6464  0.0970  0.3279
 2535TIP3    H231801   2.480   6.647  19.451  1.9296 -2.0687  0.9852
 2536TIP3   OH231802   6.715   5.547  18.576  0.1768 -0.1278 -0.4076
 2536TIP3    H131803   6.656   5.573  18.647 -1.8120 -2.7745 -0.9491
 2536TIP3    H231804   6.704   5.614  18.509 -0.5427  0.5889  0.4044
 2537TIP3   OH231805   4.330   1.995  17.522  0.0941  0.2736  0.6190
 2537TIP3    H131806   4.309   1.916  17.471  0.5629 -0.8768  2.1338
 2537TIP3    H231807   4.288   2.066  17.473  0.5137 -0.7429 -1.3577
 2538TIP3   OH231808   2.444   6.707  19.062 -0.2125 -0.1037  0.1802
 2538TIP3    H131809   2.388   6.785  19.065 -0.2503 -0.0728 -0.8716
 2538TIP3    H231810   2.394   6.645  19.008 -0.3001 -0.9613  1.2175
 2539TIP3   OH231811   4.797   2.028  16.812  0.0478  0.0351  0.4933
 2539TIP3    H131812   4.845   1.979  16.745  0.7563  1.9570 -0.4673
 2539TIP3    H231813   4.858   2.035  16.885  0.5987  0.9283 -0.0345
 2540TIP3   OH231814   4.740   7.446  19.529  0.2807 -0.2666  0.2957
 2540TIP3    H131815   4.739   7.452  19.624 -1.8239 -0.1638  0.3091
 2540TIP3    H231816   4.681   7.515  19.500  0.0417 -0.9942 -1.0239
 2541TIP3   OH231817   4.712   6.059  18.861 -0.0193 -0.0401 -0.0606
 2541TIP3    H131818   4.808   6.065  18.864 -0.0027  0.5664 -1.2099
 2541TIP3    H231819   4.690   6.073  18.769 -1.3316  1.7892  0.4786
 2542TIP3   OH231820   3.861   0.135  17.985 -0.2628  0.2753  0.3915
 2542TIP3    H131821   3.922   0.083  18.038 -0.2591 -0.3314 -0.1998
 2542TIP3    H231822   3.917   0.198  17.940 -0.3761  1.5470  1.9294
 2543TIP3   OH231823   3.107   4.584  17.002 -0.0783 -0.8402 -0.1496
 2543TIP3    H131824   3.197   4.560  17.026  0.3459  0.1220 -0.7234
 2543TIP3    H231825   3.103   4.569  16.907  0.2543  1.4131 -0.5665
 2544TIP3   OH231826   1.070   4.759  19.187 -0.4097 -0.1728  0.2087
 2544TIP3    H131827   0.982   4.784  19.213 -0.3820 -0.4997  0.6255
 2544TIP3    H231828   1.123   4.837  19.203 -0.4848 -0.2146  0.6733
 2545TIP3   OH231829   6.252   0.567  17.931  0.2642  0.1959  0.1863
 2545TIP3    H131830   6.333   0.594  17.886  0.9166 -2.3013 -0.3112
 2545TIP3    H231831   6.282   0.526  18.012 -0.3797 -1.8031 -0.5408
 2546TIP3   OH231832   6.224   0.412  17.076 -0.5375 -0.3453 -0.0498
 2546TIP3    H131833   6.308   0.413  17.030 -0.1856 -1.4375  0.5376
 2546TIP3    H231834   6.225   0.492  17.129  0.7924 -1.0574  1.0658
 2547TIP3   OH231835   3.761   2.002  19.354 -0.2359 -0.2310  0.4430
 2547TIP3    H131836   3.839   1.966  19.313  1.5131  1.0404  2.4522
 2547TIP3    H231837   3.730   2.070  19.293  1.4517  0.6409  0.5039
 2548TIP3   OH231838   3.573   6.742  19.047 -0.4122  0.6303 -0.1118
 2548TIP3    H131839   3.629   6.792  18.988 -1.1000  1.8527  0.2294
 2548TIP3    H231840   3.490   6.734  19.000 -0.0629 -0.9819 -0.5269
 2549TIP3   OH231841   3.144   5.340  19.375 -0.2174  0.2306  0.3456
 2549TIP3    H131842   3.120   5.409  19.313 -1.8827 -1.5928 -1.1869
 2549TIP3    H231843   3.102   5.365  19.457  0.8634  1.9805  0.4189
 2550TIP3   OH231844   5.757   0.224  18.843 -0.5732 -0.1451  0.7892
 2550TIP3    H131845   5.723   0.250  18.929 -1.1488 -0.2692  0.6022
 2550TIP3    H231846   5.738   0.300  18.787  2.8676  1.4489  1.4892
 2551TIP3   OH231847   1.023   5.191  19.660 -0.4987 -0.2173  0.5684
 2551TIP3    H131848   0.996   5.277  19.630 -0.3819 -0.3590  0.0483
 2551TIP3    H231849   1.076   5.209  19.738 -0.4534  0.1830  0.4498
 2552TIP3   OH231850   2.841   5.796  19.797 -0.3691 -0.3421  0.0837
 2552TIP3    H131851   2.804   5.742  19.867 -1.6732 -1.8578 -1.6673
 2552TIP3    H231852   2.765   5.835  19.754  0.3414 -0.0322 -0.9317
 2553TIP3   OH231853   3.264   3.887  17.137  0.8933  0.3047  0.0236
 2553TIP3    H131854   3.173   3.900  17.163  1.3162  0.5921  1.4533
 2553TIP3    H231855   3.305   3.844  17.211  1.4852 -1.7705 -1.4144
 2554TIP3   OH231856   1.489   0.629  18.654  0.1776  0.6158 -0.3628
 2554TIP3    H131857   1.526   0.604  18.739 -0.7877  0.1254 -0.0668
 2554TIP3    H231858   1.547   0.591  18.589 -1.4205 -2.8761  0.0356
 2555TIP3   OH231859   5.763   1.289  18.698 -0.3629 -0.3819  0.1251
 2555TIP3    H131860   5.793   1.339  18.622 -1.8289 -1.2315 -1.0668
 2555TIP3    H231861   5.820   1.317  18.770  0.5185  1.0577 -1.0910
 2556TIP3   OH231862   4.995   4.737  17.516 -0.2901 -0.9702 -0.2531
 2556TIP3    H131863   4.945   4.672  17.467  1.0459 -2.5341  0.3661
 2556TIP3    H231864   5.032   4.794  17.449  0.0390 -1.9917 -0.9725
 2557TIP3   OH231865   1.417   1.145  19.354 -0.2261 -0.3359  0.2335
 2557TIP3    H131866   1.357   1.072  19.369 -0.4531 -0.2757 -0.3819
 2557TIP3    H231867   1.397   1.176  19.266  0.9419 -0.5344 -0.1173
 2558TIP3   OH231868   2.927   1.207  18.188 -0.3143  0.4678  0.7355
 2558TIP3    H131869   2.964   1.119  18.202 -1.1759 -0.3123 -1.4275
 2558TIP3    H231870   2.960   1.233  18.102 -0.3476  2.1641  1.2061
 2559TIP3   OH231871   5.668   6.221  19.251 -0.2032 -0.1116  0.2034
 2559TIP3    H131872   5.601   6.252  19.311  0.3458  1.2270  0.1560
 2559TIP3    H231873   5.632   6.140  19.214 -1.4948  0.2346  0.6577
 2560TIP3   OH231874   3.997   6.673  17.691 -0.7905  0.0355 -0.4487
 2560TIP3    H131875   3.928   6.679  17.625 -0.3650  0.8063 -0.8381
 2560TIP3    H231876   3.954   6.697  17.773 -1.1435 -0.1596 -0.5746
 2561TIP3   OH231877   5.643   6.722  18.877  0.1629  0.4128  0.4623
 2561TIP3    H131878   5.566   6.776  18.857 -1.8463 -2.4266 -0.1921
 2561TIP3    H231879   5.686   6.710  18.792 -0.3753 -0.3285  0.2806
 2562TIP3   OH231880   1.883   2.610  18.613  0.2977  0.0564  0.1270
 2562TIP3    H131881   1.807   2.656  18.650 -0.3276 -0.5389 -0.3829
 2562TIP3    H231882   1.912   2.551  18.683  0.5931  0.6229  0.4896
 2563TIP3   OH231883   1.596   4.557  19.036  0.2082  0.2671 -0.0340
 2563TIP3    H131884   1.588   4.652  19.039 -3.4085  0.2113 -1.8206
 2563TIP3    H231885   1.603   4.530  19.127 -1.4739  2.1570  0.7352
 2564TIP3   OH231886   7.625   5.738  18.697 -0.1472 -0.3306  0.2265
 2564TIP3    H131887   7.581   5.662  18.736 -1.0685  0.6314  1.1284
 2564TIP3    H231888   7.703   5.751  18.752  0.2169 -0.8497 -0.1634
 2565TIP3   OH231889   3.404   0.832  18.748 -0.1043  0.1641  0.3285
 2565TIP3    H131890   3.474   0.825  18.684 -0.1415  1.1420  0.1672
 2565TIP3    H231891   3.444   0.801  18.830  0.7739  1.4449  0.4124
 2566TIP3   OH231892   2.961   2.732  20.041 -0.2879 -0.2488  0.3411
 2566TIP3    H131893   2.969   2.708  20.133 -1.0217  0.4691  0.5975
 2566TIP3    H231894   3.007   2.661  19.995 -0.8363 -1.1867  1.1868
 2567TIP3   OH231895   5.534   4.316  16.993 -0.3931 -0.7801 -0.0943
 2567TIP3    H131896   5.554   4.403  16.959 -0.2213 -0.5375  0.6018
 2567TIP3    H231897   5.535   4.259  16.917 -2.6264  0.1735 -0.9245
 2568TIP3   OH231898   7.300   3.216  17.775 -0.0891 -0.6023 -0.1451
 2568TIP3    H131899   7.335   3.216  17.686  1.5558 -2.5588  0.4078
 2568TIP3    H231900   7.257   3.131  17.784  0.4516 -0.7667  1.1534
 2569TIP3   OH231901   4.813   5.536  19.518 -0.8137 -0.3858 -0.1809
 2569TIP3    H131902   4.810   5.441  19.503  0.2842 -0.3865 -0.4770
 2569TIP3    H231903   4.854   5.545  19.604 -0.3812 -0.1623 -0.4102
 2570TIP3   OH231904   7.040   2.713  18.497  0.2121 -0.3410 -0.4364
 2570TIP3    H131905   7.132   2.733  18.513  0.2061 -1.4055  1.1448
 2570TIP3    H231906   6.993   2.790  18.530  0.4422 -0.6670  0.6851
 2571TIP3   OH231907   4.801   7.101  19.216 -0.5102  0.3420  0.2323
 2571TIP3    H131908   4.834   7.134  19.300  1.1576  1.4007 -0.7681
 2571TIP3    H231909   4.801   7.006  19.226 -1.5784  0.4765  1.8441
 2572TIP3   OH231910   7.082   5.298  18.431 -0.6487  0.6850 -0.2356
 2572TIP3    H131911   6.998   5.294  18.476 -0.3901  2.1466  0.4607
 2572TIP3    H231912   7.145   5.263  18.495 -0.6716 -0.0656 -0.6183
 2573TIP3   OH231913   2.330   2.797  19.762 -0.1138 -0.5376  0.1314
 2573TIP3    H131914   2.339   2.702  19.766  0.5717 -0.4385  1.7157
 2573TIP3    H231915   2.385   2.829  19.834 -1.2534  0.9950  0.3570
 2574TIP3   OH231916   7.486   1.542  19.029 -0.2308 -0.4515 -0.0846
 2574TIP3    H131917   7.579   1.521  19.028 -0.2355 -0.6761  1.6757
 2574TIP3    H231918   7.446   1.474  19.082 -0.7186  1.9328  2.9110
 2575TIP3   OH231919   3.687   4.759  18.279 -0.0876 -0.0204  0.6255
 2575TIP3    H131920   3.604   4.726  18.245  0.8948  0.3849 -2.4979
 2575TIP3    H231921   3.744   4.682  18.279  0.6051  0.4341 -1.1924
 2576TIP3   OH231922   3.069   6.235  18.235  0.3910  0.7020  0.2828
 2576TIP3    H131923   3.059   6.181  18.157  0.4579 -0.3779  0.9869
 2576TIP3    H231924   3.041   6.322  18.209 -0.4760  0.1523 -0.6948
 2577TIP3   OH231925   0.987   7.400  19.143 -0.0372 -0.1560  0.7644
 2577TIP3    H131926   0.940   7.375  19.062  0.2279  0.7004  0.3360
 2577TIP3    H231927   1.038   7.322  19.165  0.5869 -0.1076 -0.4071
 2578TIP3   OH231928   2.970   5.506  18.261  0.1255 -0.3844  0.2050
 2578TIP3    H131929   3.019   5.547  18.190 -1.1065  0.8192  0.0146
 2578TIP3    H231930   3.009   5.419  18.270  0.4138 -0.5187 -1.8555
 2579TIP3   OH231931   6.921   5.451  17.903 -0.2327  0.1780  0.3102
 2579TIP3    H131932   6.874   5.367  17.897 -1.6177  0.8568  1.2368
 2579TIP3    H231933   7.013   5.427  17.890 -0.4868 -1.6126  1.3764
 2580TIP3   OH231934   3.157   6.239  19.569 -0.0864  0.2907  0.2836
 2580TIP3    H131935   3.124   6.292  19.641  1.4883 -1.4049  2.3723
 2580TIP3    H231936   3.079   6.196  19.534 -0.9821  1.7378  0.4307
 2581TIP3   OH231937   4.798   5.835  17.404  0.4287 -0.4103  0.0969
 2581TIP3    H131938   4.879   5.787  17.414  1.5255  1.0100 -1.5052
 2581TIP3    H231939   4.733   5.782  17.450  2.2830 -1.4228  1.7048
 2582TIP3   OH231940   2.256   7.597  17.201  0.3285 -0.2810 -0.6777
 2582TIP3    H131941   2.171   7.577  17.162 -0.1747 -0.9914  0.7511
 2582TIP3    H231942   2.245   7.581  17.294  1.8273  0.3344 -0.3626
 2583TIP3   OH231943   1.687   4.420  18.151 -0.1330 -0.0938 -0.3112
 2583TIP3    H131944   1.650   4.384  18.070 -2.2254  0.4412  0.3487
 2583TIP3    H231945   1.637   4.499  18.167  0.7819  0.2267  1.1141
 2584TIP3   OH231946   3.636   4.571  19.781 -0.5094  0.0083 -0.2465
 2584TIP3    H131947   3.542   4.556  19.771 -0.7242  0.5405  0.7995
 2584TIP3    H231948   3.669   4.492  19.822 -0.5753 -0.0246 -0.2567
 2585TIP3   OH231949   1.839   1.712  20.038  0.2645  0.1547 -0.1189
 2585TIP3    H131950   1.830   1.629  19.992 -1.0472  0.7006 -0.9132
 2585TIP3    H231951   1.758   1.721  20.088  0.4412  0.8979  0.0508
 2586TIP3   OH231952   7.233   0.483  18.722  0.0547  0.1275 -0.3101
 2586TIP3    H131953   7.259   0.410  18.778  0.5280  1.0051  0.6446
 2586TIP3    H231954   7.192   0.545  18.782 -0.1131  0.7528 -1.0642
 2587TIP3   OH231955   0.490   4.138  19.129  0.3676  0.0323  0.3051
 2587TIP3    H131956   0.522   4.212  19.180 -1.0260  0.9147 -0.0474
 2587TIP3    H231957   0.447   4.178  19.053 -0.0787 -1.1504 -0.0901
 2588TIP3   OH231958   0.418   4.277  18.911 -0.3457 -0.2289  0.7042
 2588TIP3    H131959   0.326   4.284  18.885 -0.3983  1.2042  1.1950
 2588TIP3    H231960   0.449   4.367  18.917  1.9916 -0.6430 -2.3986
 2589TIP3   OH231961   0.499   0.217  16.982 -0.2296  0.4282  0.3402
 2589TIP3    H131962   0.546   0.155  17.038 -1.4558  0.8547  1.8902
 2589TIP3    H231963   0.407   0.193  16.990 -0.7472  2.4585  1.0095
 2590TIP3   OH231964   3.995   7.645  19.597  0.1965  0.0863 -0.1457
 2590TIP3    H131965   4.033   7.559  19.577  0.6405  0.1533  0.4155
 2590TIP3    H231966   3.900   7.629  19.597  0.3107 -0.8960  2.1304
 2591TIP3   OH231967   2.696   6.814  17.505 -0.0052  0.0965  0.3732
 2591TIP3    H131968   2.788   6.791  17.517  0.0841 -0.2958 -0.9794
 2591TIP3    H231969   2.697   6.886  17.442 -0.7193 -1.1324 -1.0739
 2592TIP3   OH231970   5.143   5.887  17.631 -0.2048  0.0689  0.3749
 2592TIP3    H131971   5.226   5.846  17.655 -0.1445 -0.8291 -1.2904
 2592TIP3    H231972   5.157   5.922  17.543 -1.1213  1.2889  0.6823
 2593TIP3   OH231973   1.356   6.618  17.547 -0.1870 -0.0249  0.5358
 2593TIP3    H131974   1.307   6.631  17.628 -0.0514 -0.3751  0.6780
 2593TIP3    H231975   1.441   6.660  17.564  0.6033 -1.8305  1.3514
 2594TIP3   OH231976   6.924   4.698  19.056  0.4005 -0.1826  0.0051
 2594TIP3    H131977   7.019   4.693  19.071  0.4743 -1.9482 -0.8385
 2594TIP3    H231978   6.913   4.673  18.964 -0.8383  0.8481 -0.1587
 2595TIP3   OH231979   2.242   2.891  19.144  0.0726 -0.1048  0.6652
 2595TIP3    H131980   2.318   2.851  19.187  0.0814  2.5341  3.4341
 2595TIP3    H231981   2.180   2.908  19.215 -1.5461  1.2132 -0.9637
 2596TIP3   OH231982   6.079   1.195  17.955 -0.0955 -1.0082  0.5146
 2596TIP3    H131983   6.028   1.205  17.874 -0.6145 -0.7621  0.8636
 2596TIP3    H231984   6.170   1.189  17.926 -0.1592  0.3180 -0.0283
 2597TIP3   OH231985   4.277   4.160  19.082 -0.6617 -0.5164 -0.7300
 2597TIP3    H131986   4.241   4.225  19.021 -0.5416 -0.3727 -0.6492
 2597TIP3    H231987   4.300   4.086  19.027  1.2076  0.3256 -1.1493
 2598TIP3   OH231988   7.063   7.313  18.039  0.2082  0.0701 -0.3217
 2598TIP3    H131989   7.015   7.383  18.084 -1.5515 -2.0656  1.3575
 2598TIP3    H231990   7.154   7.324  18.069 -0.5185  0.0219  2.1549
 2599TIP3   OH231991   4.597   1.674  19.657 -0.1252 -0.4096 -0.5273
 2599TIP3    H131992   4.650   1.753  19.668 -0.6633  0.1899 -1.9874
 2599TIP3    H231993   4.660   1.606  19.635  0.2590 -0.2098 -0.0742
 2600TIP3   OH231994   7.376   1.827  18.157  0.6636 -0.2995 -0.0163
 2600TIP3    H131995   7.395   1.875  18.237  0.6289 -1.5301  0.7572
 2600TIP3    H231996   7.296   1.868  18.123 -1.0526 -1.6312  2.1889
 2601TIP3   OH231997   3.241   2.708  17.548  0.1314 -0.1680 -0.7715
 2601TIP3    H131998   3.284   2.623  17.543 -3.7261 -2.2987 -1.3979
 2601TIP3    H231999   3.247   2.743  17.459  1.5149  0.1703 -0.5700
 2602TIP3   OH232000   2.293   5.979  18.980 -0.1102  0.1705  0.4755
 2602TIP3    H132001   2.219   6.028  18.944 -0.6789 -2.0315 -1.5905
 2602TIP3    H232002   2.336   5.941  18.904  0.5729 -2.1422  1.9151
 2603TIP3   OH232003   1.222   7.569  19.026  0.1609 -0.0982  0.3479
 2603TIP3    H132004   1.164   7.612  18.963  1.8286  1.4594 -0.2180
 2603TIP3    H232005   1.170   7.497  19.062 -1.6786  0.4953 -0.9894
 2604TIP3   OH232006   5.016   5.730  18.349 -0.2080  0.5928  0.1812
 2604TIP3    H132007   5.013   5.749  18.255  1.3513  1.1509  0.2131
 2604TIP3    H232008   4.925   5.710  18.373 -0.4029 -1.2544 -1.7733
 2605TIP3   OH232009   7.346   7.365  18.191 -0.1168  0.2621 -0.1961
 2605TIP3    H132010   7.351   7.419  18.270 -0.3732 -0.7959  0.5731
 2605TIP3    H232011   7.318   7.279  18.223  0.8702 -0.5021 -1.3034
 2606TIP3   OH232012   2.555   1.686  18.451  0.1002  0.2085  0.1331
 2606TIP3    H132013   2.632   1.636  18.479 -1.7550 -3.2486 -0.3737
 2606TIP3    H232014   2.480   1.638  18.488 -1.9168  3.9845  1.5222
 2607TIP3   OH232015   4.283   7.497  17.185  0.2810  0.3332  0.0895
 2607TIP3    H132016   4.358   7.468  17.237 -0.9246 -0.3353  1.5582
 2607TIP3    H232017   4.238   7.416  17.160  0.7521  0.6542 -1.9372
 2608TIP3   OH232018   5.874   6.433  18.865  0.2087 -0.3817 -0.5084
 2608TIP3    H132019   5.780   6.417  18.858  0.2261 -0.0165 -1.7294
 2608TIP3    H232020   5.883   6.528  18.869  0.4698 -0.4421  0.8212
 2609TIP3   OH232021   5.974   0.900  19.826  0.9398  0.1672 -0.5395
 2609TIP3    H132022   5.917   0.935  19.758  1.3287 -1.4012 -1.7283
 2609TIP3    H232023   6.057   0.945  19.813  0.4112  1.4429  0.3126
 2610TIP3   OH232024   5.147   4.132  19.335 -0.3298 -0.4446  0.0198
 2610TIP3    H132025   5.091   4.057  19.313  0.9758 -0.9827 -1.7524
 2610TIP3    H232026   5.150   4.133  19.430 -0.5810 -2.5202  0.0977
 2611TIP3   OH232027   7.557   6.703  18.674  0.5953  0.1649  0.4382
 2611TIP3    H132028   7.620   6.642  18.713 -1.7175 -3.2056 -0.5524
 2611TIP3    H232029   7.557   6.681  18.581  0.0203  2.1476 -0.0828
 2612TIP3   OH232030   1.875   4.510  18.961  0.1635  0.0547  0.5739
 2612TIP3    H132031   1.793   4.484  19.003  0.0221  0.5206  0.5971
 2612TIP3    H232032   1.855   4.595  18.920  0.3937 -0.2264 -0.1411
 2613TIP3   OH232033   1.268   6.998  19.571 -0.4753  0.2421  0.1256
 2613TIP3    H132034   1.233   7.066  19.512  0.4168  0.4537 -0.1759
 2613TIP3    H232035   1.313   7.047  19.640  1.1232 -0.0228 -0.6807
 2614TIP3   OH232036   5.824   0.194  18.108  0.1201  0.1927 -0.0884
 2614TIP3    H132037   5.764   0.121  18.121 -0.2939  0.5972  0.3062
 2614TIP3    H232038   5.848   0.189  18.015  0.4744 -0.7213  0.0357
 2615TIP3   OH232039   0.321   6.445  17.966  0.1306  0.1084 -0.7241
 2615TIP3    H132040   0.267   6.382  18.014  0.7960 -0.7936 -1.1426
 2615TIP3    H232041   0.331   6.519  18.026 -0.2713 -0.3789 -0.0499
 2616TIP3   OH232042   3.528   7.206  18.503 -0.2545  0.0839 -0.0155
 2616TIP3    H132043   3.565   7.168  18.424  0.2379  0.1089  0.1935
 2616TIP3    H232044   3.461   7.267  18.473 -1.0176 -0.8971 -0.3586
 2617TIP3   OH232045   4.646   4.088  18.215 -0.3894 -0.2759 -0.2234
 2617TIP3    H132046   4.694   4.161  18.175 -0.4639 -0.6817 -1.0481
 2617TIP3    H232047   4.636   4.115  18.307  0.6945  0.1884 -0.2233
 2618TIP3   OH232048   2.269   4.463  18.171 -0.4550 -0.1643 -0.0377
 2618TIP3    H132049   2.267   4.438  18.264 -0.9508 -0.4134 -0.1126
 2618TIP3    H232050   2.203   4.532  18.164  0.1204  0.3911 -0.0555
 2619TIP3   OH232051   4.372   6.482  19.430 -0.0354  0.6051 -0.3817
 2619TIP3    H132052   4.452   6.432  19.417  1.2823  2.7577 -1.1971
 2619TIP3    H232053   4.309   6.445  19.368  0.3824 -0.9453  0.0797
 2620TIP3   OH232054   2.767   0.576  17.570 -0.1030  0.0169  0.2858
 2620TIP3    H132055   2.786   0.669  17.560  2.8180 -0.7209 -3.0016
 2620TIP3    H232056   2.838   0.543  17.625 -0.5829 -0.4153  0.6544
 2621TIP3   OH232057   4.390   0.554  19.975  0.4563  0.5879  0.1036
 2621TIP3    H132058   4.466   0.580  19.923  1.8580  0.7880  2.1155
 2621TIP3    H232059   4.406   0.462  19.996  0.6071  0.8641  1.2571
 2622TIP3   OH232060   0.535   4.252  18.035 -0.1631  0.1610 -0.2937
 2622TIP3    H132061   0.469   4.246  18.104 -1.5909 -1.7108 -1.7135
 2622TIP3    H232062   0.530   4.343  18.005 -0.0510  0.7938  1.4982
 2623TIP3   OH232063   3.707   7.090  19.462  0.5255 -0.1318  0.2483
 2623TIP3    H132064   3.789   7.043  19.477  1.8409  2.2775  1.1825
 2623TIP3    H232065   3.664   7.091  19.547  0.6271  0.5198  0.2979
 2624TIP3   OH232066   5.512   5.453  18.525 -0.0824  0.2060 -0.2370
 2624TIP3    H132067   5.432   5.496  18.556 -0.9699 -1.2910 -0.3691
 2624TIP3    H232068   5.577   5.523  18.523 -0.8285  1.0215  1.8871
 2625TIP3   OH232069   0.690   4.558  17.937 -0.7419 -0.8329 -0.0842
 2625TIP3    H132070   0.602   4.520  17.943 -1.5565  0.8429 -0.7133
 2625TIP3    H232071   0.675   4.648  17.910  1.3170 -1.1833 -2.7647
 2626TIP3   OH232072   7.185   4.594  18.053  0.0861 -0.3050 -0.2112
 2626TIP3    H132073   7.200   4.638  17.969  1.6861 -0.0780  0.1625
 2626TIP3    H232074   7.107   4.637  18.088  0.1380  0.4778 -1.0101
 2627TIP3   OH232075   0.950   3.769  18.824 -0.3449  0.6962  0.7869
 2627TIP3    H132076   0.956   3.761  18.919  0.2275  1.2881  0.8036
 2627TIP3    H232077   1.030   3.813  18.798 -0.3533  0.2555 -0.0123
 2628TIP3   OH232078   4.353   1.196  17.717  0.0735 -0.1966 -0.9412
 2628TIP3    H132079   4.343   1.265  17.783 -0.2658 -0.0375 -1.1566
 2628TIP3    H232080   4.312   1.119  17.757 -2.6530  0.5641 -2.0012
 2629TIP3   OH232081   2.638   4.855  19.082 -0.3313  0.3188  0.2104
 2629TIP3    H132082   2.615   4.813  19.164  2.5481 -0.3499  0.7761
 2629TIP3    H232083   2.709   4.801  19.046  0.1237  1.9461 -1.5177
 2630TIP3   OH232084   2.585   0.872  17.334  0.0924  0.4257  1.0103
 2630TIP3    H132085   2.566   0.788  17.291 -0.4911  1.3746 -0.6687
 2630TIP3    H232086   2.666   0.856  17.382 -1.0410 -1.6522  2.3605
 2631TIP3   OH232087   0.288   1.157  19.184 -0.0035  0.1575 -0.2205
 2631TIP3    H132088   0.278   1.138  19.091  1.5052 -0.8295 -0.2230
 2631TIP3    H232089   0.324   1.076  19.221  0.3451  0.8534  1.0316
 2632TIP3   OH232090   4.909   3.161  17.663 -0.4287 -0.1516 -0.8203
 2632TIP3    H132091   4.986   3.135  17.612  0.1558 -0.1097  0.0363
 2632TIP3    H232092   4.837   3.112  17.623  0.0001 -0.0788 -1.7284
 2633TIP3   OH232093   6.129   1.246  18.692 -0.1797  0.0441  0.3226
 2633TIP3    H132094   6.169   1.330  18.714  1.7042 -0.7658  0.1619
 2633TIP3    H232095   6.194   1.202  18.637 -2.0582 -0.6326 -1.4651
 2634TIP3   OH232096   1.293   3.212  17.895 -0.5124 -0.1795 -0.0663
 2634TIP3    H132097   1.322   3.133  17.850 -0.3283 -1.0152  1.4623
 2634TIP3    H232098   1.374   3.251  17.930 -0.6819  0.2945 -0.1898
 2635TIP3   OH232099   6.125   2.811  16.789  0.4094 -0.4256 -0.5486
 2635TIP3    H132100   6.211   2.776  16.815  0.3813 -0.9451 -1.1545
 2635TIP3    H232101   6.145   2.878  16.724  0.4513  0.6043  0.4812
 2636TIP3   OH232102   4.358   4.568  17.718  0.1633 -0.2351 -0.4123
 2636TIP3    H132103   4.408   4.632  17.769  0.0857 -0.6673  0.2198
 2636TIP3    H232104   4.420   4.498  17.699  0.0462 -0.3370 -0.4262
 2637TIP3   OH232105   2.615   2.703  18.737 -0.3247 -0.4630 -0.1647
 2637TIP3    H132106   2.527   2.698  18.699  0.2961  1.6347 -2.0363
 2637TIP3    H232107   2.620   2.791  18.774  0.3389 -1.2597  1.7666
 2638TIP3   OH232108   5.465   6.122  18.262 -0.2782 -0.4120  0.5335
 2638TIP3    H132109   5.390   6.182  18.271  0.0035 -0.0881  0.7806
 2638TIP3    H232110   5.479   6.115  18.168 -0.4217 -0.2280  0.4983
 2639TIP3   OH232111   5.961   5.500  19.067  0.0055  0.1506 -0.0219
 2639TIP3    H132112   5.987   5.591  19.080  0.0344  0.4988 -2.2136
 2639TIP3    H232113   5.865   5.503  19.068 -0.0058  0.3558 -0.8525
 2640TIP3   OH232114   0.078   4.804  18.905 -0.0577 -0.1283 -0.0120
 2640TIP3    H132115   0.163   4.845  18.890  0.2114  0.5996  2.8127
 2640TIP3    H232116   0.099   4.712  18.924 -0.1669 -0.4750 -1.4582
 2641TIP3   OH232117   3.863   1.289  19.272 -0.3402  0.4128 -0.7538
 2641TIP3    H132118   3.959   1.281  19.275 -0.2283  1.7362  0.6847
 2641TIP3    H232119   3.844   1.321  19.184  0.3599 -1.4811 -1.6485
 2642TIP3   OH232120   0.981   2.037  19.992  0.4774 -0.4660  0.0267
 2642TIP3    H132121   1.044   2.048  20.063  1.0917 -2.3137 -0.1726
 2642TIP3    H232122   1.030   1.996  19.921 -0.6041 -0.5782 -0.6945
 2643TIP3   OH232123   5.853   3.445  19.167  0.0575  0.1720 -0.2978
 2643TIP3    H132124   5.897   3.519  19.209  0.6341  0.4661 -1.4041
 2643TIP3    H232125   5.890   3.368  19.211  0.5732  0.4763 -0.1952
 2644TIP3   OH232126   2.482   5.195  19.569 -0.0601 -0.6374 -0.1624
 2644TIP3    H132127   2.394   5.190  19.532 -0.8584  3.2667  0.6663
 2644TIP3    H232128   2.474   5.154  19.655 -1.6919  1.1971  0.6517
 2645TIP3   OH232129   5.222   4.150  16.965 -0.1507 -0.2972 -0.3869
 2645TIP3    H132130   5.203   4.215  16.898  0.1494  0.7305  0.4830
 2645TIP3    H232131   5.266   4.078  16.919  2.0351  1.3184 -0.9922
 2646TIP3   OH232132   6.589   4.972  18.065 -0.0363 -0.9150 -0.0872
 2646TIP3    H132133   6.510   4.918  18.073 -1.1585  0.4301 -1.4358
 2646TIP3    H232134   6.556   5.058  18.042  1.6911  0.4448  2.1445
 2647TIP3   OH232135   5.835   1.798  17.556  0.2565  0.4559 -0.1539
 2647TIP3    H132136   5.865   1.765  17.641  1.3060  0.5055 -0.4967
 2647TIP3    H232137   5.914   1.806  17.504 -0.4633 -0.4492 -1.4580
 2648TIP3   OH232138   3.271   2.358  19.590  0.2680  0.2414 -0.0541
 2648TIP3    H132139   3.179   2.334  19.573  0.4553 -0.3221 -0.3129
 2648TIP3    H232140   3.303   2.290  19.650  0.2506  0.9744  0.7998
 2649TIP3   OH232141   1.385   4.151  18.902  0.1544  0.5472 -0.3884
 2649TIP3    H132142   1.409   4.079  18.843  2.2839  0.8565  0.0372
 2649TIP3    H232143   1.290   4.146  18.907  0.2234 -2.4389 -0.1232
 2650TIP3   OH232144   4.587   7.441  19.238  0.0655  0.2670 -0.0431
 2650TIP3    H132145   4.664   7.386  19.253  1.4899  2.2985  0.5153
 2650TIP3    H232146   4.542   7.443  19.323 -0.9013 -1.2550 -0.4753
 2651TIP3   OH232147   7.658   0.631  18.008 -0.0696 -0.5275  0.1180
 2651TIP3    H132148   7.670   0.564  18.076 -0.9644 -1.7426 -0.8633
 2651TIP3    H232149   7.743   0.637  17.966  0.3433 -0.1662  0.9785
 2652TIP3   OH232150   2.726   0.067  17.647  0.1595  0.6280  0.5035
 2652TIP3    H132151   2.815   0.046  17.677  0.8452  2.6188  0.0577
 2652TIP3    H232152   2.706   0.150  17.690 -1.4466  0.2963  0.4621
 2653TIP3   OH232153   5.466   1.332  17.983  0.3101  0.3287 -0.6844
 2653TIP3    H132154   5.551   1.316  18.024  1.2169  0.6866 -2.3470
 2653TIP3    H232155   5.458   1.264  17.917 -0.0189  1.1540 -1.5233
 2654TIP3   OH232156   5.224   1.220  17.646  0.1747 -0.3404  0.5711
 2654TIP3    H132157   5.136   1.229  17.682  0.2304  0.1809  0.5941
 2654TIP3    H232158   5.228   1.130  17.613 -0.5812 -0.1857  0.0121
 2655TIP3   OH232159   4.251   2.357  18.326 -0.0721  0.5508  0.4363
 2655TIP3    H132160   4.160   2.368  18.351 -0.4134  1.3365 -1.0307
 2655TIP3    H232161   4.256   2.269  18.289 -0.6061  1.0375 -0.8542
 2656TIP3   OH232162   2.011   2.208  18.769  0.1923 -0.3011  0.2330
 2656TIP3    H132163   1.925   2.210  18.810 -0.3364  2.9566 -0.8028
 2656TIP3    H232164   2.070   2.247  18.835  0.2156  0.6043 -0.3110
 2657TIP3   OH232165   2.654   7.423  18.790  0.1419  0.3283 -0.3514
 2657TIP3    H132166   2.603   7.487  18.740 -1.4054 -0.3388  0.2877
 2657TIP3    H232167   2.745   7.448  18.775 -0.3632  1.7734 -1.2980
 2658TIP3   OH232168   7.553   6.031  19.405 -0.4229  0.5966  0.1841
 2658TIP3    H132169   7.471   6.041  19.357 -1.0178 -0.6531  0.8864
 2658TIP3    H232170   7.615   6.000  19.338 -0.7646  0.6248 -0.1509
 2659TIP3   OH232171   4.404   2.240  19.905 -0.0859 -0.6857  0.1387
 2659TIP3    H132172   4.462   2.164  19.909 -0.7867 -1.1763  2.4985
 2659TIP3    H232173   4.463   2.315  19.906  0.5942 -1.1944  1.5057
 2660TIP3   OH232174   1.274   4.473  18.150  0.1782  0.0053  0.1309
 2660TIP3    H132175   1.297   4.458  18.059  0.0797 -1.0969  0.2711
 2660TIP3    H232176   1.272   4.568  18.160 -1.7881  0.1903 -1.5155
 2661TIP3   OH232177   2.136   4.917  18.994 -0.0264  0.1895  0.1277
 2661TIP3    H132178   2.168   5.005  18.973  1.1679 -0.4964 -1.1048
 2661TIP3    H232179   2.208   4.875  19.041 -0.0904 -0.5274 -0.3918
 2662TIP3   OH232180   3.412   2.250  18.179  0.1970  0.5459  0.0608
 2662TIP3    H132181   3.373   2.327  18.138 -2.1289 -0.1836  0.7030
 2662TIP3    H232182   3.346   2.221  18.242  1.9824 -0.6582  1.4813
 2663TIP3   OH232183   0.614   3.837  18.383  0.0544 -0.1802 -0.2321
 2663TIP3    H132184   0.613   3.930  18.365  0.2447 -0.0525  0.3833
 2663TIP3    H232185   0.539   3.822  18.440  0.1572 -0.3586 -0.1392
 2664TIP3   OH232186   4.062   1.784  18.020  0.0268  0.5967  0.2748
 2664TIP3    H132187   4.097   1.870  18.043 -0.5138  0.7180  0.6543
 2664TIP3    H232188   3.991   1.769  18.082 -0.4568  0.2605 -0.3442
 2665TIP3   OH232189   2.987   3.931  17.096  0.6908 -0.3356 -0.1074
 2665TIP3    H132190   2.963   3.844  17.064  2.3114 -1.3761  1.3592
 2665TIP3    H232191   3.026   3.974  17.020 -0.9493 -0.4959 -1.0992
 2666TIP3   OH232192   0.779   1.461  17.371  0.2553  0.5743 -0.3314
 2666TIP3    H132193   0.803   1.391  17.311 -0.7302 -0.1398  0.0876
 2666TIP3    H232194   0.706   1.426  17.422 -0.2322  1.8821 -0.0771
 2667TIP3   OH232195   7.065   1.915  17.674  0.5603 -0.1359  0.1026
 2667TIP3    H132196   6.984   1.952  17.638 -0.2473 -0.5093  1.4476
 2667TIP3    H232197   7.125   1.911  17.600  0.4377  3.0813 -0.3129
 2668TIP3   OH232198   1.155   5.638  19.724  0.3082  0.2838  0.0803
 2668TIP3    H132199   1.187   5.725  19.699 -0.0175  0.6849  1.0011
 2668TIP3    H232200   1.076   5.655  19.775  1.1619 -0.4445  1.7435
 2669TIP3   OH232201   3.047   3.961  19.000 -0.4002  0.3506 -0.0352
 2669TIP3    H132202   3.071   3.995  18.913  1.4355  1.4813  0.8596
 2669TIP3    H232203   2.973   3.903  18.983  0.2998  0.0445 -2.4553
 2670TIP3   OH232204   3.852   0.310  18.377 -0.1754  0.6559  0.3208
 2670TIP3    H132205   3.939   0.301  18.418 -0.1409 -2.4085 -0.1927
 2670TIP3    H232206   3.803   0.235  18.410 -1.9445  1.1529 -1.0590
 2671TIP3   OH232207   0.592   0.084  17.370 -0.6245  0.3446  0.0716
 2671TIP3    H132208   0.638   0.091  17.286 -1.4907  0.5822 -0.3938
 2671TIP3    H232209   0.502   0.066  17.347 -0.8148  0.0727  0.9720
 2672TIP3   OH232210   7.444   1.985  18.372 -0.4346 -0.0075  0.1737
 2672TIP3    H132211   7.517   1.967  18.431  0.8123 -0.7358 -1.5043
 2672TIP3    H232212   7.465   2.070  18.334 -0.1918 -0.4235 -0.6498
 2673TIP3   OH232213   5.736   2.773  17.756  0.4877 -0.3587 -0.3489
 2673TIP3    H132214   5.803   2.739  17.697  0.7910 -0.5191  0.0889
 2673TIP3    H232215   5.659   2.721  17.737 -0.2387  1.3171 -2.5227
 2674TIP3   OH232216   7.180   2.598  19.664 -0.3458 -0.3549  0.5442
 2674TIP3    H132217   7.148   2.583  19.575  0.9533 -0.2305  0.0432
 2674TIP3    H232218   7.111   2.650  19.706 -0.3399  0.8060 -0.8211
 2675TIP3   OH232219   7.065   6.284  19.451 -0.8151 -0.1028  0.0986
 2675TIP3    H132220   7.108   6.220  19.394 -2.0963 -0.0180 -0.9942
 2675TIP3    H232221   7.041   6.356  19.393 -1.2231  0.4585  0.9447
 2676TIP3   OH232222   0.725   0.257  18.600 -0.0748  1.0702  0.2404
 2676TIP3    H132223   0.740   0.163  18.610  2.7393  0.8833 -3.5626
 2676TIP3    H232224   0.644   0.263  18.549 -0.2997  0.7196  0.5511
 2677TIP3   OH232225   0.390   3.478  19.109  0.0629  0.3238  0.2779
 2677TIP3    H132226   0.406   3.427  19.189  1.5830  0.8457  0.3359
 2677TIP3    H232227   0.385   3.569  19.140  0.1731  0.4790 -0.1641
 2678TIP3   OH232228   5.654   3.536  17.794 -0.1566 -0.4897  0.4087
 2678TIP3    H132229   5.572   3.577  17.764 -0.1619 -1.9383 -1.8386
 2678TIP3    H232230   5.670   3.467  17.730  3.3566  0.3530  0.1992
 2679TIP3   OH232231   3.619   2.690  17.537 -0.1037 -0.2319 -0.2008
 2679TIP3    H132232   3.700   2.696  17.587  0.3681 -0.8873 -0.8563
 2679TIP3    H232233   3.616   2.769  17.484  1.0211 -0.9987 -1.4749
 2680TIP3   OH232234   5.392   2.743  17.510 -0.1393 -1.0068 -0.3768
 2680TIP3    H132235   5.419   2.794  17.434  0.3216 -2.2627 -1.0824
 2680TIP3    H232236   5.364   2.659  17.475 -0.9865 -1.2269  0.7500
 2681TIP3   OH232237   3.771   6.098  19.161  0.1028 -0.1427  0.2170
 2681TIP3    H132238   3.863   6.077  19.144  0.4287  1.9762 -1.0464
 2681TIP3    H232239   3.722   6.029  19.117  1.0973 -0.0701 -1.0756
 2682TIP3   OH232240   3.085   2.240  19.165 -0.2890  0.0768  0.0170
 2682TIP3    H132241   3.056   2.162  19.214  2.8230 -0.3986  1.3517
 2682TIP3    H232242   3.011   2.261  19.108 -2.3387 -2.1594  1.6147
 2683TIP3   OH232243   1.020   5.699  17.866  0.4111  0.2641 -0.5271
 2683TIP3    H132244   1.096   5.739  17.908  0.5769 -1.0182  0.4424
 2683TIP3    H232245   1.053   5.667  17.782  0.6078  0.8658 -0.6869
 2684TIP3   OH232246   2.101   2.423  19.457  0.3786  0.1323 -0.1885
 2684TIP3    H132247   2.162   2.495  19.445  1.5657 -1.2125 -2.8982
 2684TIP3    H232248   2.035   2.458  19.518  1.2920  3.2117 -0.8045
 2685TIP3   OH232249   3.481   4.640  16.895  0.1358  0.5182 -0.0301
 2685TIP3    H132250   3.447   4.601  16.975 -0.3030  1.3663  0.2141
 2685TIP3    H232251   3.534   4.713  16.925 -1.0279  1.6122 -0.5251
 2686TIP3   OH232252   2.052   1.598  19.028 -0.3557 -0.2017  0.4557
 2686TIP3    H132253   2.135   1.550  19.032 -0.4745 -0.3856  0.7819
 2686TIP3    H232254   2.014   1.587  19.115  0.0403  1.2424  0.8330
 2687TIP3   OH232255   6.452   3.330  19.933  0.1039 -0.2064  0.5784
 2687TIP3    H132256   6.522   3.395  19.931  0.8161 -0.9388  1.1806
 2687TIP3    H232257   6.412   3.336  19.846  2.1758 -1.1321 -0.5031
 2688TIP3   OH232258   5.817   6.783  18.060  0.6218  0.3615  0.1093
 2688TIP3    H132259   5.756   6.836  18.112  1.0750  0.9629  0.0347
 2688TIP3    H232260   5.772   6.699  18.048 -0.9370  1.3265 -1.3374
 2689TIP3   OH232261   4.493   5.688  19.059  0.2566 -0.1430  0.6126
 2689TIP3    H132262   4.576   5.641  19.046  0.3992  0.3461 -0.4194
 2689TIP3    H232263   4.519   5.772  19.095  0.0284 -0.7134  2.1611
 2690TIP3   OH232264   3.703   4.168  19.251 -0.2040  0.3612 -0.3566
 2690TIP3    H132265   3.646   4.137  19.180 -0.4892  1.4151 -0.5966
 2690TIP3    H232266   3.663   4.132  19.330  0.8609 -1.9509 -0.7814
 2691TIP3   OH232267   7.154   2.868  19.819 -0.0307 -0.2005 -0.1139
 2691TIP3    H132268   7.131   2.959  19.799 -2.3248 -0.4363  1.1035
 2691TIP3    H232269   7.088   2.840  19.883  1.1603 -2.4486  0.2340
 2692TIP3   OH232270   4.910   1.202  18.948 -0.2065 -0.4295  0.1518
 2692TIP3    H132271   4.846   1.273  18.943  0.9884  0.6085 -3.0094
 2692TIP3    H232272   4.857   1.122  18.956 -1.7081  0.5644  0.5301
 2693TIP3   OH232273   2.893   3.415  19.812 -0.2624  0.7114 -0.4543
 2693TIP3    H132274   2.931   3.455  19.733 -0.9261  0.4046 -0.9303
 2693TIP3    H232275   2.800   3.407  19.793 -0.2335 -0.5055 -0.1177
 2694TIP3   OH232276   1.516   0.142  19.018  0.8761  0.5879 -0.3819
 2694TIP3    H132277   1.431   0.179  18.995  0.7630 -0.0395 -1.0051
 2694TIP3    H232278   1.525   0.159  19.111 -1.0020 -1.3833  0.2497
 2695TIP3   OH232279   7.330   4.181  18.741 -0.1567 -0.0384  0.1387
 2695TIP3    H132280   7.301   4.096  18.709  0.1050  0.1186 -0.5175
 2695TIP3    H232281   7.347   4.167  18.835 -1.1260 -0.4458  0.2679
 2696TIP3   OH232282   6.855   5.707  18.001 -0.3249 -0.0212 -0.6359
 2696TIP3    H132283   6.791   5.696  18.071  0.1857 -0.2128 -0.1949
 2696TIP3    H232284   6.882   5.617  17.979  0.1925  0.0852 -0.4424
 2697TIP3   OH232285   4.090   1.517  19.094  0.0471 -0.0314 -0.1696
 2697TIP3    H132286   4.169   1.465  19.079 -1.0689 -1.0649 -2.9239
 2697TIP3    H232287   4.019   1.464  19.060 -1.9018  0.9145  2.1581
 2698TIP3   OH232288   6.725   4.625  19.214  0.5314  0.4159  0.1702
 2698TIP3    H132289   6.806   4.657  19.174  1.1444  0.8036  1.6503
 2698TIP3    H232290   6.678   4.705  19.238  1.0957  0.2468  1.9738
 2699TIP3   OH232291   5.839   1.668  17.793  0.7892 -0.0079 -0.4169
 2699TIP3    H132292   5.845   1.573  17.798  1.1855  0.0300 -0.1863
 2699TIP3    H232293   5.761   1.690  17.845  0.6863 -0.2021 -0.4877
 2700TIP3   OH232294   4.655   4.982  18.792  0.0269 -0.3363 -0.1851
 2700TIP3    H132295   4.589   4.976  18.862 -1.4804  0.6087 -1.4563
 2700TIP3    H232296   4.733   5.013  18.837 -0.2600 -1.7559  1.4271
 2701TIP3   OH232297   6.723   7.022  17.910 -0.8739  0.6315  0.2712
 2701TIP3    H132298   6.697   7.076  17.836 -0.4783  1.6002  0.8168
 2701TIP3    H232299   6.657   6.952  17.914 -0.8087  0.4699 -1.0701
 2702TIP3   OH232300   5.470   2.883  17.279  0.0091  0.1398 -0.3245
 2702TIP3    H132301   5.508   2.821  17.217  0.5620  0.1278  0.0137
 2702TIP3    H232302   5.444   2.958  17.226 -0.0603 -0.1143 -0.6496
 2703TIP3   OH232303   4.552   3.028  17.281  0.2656 -0.1393 -0.1276
 2703TIP3    H132304   4.498   2.971  17.226 -0.0139 -0.8158  0.8239
 2703TIP3    H232305   4.494   3.101  17.302 -0.7499 -1.4222  1.8482
 2704TIP3   OH232306   4.001   6.405  19.063  0.0404  0.2023 -0.1003
 2704TIP3    H132307   3.996   6.317  19.024 -1.1809 -0.6870  1.9266
 2704TIP3    H232308   3.911   6.436  19.064  0.3847  1.2395 -0.1859
 2705TIP3   OH232309   0.716   5.907  19.534 -0.4428 -0.8179  0.0287
 2705TIP3    H132310   0.673   5.992  19.524  0.0130 -0.5402  0.3527
 2705TIP3    H232311   0.648   5.843  19.514 -0.9723 -0.3890  0.4250
 2706TIP3   OH232312   7.326   5.720  19.128  1.0846  0.9926 -0.1401
 2706TIP3    H132313   7.376   5.791  19.087  3.3451 -0.1476  0.4362
 2706TIP3    H232314   7.357   5.719  19.219  0.1589  0.0512  0.1825
 2707TIP3   OH232315   4.225   1.429  17.449  0.6086 -0.0831  0.4797
 2707TIP3    H132316   4.154   1.470  17.400 -0.0426 -1.8350 -0.1562
 2707TIP3    H232317   4.236   1.484  17.527 -0.6163  0.9048 -0.0028
 2708TIP3   OH232318   5.784   1.393  17.803 -0.0746 -0.3575  0.7249
 2708TIP3    H132319   5.745   1.364  17.886  0.4036  0.4173  1.2382
 2708TIP3    H232320   5.843   1.322  17.778 -2.0824 -1.7326 -0.2802
 2709TIP3   OH232321   1.395   2.785  17.659  0.6206 -0.7627  0.5403
 2709TIP3    H132322   1.326   2.723  17.684 -0.5687  0.5347  0.6184
 2709TIP3    H232323   1.351   2.847  17.600  1.3759  0.8334  1.5766
 2710TIP3   OH232324   7.618   4.928  17.015 -0.0651 -0.2536  0.4067
 2710TIP3    H132325   7.610   5.023  17.018  1.5938 -0.0297 -1.1547
 2710TIP3    H232326   7.693   4.908  17.071  0.4025 -0.5098 -0.2962
 2711TIP3   OH232327   6.061   2.058  17.920  0.6203  0.0500  0.1851
 2711TIP3    H132328   6.096   1.971  17.901  0.6732  0.2322 -0.5798
 2711TIP3    H232329   6.051   2.059  18.015 -1.2731 -1.5243  0.0767
 2712TIP3   OH232330   4.618   1.626  17.007 -0.2442 -0.1977 -0.4478
 2712TIP3    H132331   4.593   1.536  17.026 -1.2232 -0.4801 -2.7653
 2712TIP3    H232332   4.637   1.665  17.093 -0.0347 -2.5136  0.6182
 2713TIP3   OH232333   6.120   2.160  18.496  0.0363 -0.7489 -0.0419
 2713TIP3    H132334   6.073   2.085  18.461  2.4732 -1.3181 -2.4610
 2713TIP3    H232335   6.183   2.122  18.558  0.2442 -0.5313 -0.1162
 2714TIP3   OH232336   4.551   4.750  17.788  0.3192 -0.2368 -0.4353
 2714TIP3    H132337   4.635   4.763  17.830  0.1816 -0.5358 -0.0621
 2714TIP3    H232338   4.491   4.810  17.832  0.6890  1.2524 -1.8441
 2715TIP3   OH232339   0.180   2.682  19.593 -0.8789  0.5593 -0.7768
 2715TIP3    H132340   0.094   2.664  19.631 -1.1915  0.8739 -1.3214
 2715TIP3    H232341   0.167   2.672  19.498 -0.1585 -0.0301 -0.8259
 2716TIP3   OH232342   2.453   0.884  19.665 -0.0800 -0.0518 -0.2309
 2716TIP3    H132343   2.382   0.931  19.710 -1.9053 -1.0704 -1.9239
 2716TIP3    H232344   2.525   0.948  19.662 -0.4690  0.6467  2.4843
 2717TIP3   OH232345   0.859   6.332  19.725  0.3747  0.5748 -0.0512
 2717TIP3    H132346   0.840   6.315  19.633  0.2639  1.2262 -0.1585
 2717TIP3    H232347   0.889   6.248  19.760 -2.4494 -0.4866  0.0655
 2718TIP3   OH232348   6.511   4.868  18.819  0.2495  0.4175  0.0138
 2718TIP3    H132349   6.595   4.854  18.863 -0.5139 -0.8378  1.1477
 2718TIP3    H232350   6.454   4.904  18.886 -0.0142  1.7037 -0.8775
 2719TIP3   OH232351   2.757   0.546  19.079  0.0324  0.0396 -0.0947
 2719TIP3    H132352   2.847   0.524  19.054  0.7211 -0.5965  2.6344
 2719TIP3    H232353   2.753   0.527  19.173 -2.4952  1.6156  0.1962
 2720TIP3   OH232354   4.790   5.465  17.613  0.2719 -0.6883  0.1293
 2720TIP3    H132355   4.875   5.499  17.641  0.0832 -0.1484  0.0568
 2720TIP3    H232356   4.730   5.491  17.683  0.2588 -1.5393  0.4459
 2721TIP3   OH232357   5.486   4.513  18.851  0.1230 -0.4168  0.3079
 2721TIP3    H132358   5.514   4.512  18.759 -0.5294  0.7084  0.0812
 2721TIP3    H232359   5.391   4.525  18.847  0.0151 -0.9638  1.1264
 2722TIP3   OH232360   2.906   5.638  18.727  0.5878  0.2048  0.5696
 2722TIP3    H132361   2.872   5.631  18.638  0.4329  0.2298  0.6254
 2722TIP3    H232362   2.952   5.555  18.742 -1.8127 -1.0962  1.4743
 2723TIP3   OH232363   5.799   2.456  17.185  0.3970 -0.0610 -0.3079
 2723TIP3    H132364   5.739   2.479  17.115 -0.2317 -0.6194  0.0439
 2723TIP3    H232365   5.751   2.393  17.239  0.9932  0.0998  0.4306
 2724TIP3   OH232366   4.121   5.372  19.532  0.4989  0.5411 -0.4748
 2724TIP3    H132367   4.082   5.444  19.484  1.1511  0.6732 -0.8126
 2724TIP3    H232368   4.078   5.294  19.497 -0.6885  0.7922  0.3538
 2725TIP3   OH232369   4.234   1.064  19.386 -0.1230  0.0175 -0.4322
 2725TIP3    H132370   4.199   1.149  19.359 -0.2333 -0.6474 -2.5598
 2725TIP3    H232371   4.181   1.039  19.462 -1.3289  1.0310 -0.9063
 2726TIP3   OH232372   3.442   5.820  18.473  0.0032 -0.2882 -0.0289
 2726TIP3    H132373   3.372   5.845  18.534  0.9420  1.1642  0.4938
 2726TIP3    H232374   3.500   5.765  18.526 -0.5937 -1.2954 -0.3978
 2727TIP3   OH232375   0.396   4.829  19.679  0.0268  0.1582 -0.2709
 2727TIP3    H132376   0.469   4.806  19.621  0.5501 -0.1132  0.4839
 2727TIP3    H232377   0.320   4.834  19.621  0.6494  0.4975 -1.0783
 2728TIP3   OH232378   5.286   1.284  18.416 -0.1597  0.1779 -0.6039
 2728TIP3    H132379   5.244   1.319  18.494  0.0022 -0.4132 -0.2452
 2728TIP3    H232380   5.223   1.300  18.345 -0.6837 -0.0727 -0.1981
 2729TIP3   OH232381   1.530   4.137  18.519 -0.2587 -0.2704 -0.2048
 2729TIP3    H132382   1.602   4.190  18.551  0.8420 -1.9728  0.2727
 2729TIP3    H232383   1.463   4.200  18.492  0.3843  1.2960  1.6807
 2730TIP3   OH232384   1.016   5.111  18.683 -0.3678  0.4436 -0.5082
 2730TIP3    H132385   1.069   5.156  18.617  0.5784  1.2327  0.7540
 2730TIP3    H232386   1.010   5.172  18.756  1.3363 -1.5819  1.4657
 2731TIP3   OH232387   5.317   4.273  17.922 -0.1321  0.3758 -0.1666
 2731TIP3    H132388   5.401   4.317  17.936  0.5161 -0.8730  0.0975
 2731TIP3    H232389   5.255   4.343  17.902  0.9773  1.3218 -0.3682
 2732TIP3   OH232390   3.041   0.575  17.703 -0.3936  0.2173 -0.3725
 2732TIP3    H132391   3.047   0.624  17.785 -1.0014  0.0224 -0.2003
 2732TIP3    H232392   3.118   0.601  17.653  1.0769 -1.1759  1.0619
 2733TIP3   OH232393   4.968   0.397  17.542  0.7560  0.0555  0.0060
 2733TIP3    H132394   4.960   0.487  17.574  1.1449  0.4414 -0.9455
 2733TIP3    H232395   4.906   0.391  17.469  0.4431 -0.5714  0.3129
 2734TIP3   OH232396   7.512   4.297  17.737  0.0126  0.2416 -0.2068
 2734TIP3    H132397   7.507   4.360  17.810 -0.3579  1.0599 -0.9263
 2734TIP3    H232398   7.452   4.332  17.671  1.2425  0.1726 -1.4074
 2735TIP3   OH232399   5.827   5.013  17.846  0.1513  0.0552  0.4854
 2735TIP3    H132400   5.861   4.972  17.766  1.8182  1.3532  0.4467
 2735TIP3    H232401   5.793   4.941  17.898  1.2522 -1.1268 -0.3599
 2736TIP3   OH232402   3.853   2.589  19.357 -0.3055  0.1932  0.8238
 2736TIP3    H132403   3.836   2.680  19.382  1.0925  0.5989  0.4298
 2736TIP3    H232404   3.947   2.578  19.371 -0.6268 -1.5290  1.8693
 2737TIP3   OH232405   0.075   5.542  18.869  0.5068 -0.2724 -0.0993
 2737TIP3    H132406  -0.016   5.529  18.841  0.5075 -1.7934  0.4894
 2737TIP3    H232407   0.068   5.584  18.955  0.3631 -0.1843 -0.1529
 2738TIP3   OH232408   0.882   7.582  17.929  0.3279  0.0279  0.1434
 2738TIP3    H132409   0.974   7.608  17.915  0.0176  1.3042  0.3273
 2738TIP3    H232410   0.876   7.494  17.893  1.6445 -0.0938  0.1683
 2739TIP3   OH232411   3.502   5.684  19.775 -0.0357 -0.4581 -0.2337
 2739TIP3    H132412   3.428   5.737  19.804  1.3551  0.7974  1.2550
 2739TIP3    H232413   3.554   5.743  19.720  0.6951 -0.7702  0.1029
 2740TIP3   OH232414   7.638   2.596  19.373  0.4945  0.0548 -0.0707
 2740TIP3    H132415   7.715   2.545  19.350  0.1976 -0.1087 -0.7382
 2740TIP3    H232416   7.568   2.531  19.383  0.2644  0.2692 -0.2659
 2741TIP3   OH232417   1.842   2.183  19.328  0.3260 -0.6767 -0.0828
 2741TIP3    H132418   1.922   2.150  19.286  1.3206 -0.2050  1.3476
 2741TIP3    H232419   1.840   2.140  19.413 -1.0076 -0.7311 -0.1162
 2742TIP3   OH232420   0.327   7.379  16.965  0.4747  0.8917  0.0325
 2742TIP3    H132421   0.261   7.310  16.975  0.7434  0.4679 -0.9894
 2742TIP3    H232422   0.337   7.416  17.053  0.3537 -0.3930  0.6067
 2743TIP3   OH232423   1.077   3.244  19.219  0.2570  0.1026  0.7946
 2743TIP3    H132424   1.154   3.245  19.276  0.0841 -1.5340  1.0881
 2743TIP3    H232425   1.113   3.248  19.130  0.5593  1.7368  0.9602
 2744TIP3   OH232426   3.208   5.960  19.339 -0.3132 -0.1231 -0.2256
 2744TIP3    H132427   3.163   6.041  19.364  0.6548 -0.0064  1.2939
 2744TIP3    H232428   3.300   5.976  19.359  0.2825 -0.7632 -2.1961
 2745TIP3   OH232429   3.680   1.935  19.052  0.6489  0.2646  0.7294
 2745TIP3    H132430   3.675   2.030  19.060  3.1662  0.6721 -1.3434
 2745TIP3    H232431   3.773   1.915  19.044  0.1916 -2.3704  0.8090
 2746TIP3   OH232432   2.145   5.832  17.482 -0.7248  0.4690  0.1418
 2746TIP3    H132433   2.180   5.896  17.420 -3.3917  0.7162 -1.2676
 2746TIP3    H232434   2.086   5.884  17.537 -2.5495 -0.6277 -0.7040
 2747TIP3   OH232435   6.909   0.782  19.111 -0.4582 -0.3344 -0.3616
 2747TIP3    H132436   6.930   0.772  19.203 -0.5199 -0.1182 -0.3234
 2747TIP3    H232437   6.849   0.857  19.107 -1.3945 -1.0631 -0.4455
 2748TIP3   OH232438   4.383   4.452  19.552  0.5089  0.0919 -0.3740
 2748TIP3    H132439   4.295   4.441  19.516  1.0174 -1.9818 -1.1076
 2748TIP3    H232440   4.431   4.498  19.483  0.6134 -0.9717 -1.0428
 2749TIP3   OH232441   3.600   4.834  19.429 -0.1040  0.2424 -0.6615
 2749TIP3    H132442   3.635   4.789  19.506  0.4221 -4.1208 -3.1360
 2749TIP3    H232443   3.506   4.815  19.432 -0.0622 -0.0486 -1.1036
 2750TIP3   OH232444   3.736   0.249  18.949 -0.2243  0.2701  0.0914
 2750TIP3    H132445   3.803   0.310  18.983 -0.8081  0.5179  0.8345
 2750TIP3    H232446   3.690   0.300  18.883  0.9687 -0.2386 -1.1637
 2751TIP3   OH232447   1.984   5.711  19.143  0.2363 -0.2009  0.4391
 2751TIP3    H132448   2.063   5.733  19.094  0.5596 -1.9435  0.1140
 2751TIP3    H232449   1.936   5.652  19.085 -0.7925 -0.0009  1.0730
 2752TIP3   OH232450   5.424   5.761  18.165  0.0803  0.0848 -0.1077
 2752TIP3    H132451   5.384   5.791  18.083 -0.1183  1.1424  0.3657
 2752TIP3    H232452   5.356   5.708  18.206  0.6603 -1.6384 -1.2527
 2753TIP3   OH232453   4.417   0.808  19.758  0.1139 -0.6685  0.1773
 2753TIP3    H132454   4.436   0.889  19.712 -1.7209 -1.3646 -2.0289
 2753TIP3    H232455   4.405   0.834  19.850  2.4328  1.0154  0.0726
 2754TIP3   OH232456   6.671   6.545  17.189  0.5487  0.1678 -0.1577
 2754TIP3    H132457   6.596   6.604  17.188 -0.7513 -1.4031 -0.3278
 2754TIP3    H232458   6.692   6.536  17.282  2.1452  2.4962 -0.2277
 2755TIP3   OH232459   0.891   4.913  19.768 -0.2938 -0.0001 -0.5703
 2755TIP3    H132460   0.924   4.870  19.688  0.9241  0.0116 -0.0973
 2755TIP3    H232461   0.908   5.006  19.753 -0.0161 -0.0026 -0.2862
 2756TIP3   OH232462   5.349   7.650  19.249 -0.8217  0.4014 -0.3093
 2756TIP3    H132463   5.279   7.715  19.262  1.0811  2.6597 -0.7095
 2756TIP3    H232464   5.413   7.671  19.317  1.1894  0.9210 -2.2725
 2757TIP3   OH232465   4.458   2.452  19.619 -0.1876 -0.2894 -0.4372
 2757TIP3    H132466   4.400   2.526  19.602  0.7305  0.5924  0.1360
 2757TIP3    H232467   4.507   2.478  19.697 -0.0008 -1.6092 -0.0945
 2758TIP3   OH232468   0.762   5.257  18.431  0.1478 -0.1578  0.6895
 2758TIP3    H132469   0.797   5.344  18.451  0.2929 -0.4350  1.7087
 2758TIP3    H232470   0.835   5.198  18.447  0.3163 -0.4118 -0.8578
 2759TIP3   OH232471   2.746   7.010  17.311 -0.3449 -0.0743  0.3827
 2759TIP3    H132472   2.756   6.979  17.221  0.4006  0.8998  0.1169
 2759TIP3    H232473   2.832   7.043  17.335 -0.1274 -1.6203  1.9765
 2760TIP3   OH232474   5.145   3.800  17.602  0.3831 -0.0010 -0.4555
 2760TIP3    H132475   5.196   3.852  17.539  1.2139  0.0178  0.2104
 2760TIP3    H232476   5.106   3.866  17.660 -0.6811  0.0026 -1.1499
 2761TIP3   OH232477   6.757   2.309  18.272 -0.4808  0.3310  0.2752
 2761TIP3    H132478   6.807   2.227  18.272  1.1018  1.1128 -3.3232
 2761TIP3    H232479   6.784   2.353  18.353  3.3257 -0.1692 -0.5223
 2762TIP3   OH232480   3.329   7.011  19.617 -0.8883 -0.4671 -0.2884
 2762TIP3    H132481   3.415   7.049  19.636 -1.5215  1.0906 -0.4436
 2762TIP3    H232482   3.327   6.930  19.668 -0.2764  0.6918  1.6753
 2763TIP3   OH232483   3.923   4.481  19.687 -0.0514  0.1872  0.1599
 2763TIP3    H132484   3.865   4.515  19.620  1.8344  1.9715 -0.6654
 2763TIP3    H232485   3.914   4.542  19.761 -0.3468 -0.4028  0.6205
 2764TIP3   OH232486   2.097   0.585  18.830  0.3124  0.0128 -0.2115
 2764TIP3    H132487   2.036   0.616  18.897  0.3508 -1.1777  0.4101
 2764TIP3    H232488   2.181   0.625  18.854 -0.2250  1.8964 -1.2409
 2765TIP3   OH232489   0.417   4.469  17.914 -0.3843 -0.2216  0.2557
 2765TIP3    H132490   0.372   4.554  17.918 -0.3849 -0.2835  2.3007
 2765TIP3    H232491   0.351   4.405  17.939  0.4690 -0.4326  2.1386
 2766TIP3   OH232492   7.670   6.314  19.221  0.4399  0.7623 -0.5933
 2766TIP3    H132493   7.624   6.319  19.305  1.0312  1.8959 -0.3141
 2766TIP3    H232494   7.700   6.223  19.216  2.1545  1.1209  1.4226
 2767TIP3   OH232495   0.713   5.668  19.233  0.0556  0.1353  0.8148
 2767TIP3    H132496   0.650   5.597  19.222 -0.0102 -0.0656  2.2369
 2767TIP3    H232497   0.730   5.700  19.144 -0.7719 -0.9069  0.2601
 2768TIP3   OH232498   1.938   2.008  18.191  0.2832 -0.3174 -0.1680
 2768TIP3    H132499   1.901   2.078  18.138 -1.0643 -0.6449  0.3045
 2768TIP3    H232500   1.936   1.931  18.134  0.0350 -0.3818 -0.0735
 2769TIP3   OH232501   1.401   2.917  18.465  0.2693 -0.1506 -0.1166
 2769TIP3    H132502   1.447   2.957  18.539  0.6053 -0.6625 -0.0460
 2769TIP3    H232503   1.312   2.954  18.470  0.2768 -0.2055  0.5613
 2770TIP3   OH232504   5.828   5.774  19.499 -0.1987  0.4512  0.0420
 2770TIP3    H132505   5.822   5.820  19.583  0.1892  0.1014  0.2632
 2770TIP3    H232506   5.813   5.842  19.433 -0.0991  0.8052  0.3850
 2771TIP3   OH232507   4.098   4.386  18.111  1.1515  0.1993 -1.3260
 2771TIP3    H132508   4.066   4.371  18.200 -0.3975 -0.0251 -1.8814
 2771TIP3    H232509   4.134   4.475  18.113  1.0762  0.2145 -0.4862
 2772TIP3   OH232510   1.223   0.968  19.466 -0.2578 -0.5398 -0.2743
 2772TIP3    H132511   1.167   1.046  19.471 -0.6017 -0.8330  0.5332
 2772TIP3    H232512   1.170   0.898  19.504  1.0289 -0.6063  1.4823
 2773TIP3   OH232513   5.995   0.295  19.572 -0.6316  0.0549  0.2783
 2773TIP3    H132514   6.080   0.329  19.601 -0.6865 -0.7684  1.4871
 2773TIP3    H232515   5.964   0.359  19.508 -0.3222  1.8009  1.7686
 2774TIP3   OH232516   3.562   0.474  17.405 -0.3260  0.5480  0.0655
 2774TIP3    H132517   3.502   0.497  17.476  0.6162  1.7016  0.5166
 2774TIP3    H232518   3.647   0.463  17.449  0.3093  1.4739 -0.8995
 2775TIP3   OH232519   4.604   5.887  17.977  0.0384 -0.1893  0.2524
 2775TIP3    H132520   4.683   5.843  17.945 -0.3647  0.0903 -1.1737
 2775TIP3    H232521   4.540   5.817  17.987  0.6237 -0.5244  2.0626
 2776TIP3   OH232522   4.974   5.512  19.732  0.2802  0.4393  0.1931
 2776TIP3    H132523   5.063   5.539  19.711  0.3624  0.7465  0.9036
 2776TIP3    H232524   4.983   5.419  19.756  0.2048  0.1223 -0.9464
 2777TIP3   OH232525   2.924   7.383  19.252 -0.3634 -0.3699 -0.6915
 2777TIP3    H132526   2.947   7.395  19.344  1.4937 -1.4734 -0.9589
 2777TIP3    H232527   2.837   7.423  19.243  0.0713  1.1275  1.1776
 2778TIP3   OH232528   4.474   2.483  16.867  0.3294 -0.3534  0.4259
 2778TIP3    H132529   4.551   2.488  16.811  0.0727 -1.2656 -0.0354
 2778TIP3    H232530   4.412   2.430  16.817  0.1710 -1.3668  1.6550
 2779TIP3   OH232531   0.854   3.417  18.629 -0.0556  0.2129  0.0910
 2779TIP3    H132532   0.878   3.376  18.546 -0.5628  0.2748 -0.0939
 2779TIP3    H232533   0.772   3.462  18.610  0.4334  1.2263  0.3167
 2780TIP3   OH232534   5.762   3.569  18.666  0.0726  0.1176  0.3746
 2780TIP3    H132535   5.857   3.564  18.657  0.2206  1.8111  0.7428
 2780TIP3    H232536   5.745   3.536  18.755  0.4846  1.2436  0.8902
 2781TIP3   OH232537   4.964   4.315  17.120 -0.2994  0.2803 -0.2565
 2781TIP3    H132538   4.926   4.360  17.044 -0.9765 -1.8293 -1.2322
 2781TIP3    H232539   4.889   4.281  17.168  0.1767  0.7419  0.8402
 2782TIP3   OH232540   5.432   0.779  17.684 -0.6924 -0.1150  0.6737
 2782TIP3    H132541   5.499   0.839  17.652  0.4489 -1.9526 -0.5750
 2782TIP3    H232542   5.460   0.757  17.773  0.0976 -0.4473  0.3550
 2783TIP3   OH232543   2.661   7.385  18.446  0.2196 -0.1324 -0.3898
 2783TIP3    H132544   2.679   7.475  18.419 -0.1263 -1.0218 -4.1777
 2783TIP3    H232545   2.742   7.338  18.430  0.0418 -0.7314  0.4128
 2784TIP3   OH232546   5.170   1.228  18.859  0.3014 -0.5237 -0.1297
 2784TIP3    H132547   5.085   1.256  18.893 -0.5426 -1.5782 -1.2804
 2784TIP3    H232548   5.155   1.138  18.828  1.7924 -0.6608 -0.5326
 2785TIP3   OH232549   6.421   1.012  18.827 -0.0343  0.1868  0.1083
 2785TIP3    H132550   6.350   1.028  18.889 -2.0359 -3.2757 -1.0161
 2785TIP3    H232551   6.397   1.061  18.749 -0.3222  0.3383  0.2898
 2786TIP3   OH232552   3.137   4.121  18.092  0.5387 -0.0682  0.4077
 2786TIP3    H132553   3.152   4.046  18.149 -0.4972  0.0724  0.8885
 2786TIP3    H232554   3.042   4.126  18.083  0.3229  2.9037  2.7601
 2787TIP3   OH232555   3.003   6.654  18.420 -0.1765 -0.1614 -1.0435
 2787TIP3    H132556   2.924   6.648  18.474  0.5348  1.0628  0.2222
 2787TIP3    H232557   3.011   6.748  18.401  2.8427  0.3476  1.8986
 2788TIP3   OH232558   4.561   0.137  18.626  0.2334 -0.3381  0.4902
 2788TIP3    H132559   4.524   0.223  18.603  1.7030 -0.1001 -1.1820
 2788TIP3    H232560   4.655   0.153  18.634  0.6702 -1.9689 -0.8868
 2789TIP3   OH232561   5.746   1.080  19.338 -0.0189 -0.6281  0.3567
 2789TIP3    H132562   5.747   0.984  19.337 -0.4435 -0.6337 -0.1721
 2789TIP3    H232563   5.689   1.104  19.265 -0.6615  0.0090  1.0494
 2790TIP3   OH232564   1.120   1.876  17.756  0.1040 -0.6852 -0.1456
 2790TIP3    H132565   1.147   1.800  17.705 -0.4721 -1.1995  0.3055
 2790TIP3    H232566   1.025   1.879  17.748  0.0393 -0.5420  0.5690
 2791TIP3   OH232567   3.100   3.344  19.980 -0.1285  0.7571 -0.4010
 2791TIP3    H132568   3.042   3.357  20.055 -0.1300  0.7530 -0.4013
 2791TIP3    H232569   3.045   3.358  19.903 -0.0411  1.1302 -0.3971
 2792TIP3   OH232570   0.778   1.402  18.662 -0.1980  0.1896  0.4451
 2792TIP3    H132571   0.781   1.350  18.742  0.7018  0.6773  0.7592
 2792TIP3    H232572   0.870   1.406  18.633 -0.5097  0.0332 -0.6068
 2793TIP3   OH232573   1.032   5.585  19.022 -0.3912 -0.0961 -0.5852
 2793TIP3    H132574   1.020   5.527  19.098  2.7097  0.6828  0.6692
 2793TIP3    H232575   0.946   5.621  19.006 -1.8141 -2.6700  0.5542
 2794TIP3   OH232576   2.696   2.190  17.678  0.4545 -0.3322 -0.0135
 2794TIP3    H132577   2.734   2.241  17.749  1.4768  1.1520 -1.5589
 2794TIP3    H232578   2.767   2.136  17.646  0.7220  0.8212 -1.4705
 2795TIP3   OH232579   1.681   7.087  19.902 -0.0877 -0.2758 -0.3764
 2795TIP3    H132580   1.764   7.093  19.855 -0.6153 -0.9387 -1.4482
 2795TIP3    H232581   1.673   7.170  19.949  1.7225 -0.6575  0.7225
 2796TIP3   OH232582   6.001   2.706  17.371  0.1540 -0.2213  0.5172
 2796TIP3    H132583   6.080   2.721  17.319 -0.0772 -1.1518 -0.1474
 2796TIP3    H232584   5.939   2.772  17.340 -0.4024 -1.5290 -1.3699
 2797TIP3   OH232585   1.673   7.522  19.621  0.0501  0.6806 -0.2374
 2797TIP3    H132586   1.730   7.446  19.629 -0.6664  0.1359 -0.2080
 2797TIP3    H232587   1.604   7.507  19.686 -1.6020  0.0016 -2.0650
 2798TIP3   OH232588   4.405   0.580  19.581 -0.2770 -0.2934 -0.8963
 2798TIP3    H132589   4.327   0.573  19.526  0.2451  1.1264 -1.8805
 2798TIP3    H232590   4.390   0.659  19.634  0.2592 -0.3053 -0.7205
 2799TIP3   OH232591   0.527   7.526  19.488 -0.1425 -0.2517 -0.1033
 2799TIP3    H132592   0.547   7.433  19.489 -1.2613 -0.4970  0.0950
 2799TIP3    H232593   0.570   7.561  19.565 -1.3408 -0.9662  0.9242
 2800TIP3   OH232594   3.215   5.094  17.968  0.0409 -0.2810  0.4634
 2800TIP3    H132595   3.254   5.170  17.924 -1.7306  0.1815 -0.3892
 2800TIP3    H232596   3.266   5.085  18.049 -0.2456  2.3688  1.0322
 2801TIP3   OH232597   3.063   6.376  18.668  0.0374  0.5984  0.2608
 2801TIP3    H132598   3.066   6.286  18.700 -1.1009 -0.2718 -1.8708
 2801TIP3    H232599   2.971   6.401  18.677  0.2262  1.3126  0.2395
 2802TIP3   OH232600   3.365   3.466  18.209  0.0174 -0.3025  0.3672
 2802TIP3    H132601   3.317   3.549  18.212  2.1594  1.0256 -0.0277
 2802TIP3    H232602   3.402   3.463  18.121  2.0802 -0.3599  1.1735
 2803TIP3   OH232603   6.968   3.374  19.219 -0.8012 -0.1394 -0.3994
 2803TIP3    H132604   6.947   3.300  19.162 -3.1589 -0.1397  0.3903
 2803TIP3    H232605   7.010   3.437  19.160  0.2670 -1.6351 -1.3112
 2804TIP3   OH232606   2.661   0.123  17.389  0.4360 -0.0116  0.6819
 2804TIP3    H132607   2.716   0.112  17.467 -0.5341  1.5406  1.6358
 2804TIP3    H232608   2.632   0.214  17.393 -2.0337 -0.7126  0.0849
 2805TIP3   OH232609   3.692   5.361  19.606  0.0320  0.2572  0.0406
 2805TIP3    H132610   3.737   5.427  19.554  0.5821  0.8027  1.1624
 2805TIP3    H232611   3.671   5.292  19.544 -0.3332  1.3644 -1.1137
 2806TIP3   OH232612   0.328   4.582  19.305 -0.4573 -0.0460  0.0877
 2806TIP3    H132613   0.306   4.676  19.305  0.1058  0.0958 -0.8706
 2806TIP3    H232614   0.252   4.540  19.345 -1.2138  0.7198 -0.5069
 2807TIP3   OH232615   4.817   6.885  18.442  0.5217 -0.3607  0.5581
 2807TIP3    H132616   4.868   6.951  18.394 -0.4468  0.6024  0.8008
 2807TIP3    H232617   4.869   6.805  18.437  1.5866  0.3497 -0.0159
 2808TIP3   OH232618   6.250   1.870  17.841 -0.0483 -0.3051 -0.0475
 2808TIP3    H132619   6.327   1.898  17.890  0.2583  0.3539 -0.8976
 2808TIP3    H232620   6.241   1.777  17.862  0.3199 -0.1374  0.9163
 2809TIP3   OH232621   6.417   4.833  19.114 -0.6128 -0.0881 -0.1846
 2809TIP3    H132622   6.380   4.819  19.201  0.9431  0.7256  0.6342
 2809TIP3    H232623   6.363   4.778  19.056 -1.4100 -0.9586  1.3313
 2810TIP3   OH232624   5.247   2.801  17.953 -0.4058 -0.2809  0.2685
 2810TIP3    H132625   5.265   2.714  17.986 -0.2318  0.2225  1.5375
 2810TIP3    H232626   5.152   2.802  17.938 -0.5745 -0.3627  1.2551
 2811TIP3   OH232627   0.112   1.379  19.236 -0.3685  0.1406  0.2091
 2811TIP3    H132628   0.132   1.397  19.144 -1.3022  1.1058  0.1781
 2811TIP3    H232629   0.136   1.287  19.249  1.3712  0.4580 -0.5439
 2812TIP3   OH232630   7.652   0.233  17.970 -0.0112 -0.4723  0.4995
 2812TIP3    H132631   7.667   0.175  17.895  3.1179 -1.5062  1.7780
 2812TIP3    H232632   7.632   0.174  18.042  0.0495  0.2956  1.1587
 2813TIP3   OH232633   5.741   6.494  19.212  0.0091  0.4861 -0.1454
 2813TIP3    H132634   5.713   6.403  19.211 -1.8929  1.0411 -0.2953
 2813TIP3    H232635   5.665   6.544  19.183  1.4880  2.0250 -1.6315
 2814TIP3   OH232636   3.907   0.447  19.020 -0.3148 -0.5362 -0.1135
 2814TIP3    H132637   3.935   0.468  19.109 -0.8158  0.0245 -0.0841
 2814TIP3    H232638   3.971   0.492  18.963 -1.1250  0.7373 -0.0475
 2815TIP3   OH232639   7.508   5.508  18.776  0.5490  0.3514 -0.6372
 2815TIP3    H132640   7.419   5.541  18.784  0.9388  1.5272 -1.0149
 2815TIP3    H232641   7.502   5.437  18.711 -0.1787  0.1095 -0.3116
 2816TIP3   OH232642   5.215   0.356  18.253 -0.1084 -0.0448 -0.3956
 2816TIP3    H132643   5.243   0.327  18.340 -0.9245  0.3296  0.0070
 2816TIP3    H232644   5.124   0.328  18.247 -0.3839  0.8711 -0.6957
 2817TIP3   OH232645   2.775   4.538  19.399  0.1592  0.0363  0.3620
 2817TIP3    H132646   2.709   4.585  19.348  0.2658  0.6561  0.7898
 2817TIP3    H232647   2.749   4.550  19.490  1.0527  0.5935  0.5609
 2818TIP3   OH232648   3.637   7.197  17.991  0.6023  0.3351 -0.0508
 2818TIP3    H132649   3.575   7.135  17.953 -0.2196 -0.0755  1.8448
 2818TIP3    H232650   3.633   7.273  17.933 -0.7184 -0.1851 -0.6865
 2819TIP3   OH232651   6.907   0.714  19.402 -0.1764  0.0080  0.4868
 2819TIP3    H132652   6.908   0.747  19.492 -1.6907 -0.9614  0.8951
 2819TIP3    H232653   6.997   0.684  19.387  0.2728  0.8068  1.4185
 2820TIP3   OH232654   1.792   3.865  18.722 -0.4853 -0.0325 -0.1203
 2820TIP3    H132655   1.851   3.822  18.784 -1.2184  0.0871  0.6839
 2820TIP3    H232656   1.738   3.795  18.687 -1.6203  0.1668  1.1238
 2821TIP3   OH232657   4.538   2.422  18.182 -0.2922 -0.1336 -0.0748
 2821TIP3    H132658   4.461   2.384  18.140 -0.2185  0.4259 -0.7434
 2821TIP3    H232659   4.601   2.433  18.111 -0.0177  0.4661  0.2527
 2822TIP3   OH232660   1.707   6.428  18.649 -0.0059 -0.4315  0.1514
 2822TIP3    H132661   1.767   6.477  18.594  0.0980 -1.5104 -0.7408
 2822TIP3    H232662   1.756   6.349  18.674 -1.0179 -1.3247 -0.5873
 2823TIP3   OH232663   0.845   1.147  18.087  0.4228 -0.4744 -0.3045
 2823TIP3    H132664   0.850   1.055  18.116  2.3108  0.1655  1.7484
 2823TIP3    H232665   0.807   1.193  18.161  0.9924  0.6155 -0.6718
 2824TIP3   OH232666   1.354   5.165  19.345  0.2104  0.1576 -0.0833
 2824TIP3    H132667   1.290   5.234  19.326 -1.0524 -0.6624  1.0179
 2824TIP3    H232668   1.431   5.212  19.376 -0.4776  1.1067  0.2383
 2825TIP3   OH232669   7.255   5.613  18.785 -0.0936  0.6981 -0.1877
 2825TIP3    H132670   7.184   5.597  18.723 -1.4635  1.0209  1.2296
 2825TIP3    H232671   7.258   5.708  18.795  0.0931  0.6488  0.2546
 2826TIP3   OH232672   4.411   2.482  18.540 -0.8951 -0.1073 -0.2111
 2826TIP3    H132673   4.369   2.452  18.460 -0.5994 -0.8186 -0.1080
 2826TIP3    H232674   4.472   2.412  18.563  0.3720  0.9116 -0.3745
 2827TIP3   OH232675   0.203   6.901  18.570 -0.6883  0.2447  0.3791
 2827TIP3    H132676   0.267   6.971  18.560 -0.0649 -0.1057  1.6801
 2827TIP3    H232677   0.210   6.874  18.662 -0.3148 -2.0845 -0.2597
 2828TIP3   OH232678   4.159   7.072  17.965 -0.1433 -0.3317 -0.1362
 2828TIP3    H132679   4.197   7.159  17.980 -1.1939  0.3309 -1.2446
 2828TIP3    H232680   4.119   7.050  18.049 -0.2579  0.4501  0.0248
 2829TIP3   OH232681   7.642   4.874  18.648 -0.0183  0.3390  0.1820
 2829TIP3    H132682   7.664   4.963  18.622 -2.3546  0.8489 -0.3546
 2829TIP3    H232683   7.682   4.862  18.733  1.8773  1.2145 -0.5461
 2830TIP3   OH232684   6.371   5.695  18.586  0.0213  0.2367  0.1710
 2830TIP3    H132685   6.419   5.706  18.668  0.3470 -0.3474  0.0699
 2830TIP3    H232686   6.356   5.600  18.580  0.7912  0.1603 -0.8761
 2831TIP3   OH232687   3.879   3.765  19.149  0.3018 -0.0484  0.2481
 2831TIP3    H132688   3.914   3.854  19.155 -1.4713  0.6381  1.2109
 2831TIP3    H232689   3.874   3.747  19.055  0.6348  0.8858  0.0440
 2832TIP3   OH232690   3.405   3.040  19.083 -0.3579  0.0877 -0.5179
 2832TIP3    H132691   3.371   3.070  18.999  0.2676  0.6496 -0.5830
 2832TIP3    H232692   3.342   3.074  19.147 -0.5529  0.1134 -0.7201
 2833TIP3   OH232693   2.524   3.220  18.768  0.7663  0.4321  0.0373
 2833TIP3    H132694   2.506   3.175  18.850 -0.1549  1.4296  0.4089
 2833TIP3    H232695   2.532   3.312  18.793  0.7285  0.7118 -0.9538
 2834TIP3   OH232696   5.468   1.386  18.785 -0.2045 -0.2444 -0.4254
 2834TIP3    H132697   5.530   1.456  18.808  0.7790 -1.9605  2.6629
 2834TIP3    H232698   5.501   1.351  18.702  1.9020  0.1205  0.1968
 2835TIP3   OH232699   3.813   1.070  19.802  0.2392  0.1515 -0.1828
 2835TIP3    H132700   3.748   1.103  19.740  0.8477  2.7759  0.4378
 2835TIP3    H232701   3.761   1.032  19.873 -0.5479  0.0295 -0.8125
 2836TIP3   OH232702   4.264   4.174  17.660 -0.0209 -0.2337 -0.4895
 2836TIP3    H132703   4.189   4.118  17.681  1.1330 -1.6197  0.0805
 2836TIP3    H232704   4.324   4.162  17.734  0.8679  0.6602 -1.0484
 2837TIP3   OH232705   6.110   2.043  19.508  0.4277 -0.3846  0.1379
 2837TIP3    H132706   6.017   2.059  19.517  0.7341  1.8906 -0.2753
 2837TIP3    H232707   6.149   2.079  19.587  1.0663 -0.1574 -0.2701
 2838TIP3   OH232708   3.481   5.648  19.154 -0.3273  0.1027 -0.1805
 2838TIP3    H132709   3.399   5.668  19.108  0.5568 -0.4965 -2.1386
 2838TIP3    H232710   3.514   5.568  19.112  1.1206  0.1658  0.7437
 2839TIP3   OH232711   2.240   4.997  19.587  0.3969  0.3049 -0.0240
 2839TIP3    H132712   2.219   4.937  19.658  0.0842 -1.6033 -1.6584
 2839TIP3    H232713   2.176   5.068  19.596 -0.2971 -0.4166  0.9610
 2840TIP3   OH232714   2.611   5.270  17.345  0.0414 -0.1983  0.5321
 2840TIP3    H132715   2.667   5.344  17.321 -0.0996 -0.0678  0.6103
 2840TIP3    H232716   2.649   5.196  17.298 -1.4368  0.4205 -1.7876
 2841TIP3   OH232717   0.578   1.442  18.483  0.1043 -0.0358  0.1990
 2841TIP3    H132718   0.535   1.527  18.492  2.0703  1.2463 -1.5106
 2841TIP3    H232719   0.655   1.448  18.540  1.5378  0.3288 -1.6699
 2842TIP3   OH232720   3.044   0.247  18.020 -0.8334  0.5776  0.0182
 2842TIP3    H132721   3.020   0.298  17.943  1.3360  0.6244 -0.6776
 2842TIP3    H232722   3.114   0.298  18.062 -1.1641 -0.0371  1.3777
 2843TIP3   OH232723   0.558   4.865  18.768  0.4373 -0.4903  0.0357
 2843TIP3    H132724   0.567   4.775  18.737  0.9644  0.0989 -1.6095
 2843TIP3    H232725   0.642   4.906  18.746 -0.2682  0.7460 -0.4401
 2844TIP3   OH232726   1.370   2.016  18.970  0.1695  0.8748  0.9889
 2844TIP3    H132727   1.448   1.995  18.919 -0.3690  0.3006  0.3820
 2844TIP3    H232728   1.386   1.978  19.056 -1.4572 -3.7873 -0.4840
 2845TIP3   OH232729   1.144   7.669  17.915 -0.2767 -0.3816 -0.5141
 2845TIP3    H132730   1.234   7.647  17.937 -0.5309 -0.1373  0.8142
 2845TIP3    H232731   1.151   7.749  17.862  0.3013 -0.5849 -0.7554
 2846TIP3   OH232732   6.000   5.548  19.391 -0.0449  0.2899 -0.2063
 2846TIP3    H132733   5.961   5.497  19.320 -0.6438  0.7935 -0.2518
 2846TIP3    H232734   5.926   5.596  19.429  0.4567  0.8803  0.0311
 2847TIP3   OH232735   3.644   0.126  18.162 -0.2909 -0.5014 -0.3365
 2847TIP3    H132736   3.715   0.117  18.098 -0.4627 -1.1057 -0.4439
 2847TIP3    H232737   3.683   0.098  18.245 -0.2328 -0.2612 -0.2826
 2848TIP3   OH232738   3.768   0.319  17.172 -0.6901 -0.6458  0.6694
 2848TIP3    H132739   3.819   0.396  17.147 -0.2288 -0.8359  1.0098
 2848TIP3    H232740   3.832   0.248  17.177 -0.8487 -0.7197  1.9019
 2849TIP3   OH232741   6.468   1.930  17.999  0.1954 -0.1053 -0.0041
 2849TIP3    H132742   6.519   1.886  18.067 -0.3094 -0.8072 -0.0719
 2849TIP3    H232743   6.413   1.992  18.046 -0.4322 -0.8595  0.2798
 2850TIP3   OH232744   6.444   1.877  18.969 -0.0685  0.8944 -0.3322
 2850TIP3    H132745   6.532   1.871  19.008 -0.5945  0.5297  0.8569
 2850TIP3    H232746   6.428   1.790  18.932  0.0974  0.9794 -0.6041
 2851TIP3   OH232747   3.587   3.719  18.182  0.1946  0.0010  0.7727
 2851TIP3    H132748   3.643   3.796  18.191  1.9313 -1.2683  1.3946
 2851TIP3    H232749   3.629   3.653  18.237 -1.0259 -1.5089 -0.0390
 2852TIP3   OH232750   0.969   5.892  19.631  0.3296  0.4531  0.1081
 2852TIP3    H132751   0.879   5.888  19.601  0.1993  2.5455  0.0712
 2852TIP3    H232752   1.018   5.841  19.567 -0.7448 -0.3099 -0.1317
 2853TIP3   OH232753   6.940   5.839  18.453  0.1709  0.1365 -0.4981
 2853TIP3    H132754   7.001   5.782  18.408  0.3925  1.1594 -1.5473
 2853TIP3    H232755   6.878   5.867  18.385 -1.4473 -0.8209  0.5153
 2854TIP3   OH232756   4.570   7.595  18.773 -0.4128 -0.1153 -0.2057
 2854TIP3    H132757   4.563   7.664  18.707  0.4343  2.2927  2.0554
 2854TIP3    H232758   4.659   7.605  18.808 -0.3476 -2.2420  0.3711
 2855TIP3   OH232759   1.866   2.221  18.028  0.3789  0.2683  1.0968
 2855TIP3    H132760   1.896   2.225  17.938 -1.1519 -0.4340  0.5193
 2855TIP3    H232761   1.879   2.310  18.062  1.4006  0.4243  0.3601
 2856TIP3   OH232762   6.717   5.848  19.367  0.9540  0.0106 -0.4132
 2856TIP3    H132763   6.724   5.798  19.448 -0.7865 -0.7175 -0.6573
 2856TIP3    H232764   6.759   5.793  19.301 -1.3894 -1.4686 -0.7777
 2857TIP3   OH232765   5.129   3.069  17.500  0.6181 -0.0412  0.4934
 2857TIP3    H132766   5.136   3.046  17.407 -2.1254 -2.3967  0.7671
 2857TIP3    H232767   5.111   2.987  17.545  0.2369  1.2703  2.9272
 2858TIP3   OH232768   5.599   2.090  19.271 -0.6875  0.2506 -0.0203
 2858TIP3    H132769   5.506   2.110  19.261 -1.5605 -2.6006  1.3689
 2858TIP3    H232770   5.614   2.017  19.211  0.6305  0.5317 -0.0661
 2859TIP3   OH232771   5.453   1.880  18.798 -0.9391  0.1163  0.3566
 2859TIP3    H132772   5.433   1.951  18.858 -1.1271 -1.8679  2.7901
 2859TIP3    H232773   5.404   1.805  18.832 -1.3996 -1.0285 -2.5635
 2860TIP3   OH232774   6.586   7.422  19.496 -0.4104  0.1142  0.2462
 2860TIP3    H132775   6.498   7.443  19.467 -0.2201  0.5505 -0.0321
 2860TIP3    H232776   6.642   7.483  19.448  0.3749 -2.2805 -2.0994
 2861TIP3   OH232777   2.448   3.899  18.234 -0.3217  0.1564 -0.2580
 2861TIP3    H132778   2.418   3.813  18.205  0.0544  0.0247 -0.2534
 2861TIP3    H232779   2.510   3.880  18.304 -0.5291  0.4448  0.0039
 2862TIP3   OH232780   6.634   2.695  18.789 -0.3369  0.1163  0.8872
 2862TIP3    H132781   6.682   2.615  18.772 -0.2502  0.7287 -2.3810
 2862TIP3    H232782   6.559   2.691  18.730 -0.6822  2.1278  1.1137
 2863TIP3   OH232783   3.054   3.385  18.010  0.4905  0.5794 -0.2159
 2863TIP3    H132784   3.099   3.469  18.005  0.7276  0.5317  0.8549
 2863TIP3    H232785   3.124   3.320  18.005  0.5665  0.5026  1.2758
 2864TIP3   OH232786   5.967   0.754  18.251 -0.1136 -0.2823  0.6861
 2864TIP3    H132787   6.037   0.811  18.284  0.7035 -1.5263  1.1638
 2864TIP3    H232788   5.961   0.684  18.316 -2.0234 -0.0654  0.8208
 2865TIP3   OH232789   2.541   4.998  19.326 -0.0851 -0.1071  0.0326
 2865TIP3    H132790   2.580   5.059  19.389  1.3160 -1.1181  0.1972
 2865TIP3    H232791   2.519   5.052  19.251  0.7068  0.6808  0.3534
 2866TIP3   OH232792   0.177   5.852  18.815 -0.2176 -0.6751 -0.0948
 2866TIP3    H132793   0.262   5.826  18.850  0.3151  2.0547  0.8646
 2866TIP3    H232794   0.144   5.917  18.878 -1.0913  1.4117 -2.5568
 2867TIP3   OH232795   6.372   1.159  18.596 -0.2951 -0.2866 -0.5885
 2867TIP3    H132796   6.463   1.184  18.583  0.1085 -2.0489 -1.3768
 2867TIP3    H232797   6.338   1.146  18.507 -1.0022 -0.7064 -0.2660
 2868TIP3   OH232798   4.084   0.652  19.124  0.2379 -0.3612  0.1059
 2868TIP3    H132799   4.081   0.614  19.036  0.4795  0.6806 -0.3649
 2868TIP3    H232800   4.135   0.733  19.113  1.0228 -0.6645  1.3765
 2869TIP3   OH232801   6.247   4.934  18.056 -0.0103  0.1975  0.5655
 2869TIP3    H132802   6.187   4.860  18.047 -0.3021  0.4155  0.6943
 2869TIP3    H232803   6.202   5.006  18.011  0.6728  0.0715 -0.3353
 2870TIP3   OH232804   4.956   2.239  17.878 -0.7521  0.2511  0.2344
 2870TIP3    H132805   4.921   2.277  17.798  1.3711 -1.0071 -1.4201
 2870TIP3    H232806   4.992   2.313  17.927 -1.2314  0.9401 -0.4360
 2871TIP3   OH232807   5.906   5.641  17.211  0.4710 -0.2770 -0.1417
 2871TIP3    H132808   5.967   5.698  17.164  0.9220  0.6039  1.4251
 2871TIP3    H232809   5.822   5.687  17.208  0.7065  0.2225  0.6447
 2872TIP3   OH232810   7.151   6.052  18.316  0.0385 -0.0806  0.7497
 2872TIP3    H132811   7.151   6.144  18.289 -0.6542 -0.2571  0.1189
 2872TIP3    H232812   7.102   6.007  18.247 -1.8217 -0.5697  2.3174
 2873TIP3   OH232813   0.569   6.627  18.456  0.0706 -0.5277  0.0639
 2873TIP3    H132814   0.505   6.607  18.388  0.1732  1.4115 -0.6488
 2873TIP3    H232815   0.634   6.557  18.450 -1.3338 -1.8770  0.0233
 2874TIP3   OH232816   0.748   4.504  17.471  0.3212 -0.2538  0.4679
 2874TIP3    H132817   0.720   4.489  17.381  0.5007  1.0708  0.1671
 2874TIP3    H232818   0.744   4.418  17.513 -0.2616 -0.7910 -0.6608
 2875TIP3   OH232819   5.488   5.200  18.039 -0.4180  0.0132 -0.1370
 2875TIP3    H132820   5.550   5.226  17.971 -0.7928  2.0786  0.2411
 2875TIP3    H232821   5.461   5.283  18.080 -2.2202 -0.9439  0.7430
 2876TIP3   OH232822   4.519   3.562  17.723 -0.0486 -0.5063  0.0267
 2876TIP3    H132823   4.435   3.542  17.682  0.3601 -1.1316 -0.5325
 2876TIP3    H232824   4.528   3.657  17.715 -0.5123 -0.4836 -0.2676
 2877TIP3   OH232825   6.441   1.349  19.719 -0.3031  0.2978 -0.5751
 2877TIP3    H132826   6.532   1.378  19.721 -0.4868  0.8700 -0.5191
 2877TIP3    H232827   6.445   1.263  19.676  0.5391 -0.6824  1.3222
 2878TIP3   OH232828   4.880   7.516  17.876 -0.2751 -0.0156  0.6870
 2878TIP3    H132829   4.970   7.549  17.880 -0.2274  0.0058 -0.2969
 2878TIP3    H232830   4.887   7.434  17.826 -0.8021 -0.0103  0.5971
 2879TIP3   OH232831   5.497   2.717  18.502 -0.2790  0.5783 -0.1944
 2879TIP3    H132832   5.411   2.681  18.523  0.6060 -1.5893 -0.0261
 2879TIP3    H232833   5.499   2.802  18.546 -1.8375  0.1064  0.8650
 2880TIP3   OH232834   5.705   1.583  19.538  0.1518  0.1188 -0.0957
 2880TIP3    H132835   5.621   1.627  19.550  0.2242  0.1547  0.2944
 2880TIP3    H232836   5.681   1.496  19.505 -0.2337 -0.8196  2.3822
 2881TIP3   OH232837   0.109   4.325  18.613  0.5635  0.0401 -0.2961
 2881TIP3    H132838   0.161   4.400  18.583 -0.3831  1.3241  1.1132
 2881TIP3    H232839   0.024   4.337  18.572  0.6033 -0.6447 -0.5869
 2882TIP3   OH232840   2.286   5.023  17.200  0.0299  0.7449 -0.1065
 2882TIP3    H132841   2.196   5.036  17.171  0.0573  1.6809  0.1786
 2882TIP3    H232842   2.279   5.005  17.294  0.1430  1.0870 -0.0277
 2883TIP3   OH232843   1.006   4.810  18.083 -0.1229  0.0722 -0.0482
 2883TIP3    H132844   1.026   4.820  17.990 -0.2164  1.3237  0.0467
 2883TIP3    H232845   1.011   4.716  18.099  1.5753 -0.0265 -0.9532
 2884TIP3   OH232846   0.067   2.826  18.940  0.4886 -0.1582  0.4673
 2884TIP3    H132847  -0.013   2.776  18.955 -1.1788  0.7727 -3.8618
 2884TIP3    H232848   0.116   2.775  18.875  1.4510  1.1537  0.1155
 2885TIP3   OH232849   3.346   0.339  17.588  0.5428 -0.2276 -0.2738
 2885TIP3    H132850   3.314   0.409  17.531 -0.5844 -0.9098 -0.4978
 2885TIP3    H232851   3.413   0.294  17.536  1.5386  0.8765  0.0025
 2886TIP3   OH232852   3.980   4.742  18.978 -0.2888 -0.2036  0.5345
 2886TIP3    H132853   4.050   4.808  18.980 -0.6978  0.2376  0.4477
 2886TIP3    H232854   3.968   4.716  19.069 -0.3648  0.1038  0.6157
 2887TIP3   OH232855   2.259   2.783  17.511  0.6542  0.0254 -0.5795
 2887TIP3    H132856   2.301   2.697  17.512  0.6251 -0.0079  0.8765
 2887TIP3    H232857   2.327   2.842  17.480  1.9967  0.0177  2.0079
 2888TIP3   OH232858   7.209   2.335  19.814 -0.8289 -0.4176  0.4578
 2888TIP3    H132859   7.236   2.424  19.791  0.5538 -0.7422  0.7521
 2888TIP3    H232860   7.283   2.280  19.791 -1.2333 -1.3604  1.3046
 2889TIP3   OH232861   2.434   4.850  19.848  0.1042 -0.0819  0.1393
 2889TIP3    H132862   2.463   4.766  19.812  1.3452  0.9023 -1.3085
 2889TIP3    H232863   2.339   4.849  19.838  0.2023 -0.8524 -0.9749
 2890TIP3   OH232864   0.059   2.853  19.278 -0.4859 -0.5189  0.1073
 2890TIP3    H132865   0.007   2.772  19.276 -0.5442 -0.5486  1.5062
 2890TIP3    H232866  -0.003   2.920  19.309 -0.5549  0.1722 -1.4544
 2891TIP3   OH232867   5.236   3.525  17.990 -0.1502 -0.6479 -0.2040
 2891TIP3    H132868   5.300   3.516  17.920 -0.2736 -0.6793 -0.3150
 2891TIP3    H232869   5.284   3.567  18.062  0.4927 -2.2797  0.3769
 2892TIP3   OH232870   4.340   4.719  18.604  0.0244 -0.1967 -0.2691
 2892TIP3    H132871   4.245   4.724  18.604 -0.2203 -3.1779 -0.0308
 2892TIP3    H232872   4.369   4.810  18.590 -2.7943  0.8559  0.1404
 2893TIP3   OH232873   2.311   4.434  18.438  0.0210 -0.2610 -0.0968
 2893TIP3    H132874   2.326   4.352  18.485  0.4595 -1.7206 -2.6282
 2893TIP3    H232875   2.252   4.483  18.495  1.9157 -1.0580  2.8298
 2894TIP3   OH232876   6.314   0.203  17.773 -0.0800 -0.1182 -0.7245
 2894TIP3    H132877   6.242   0.236  17.828  1.0728  0.6687  0.3636
 2894TIP3    H232878   6.393   0.226  17.821  0.8712 -2.8953 -0.7900
 2895TIP3   OH232879   3.392   1.442  19.803 -0.1405  0.0371  0.1500
 2895TIP3    H132880   3.467   1.410  19.852  1.0151  0.2644 -1.4064
 2895TIP3    H232881   3.426   1.517  19.753 -0.9642 -0.8357 -1.8193
 2896TIP3   OH232882   1.569   1.302  17.373 -0.6897 -0.5327 -0.5154
 2896TIP3    H132883   1.476   1.283  17.386 -0.6968 -0.9011 -1.0991
 2896TIP3    H232884   1.608   1.292  17.460 -1.7322  2.7958  0.4831
 2897TIP3   OH232885   3.955   5.450  17.914 -0.2661  0.0311  0.3593
 2897TIP3    H132886   3.918   5.363  17.924 -0.5676  0.2722  1.4705
 2897TIP3    H232887   4.044   5.435  17.883  0.0619 -0.7264  1.6165
 2898TIP3   OH232888   7.290   1.210  17.710  0.4138  0.4577 -0.2676
 2898TIP3    H132889   7.259   1.186  17.622 -2.6270  2.4463  0.0954
 2898TIP3    H232890   7.385   1.211  17.702  0.2949 -0.4549 -3.2372
 2899TIP3   OH232891   2.203   4.149  19.267  0.6366  0.1742  0.0887
 2899TIP3    H132892   2.294   4.119  19.271  0.9500  1.0956  0.1666
 2899TIP3    H232893   2.191   4.201  19.347 -0.1225 -0.3666  0.3382
 2900TIP3   OH232894   2.858   7.384  17.138  0.2869 -0.5317 -0.1587
 2900TIP3    H132895   2.929   7.435  17.177  1.1263 -1.3022 -0.6202
 2900TIP3    H232896   2.779   7.437  17.152  1.3135  1.6286 -1.9213
 2901TIP3   OH232897   2.390   5.037  16.949 -0.3253 -0.2269  0.6680
 2901TIP3    H132898   2.356   4.956  16.912 -3.8330  0.9319  1.0249
 2901TIP3    H232899   2.370   5.032  17.042 -1.0460  1.2002  0.6257
 2902TIP3   OH232900   2.964   0.477  18.260 -0.1991 -0.5552 -0.3285
 2902TIP3    H132901   2.902   0.543  18.293  0.1536 -0.3390 -0.0910
 2902TIP3    H232902   3.010   0.521  18.189  1.4197  0.1594  1.0853
 2903TIP3   OH232903   6.172   6.585  17.962 -0.0471 -0.6983 -0.4306
 2903TIP3    H132904   6.126   6.515  17.917 -1.3215  0.0457 -0.3393
 2903TIP3    H232905   6.114   6.661  17.954  1.3512  0.3830 -0.6321
 2904TIP3   OH232906   6.424   7.127  17.895  0.4289  0.1082  0.3676
 2904TIP3    H132907   6.499   7.105  17.840  1.0295 -0.8501  1.5455
 2904TIP3    H232908   6.349   7.118  17.836  1.1198 -0.0933 -0.5120
 2905TIP3   OH232909   2.075   4.620  19.497 -0.8825 -0.7358  0.5933
 2905TIP3    H132910   2.048   4.697  19.447  0.2774 -0.9991 -0.4861
 2905TIP3    H232911   2.030   4.629  19.581 -0.9565  0.9935  0.3999
 2906TIP3   OH232912   3.814   6.802  18.643  0.4478  0.0777  0.1741
 2906TIP3    H132913   3.809   6.748  18.722  2.0509 -0.5966 -0.1518
 2906TIP3    H232914   3.858   6.882  18.671 -0.8469  0.7366  0.3927
 2907TIP3   OH232915   5.034   4.378  19.280  0.1876  0.1788  0.1776
 2907TIP3    H132916   5.016   4.351  19.190  1.2411 -0.0058  0.0031
 2907TIP3    H232917   5.086   4.306  19.316 -1.4222 -0.4231  1.4072
 2908TIP3   OH232918   2.382   0.323  18.527  0.2477 -0.6484  0.3754
 2908TIP3    H132919   2.321   0.262  18.485 -1.3413 -0.1039  1.7693
 2908TIP3    H232920   2.327   0.373  18.588  2.0563  0.0673  1.4880
 2909TIP3   OH232921   5.967   6.585  18.307  0.4005 -0.2069  0.1841
 2909TIP3    H132922   5.890   6.535  18.280 -0.4825 -0.1789  2.4615
 2909TIP3    H232923   5.985   6.643  18.233 -0.6850 -1.4232 -1.0927
 2910TIP3   OH232924   5.587   4.289  19.214  0.1348 -0.2956  0.3118
 2910TIP3    H132925   5.607   4.226  19.145 -1.2320 -2.5349  1.8448
 2910TIP3    H232926   5.629   4.253  19.292 -1.0009  0.4879  1.3141
 2911TIP3   OH232927   2.879   2.355  19.035  0.3218  0.6873  0.4145
 2911TIP3    H132928   2.904   2.399  18.954 -0.7030 -1.1899 -0.9937
 2911TIP3    H232929   2.799   2.307  19.012  0.0561  0.0315  2.5301
 2912TIP3   OH232930   4.957   5.369  17.380  0.4880  0.1022 -0.2133
 2912TIP3    H132931   4.895   5.311  17.335  1.6820 -0.5977 -1.0017
 2912TIP3    H232932   4.957   5.338  17.471 -1.2915  0.9724  0.1339
 2913TIP3   OH232933   7.243   5.144  17.413  0.2943 -0.0694  0.5371
 2913TIP3    H132934   7.191   5.214  17.453  0.0482 -0.2224  0.4861
 2913TIP3    H232935   7.262   5.176  17.325 -0.2824 -0.2965  0.3212
 2914TIP3   OH232936   4.428   3.616  18.494  0.5211  0.4581 -0.4740
 2914TIP3    H132937   4.490   3.605  18.421  0.2093 -1.4139 -0.4826
 2914TIP3    H232938   4.409   3.528  18.524  0.0563  1.1502  1.4255
 2915TIP3   OH232939   4.124   2.590  19.437 -0.4136 -0.3085  0.6810
 2915TIP3    H132940   4.103   2.540  19.516  3.2402 -3.6438 -0.1001
 2915TIP3    H232941   4.203   2.638  19.460 -0.2984  0.0581 -0.4199
 2916TIP3   OH232942   2.345   6.921  18.365 -0.1406 -0.0655  0.2690
 2916TIP3    H132943   2.346   6.911  18.269 -0.7808  2.5274 -0.0894
 2916TIP3    H232944   2.432   6.891  18.392 -0.9942 -3.9486 -0.6170
 2917TIP3   OH232945   2.223   5.037  17.706  0.1031  0.1113 -0.4087
 2917TIP3    H132946   2.233   4.960  17.762 -0.4810 -0.4541 -1.0640
 2917TIP3    H232947   2.154   5.089  17.748  0.7565  0.4822  0.2369
 2918TIP3   OH232948   2.136   7.169  19.602  0.0080 -0.5503  0.0244
 2918TIP3    H132949   2.213   7.221  19.621  0.5404 -1.2613 -0.1414
 2918TIP3    H232950   2.112   7.192  19.513 -0.0419 -0.2419  0.1170
 2919TIP3   OH232951   1.606   5.232  19.434  0.0021 -0.4197  0.1226
 2919TIP3    H132952   1.657   5.165  19.388 -0.3633 -0.8341  0.3202
 2919TIP3    H232953   1.665   5.308  19.438  0.3976 -0.7081 -0.1480
 2920TIP3   OH232954   3.829   3.330  19.938  0.2892  0.2755  0.1445
 2920TIP3    H132955   3.911   3.292  19.970  0.7530  0.8317 -0.3515
 2920TIP3    H232956   3.770   3.255  19.929  0.8747 -0.1898  0.1207
 2921TIP3   OH232957   2.503   7.614  18.667  0.2357 -0.1688 -0.2400
 2921TIP3    H132958   2.460   7.684  18.716 -1.2413 -0.2494 -1.3496
 2921TIP3    H232959   2.539   7.657  18.590 -1.2456 -0.6659 -1.2681
 2922TIP3   OH232960   1.229   2.193  17.759 -0.1141 -0.2386 -0.1443
 2922TIP3    H132961   1.206   2.192  17.667  0.7253 -2.2151 -0.3914
 2922TIP3    H232962   1.268   2.279  17.774 -0.9957  0.4038 -1.4173
 2923TIP3   OH232963   5.148   1.166  19.334  0.3186 -0.5105 -0.1932
 2923TIP3    H132964   5.080   1.123  19.385 -1.7767  0.2576 -2.1740
 2923TIP3    H232965   5.168   1.246  19.382 -2.0115  0.4757 -0.7351
 2924TIP3   OH232966   1.363   4.983  18.913  0.4133 -0.4544  0.3673
 2924TIP3    H132967   1.391   4.974  18.821 -0.9743  0.5973 -0.1836
 2924TIP3    H232968   1.310   4.905  18.928  0.7696 -0.7079  0.3317
 2925TIP3   OH232969   4.505   3.683  17.441  0.4554 -0.1774 -0.3829
 2925TIP3    H132970   4.478   3.710  17.353 -0.9336 -1.7188 -0.4747
 2925TIP3    H232971   4.443   3.614  17.464  0.6177  0.3881  1.9303
 2926TIP3   OH232972   1.301   5.401  18.369 -0.1522  0.5230 -0.4392
 2926TIP3    H132973   1.390   5.386  18.338  0.3281 -0.3691  1.2473
 2926TIP3    H232974   1.247   5.395  18.291  1.1383 -0.1002 -1.3099
 2927TIP3   OH232975   0.746   0.328  17.136  0.0508  0.0966  0.0277
 2927TIP3    H132976   0.664   0.326  17.086  0.3144  0.4253 -0.4233
 2927TIP3    H232977   0.781   0.239  17.126 -0.3980 -0.1342  0.4760
 2928TIP3   OH232978   0.878   6.663  19.166  0.6274 -0.0248  0.3574
 2928TIP3    H132979   0.868   6.582  19.216 -1.0915 -0.4036 -0.5158
 2928TIP3    H232980   0.960   6.652  19.118 -0.0412 -1.7183 -0.4883
 2929TIP3   OH232981   0.849   3.126  19.262 -0.4727  0.4745  0.1751
 2929TIP3    H132982   0.875   3.036  19.283 -1.2911  0.6915  2.3737
 2929TIP3    H232983   0.930   3.176  19.266 -0.4748  0.4124  2.6589
 2930TIP3   OH232984   3.066   1.105  19.561 -0.0382  0.1843 -0.2857
 2930TIP3    H132985   3.072   1.148  19.475  1.3104 -1.2898 -0.9749
 2930TIP3    H232986   3.093   1.172  19.623 -0.5914  1.1410 -1.0363
 2931TIP3   OH232987   4.231   1.821  17.751 -0.3552  0.1817  0.4909
 2931TIP3    H132988   4.186   1.873  17.685 -0.5839 -1.5400 -0.8060
 2931TIP3    H232989   4.279   1.884  17.804 -0.5677  1.6771 -1.0189
 2932TIP3   OH232990   2.353   0.462  17.132  0.2162  0.5387 -0.2979
 2932TIP3    H132991   2.309   0.392  17.179  2.0151  0.8513  2.0203
 2932TIP3    H232992   2.282   0.514  17.094 -1.1857 -1.4667 -0.5335
 2933TIP3   OH232993   0.821   6.480  18.950  0.6037  0.0808 -0.5124
 2933TIP3    H132994   0.799   6.569  18.977  1.4888 -0.2260  1.3723
 2933TIP3    H232995   0.914   6.485  18.928  0.1723  0.0619 -2.5871
 2934TIP3   OH232996   3.894   0.408  18.662 -0.4217  0.4531  0.3015
 2934TIP3    H132997   3.804   0.438  18.675 -1.0263 -0.1533 -2.0339
 2934TIP3    H232998   3.888   0.313  18.659  0.3034  0.4062  0.1607
 2935TIP3   OH232999   4.426   5.320  18.160  0.3387 -0.0215 -0.1782
 2935TIP3    H133000   4.436   5.229  18.189  0.9369  0.4119  1.0336
 2935TIP3    H233001   4.352   5.353  18.211  0.0627  0.1520 -0.6879
 2936TIP3   OH233002   2.067   1.865  19.983  0.3703  0.6573 -0.6261
 2936TIP3    H133003   2.119   1.818  20.049 -0.2482  1.0652  0.1822
 2936TIP3    H233004   1.977   1.854  20.012  0.1893  2.1168 -0.5509
 2937TIP3   OH233005   7.607   4.735  17.333 -0.2793  0.3067 -0.2421
 2937TIP3    H133006   7.557   4.662  17.297 -1.5500  1.1223 -0.1982
 2937TIP3    H233007   7.622   4.711  17.425  1.5618 -1.0350 -0.8201
 2938TIP3   OH233008   0.158   0.804  17.027 -0.0053 -0.2318 -0.1854
 2938TIP3    H133009   0.075   0.821  17.071 -0.1648 -1.5175  0.0230
 2938TIP3    H233010   0.167   0.877  16.965 -0.1974  1.1228  1.3117
 2939TIP3   OH233011   3.300   0.428  19.300 -0.1601  0.8466  0.3445
 2939TIP3    H133012   3.380   0.476  19.279 -0.9720  1.8450 -0.6420
 2939TIP3    H233013   3.240   0.495  19.333 -1.0240  0.3786 -0.2276
 2940TIP3   OH233014   2.515   0.472  18.326  0.1710 -0.6447 -0.2255
 2940TIP3    H133015   2.567   0.392  18.318 -0.0748 -0.6738 -2.0614
 2940TIP3    H233016   2.450   0.452  18.394  1.4984 -1.1843  0.9216
 2941TIP3   OH233017   6.126   7.000  18.859  0.0600 -0.0136  0.0418
 2941TIP3    H133018   6.146   7.093  18.866 -0.1878  0.0577 -0.1455
 2941TIP3    H233019   6.030   6.997  18.853  0.0882 -0.2479 -0.3771
 2942TIP3   OH233020   6.415   2.834  19.071 -0.7712 -0.2729 -0.3364
 2942TIP3    H133021   6.353   2.791  19.012 -1.2535  0.0308 -0.0671
 2942TIP3    H233022   6.493   2.850  19.018 -0.7329 -1.1199 -0.5469
 2943TIP3   OH233023   1.290   6.382  18.049  0.2245  0.7289 -0.0918
 2943TIP3    H133024   1.230   6.418  17.983  1.2100 -0.1152 -1.5106
 2943TIP3    H233025   1.236   6.370  18.127 -0.9562  1.8819 -0.6938
 2944TIP3   OH233026   2.027   6.559  18.915  0.0018 -0.3573  0.4185
 2944TIP3    H133027   2.036   6.648  18.881 -3.2381  0.0921  0.4314
 2944TIP3    H233028   2.000   6.570  19.006 -1.1505 -1.2864  0.2219
 2945TIP3   OH233029   6.505   4.028  17.994  0.1211 -0.1829  0.2020
 2945TIP3    H133030   6.597   4.042  17.970  0.3506 -2.2822 -0.3480
 2945TIP3    H233031   6.498   4.060  18.084  0.7460  2.2831 -0.5511
 2946TIP3   OH233032   3.388   5.726  17.809  0.0568 -0.1197 -0.3860
 2946TIP3    H133033   3.444   5.723  17.887 -0.2513 -0.6692 -0.1833
 2946TIP3    H233034   3.439   5.681  17.741  0.1965  0.0915 -0.4222
 2947TIP3   OH233035   6.312   6.207  18.075  0.7083  0.1573  0.3684
 2947TIP3    H133036   6.292   6.265  18.149  1.5158 -0.9879  1.5166
 2947TIP3    H233037   6.304   6.119  18.111 -2.1957 -0.6155 -1.7422
 2948TIP3   OH233038   2.569   0.721  19.490  0.1339  0.4216 -0.1601
 2948TIP3    H133039   2.537   0.778  19.560  2.0119 -0.2313  1.3383
 2948TIP3    H233040   2.663   0.715  19.506  0.5027 -0.3938 -2.3156
 2949TIP3   OH233041   3.902   0.500  19.918 -0.2042  0.1454  0.3461
 2949TIP3    H133042   3.822   0.552  19.906 -1.0260 -0.9673  0.7381
 2949TIP3    H233043   3.958   0.553  19.974 -0.4335  1.1855 -0.3980
 2950TIP3   OH233044   1.593   6.267  17.298  0.2635 -0.2269 -0.1986
 2950TIP3    H133045   1.498   6.269  17.285  0.4994 -1.1096 -2.7678
 2950TIP3    H233046   1.624   6.203  17.234  2.4683 -1.1645  1.6854
 2951TIP3   OH233047   2.400   4.193  20.115  0.0330 -0.7791 -0.3322
 2951TIP3    H133048   2.351   4.274  20.103 -0.2791 -0.9148 -0.0074
 2951TIP3    H233049   2.486   4.211  20.078 -0.5079 -0.8034 -1.6619
 2952TIP3   OH233050   0.622   7.325  18.692 -0.3268  0.7618 -0.3403
 2952TIP3    H133051   0.558   7.297  18.758 -0.3348 -0.4868 -0.8564
 2952TIP3    H233052   0.688   7.256  18.691 -0.7029  0.3582 -2.1267
 2953TIP3   OH233053   2.306   5.622  17.563 -0.3218 -0.4588 -0.1721
 2953TIP3    H133054   2.258   5.566  17.625 -2.2498 -1.3240 -2.2751
 2953TIP3    H233055   2.261   5.706  17.567 -0.3153 -0.4526 -0.2285
 2954TIP3   OH233056   4.428   0.201  19.223  0.1669 -0.5013 -0.3488
 2954TIP3    H133057   4.518   0.230  19.208  1.8273 -4.0660  1.3526
 2954TIP3    H233058   4.437   0.108  19.247 -4.0714 -1.2556 -0.8999
 2955TIP3   OH233059   4.583   4.718  18.444  0.5911 -1.0021  0.5922
 2955TIP3    H133060   4.626   4.804  18.442 -1.7580  0.3107 -2.1937
 2955TIP3    H233061   4.565   4.702  18.536  1.6189  1.2578  1.2524
 2956TIP3   OH233062   6.347   0.344  19.024 -0.0424  0.4508 -0.0795
 2956TIP3    H133063   6.392   0.391  18.953  0.2081 -0.0868 -0.2880
 2956TIP3    H233064   6.370   0.252  19.009 -2.0923  0.0023 -0.8438
 2957TIP3   OH233065   6.558   6.567  19.068 -0.4436  0.2668  0.3479
 2957TIP3    H133066   6.612   6.595  19.142 -1.2447 -1.7211  1.7595
 2957TIP3    H233067   6.480   6.623  19.074 -0.4253  0.2406  0.8988
 2958TIP3   OH233068   1.123   1.985  19.763 -0.1233 -0.5239 -0.3734
 2958TIP3    H133069   1.147   1.904  19.718 -0.7133 -0.5317 -0.6755
 2958TIP3    H233070   1.060   2.027  19.706  0.0128  0.0463 -0.1099
 2959TIP3   OH233071   4.000   6.078  18.603  0.3448 -0.4558  0.1691
 2959TIP3    H133072   3.933   6.035  18.551  0.6009 -0.6320 -0.0183
 2959TIP3    H233073   3.968   6.167  18.616 -0.3808 -0.8105  0.8956
 2960TIP3   OH233074   7.352   4.190  17.979  0.2192 -0.6530  0.3059
 2960TIP3    H133075   7.409   4.262  17.951 -0.2863 -0.5290 -0.4426
 2960TIP3    H233076   7.290   4.180  17.907  0.0534 -1.5997  0.5707
 2961TIP3   OH233077   2.110   2.743  18.643  0.1463 -0.3801  0.4763
 2961TIP3    H133078   2.027   2.696  18.630 -0.3366  0.2507  1.2446
 2961TIP3    H233079   2.109   2.771  18.734  0.8159  0.3912  0.2633
 2962TIP3   OH233080   7.342   7.651  19.101 -0.3383  0.1849  0.3610
 2962TIP3    H133081   7.316   7.643  19.009 -4.1178  1.4171  1.1307
 2962TIP3    H233082   7.283   7.591  19.147 -0.7395  1.9263  2.2243
 2963TIP3   OH233083   6.279   4.823  17.517  0.2881 -0.3960 -0.0511
 2963TIP3    H133084   6.330   4.742  17.525  1.6258  0.4546  0.1689
 2963TIP3    H233085   6.205   4.810  17.577  0.9415 -1.1116  0.6229
 2964TIP3   OH233086   6.577   3.386  19.135 -0.5615  0.0620  0.9982
 2964TIP3    H133087   6.566   3.418  19.046 -0.4574 -0.4543  0.7968
 2964TIP3    H233088   6.488   3.371  19.166 -0.6652  1.4979  1.4564
 2965TIP3   OH233089   3.546   1.660  17.218  0.4512  0.3032 -0.0511
 2965TIP3    H133090   3.573   1.721  17.149  0.8665 -0.8974 -0.9695
 2965TIP3    H233091   3.627   1.620  17.248  0.1136 -0.2870  0.0822
 2966TIP3   OH233092   1.633   5.369  19.092 -0.3809  0.1252  0.2722
 2966TIP3    H133093   1.588   5.298  19.047 -1.2370  1.2606 -0.7197
 2966TIP3    H233094   1.583   5.384  19.172  0.7549 -1.4465  1.3339
 2967TIP3   OH233095   2.823   5.047  19.170 -0.1865 -1.0984 -0.4239
 2967TIP3    H133096   2.764   5.111  19.211 -0.3030 -0.7371 -1.1442
 2967TIP3    H233097   2.764   4.979  19.136 -0.2268 -0.6074 -1.3755
 2968TIP3   OH233098   6.582   6.805  17.909 -0.1441  0.0467  0.5916
 2968TIP3    H133099   6.520   6.739  17.879 -1.0184  0.7640  0.8003
 2968TIP3    H233100   6.553   6.827  17.997 -0.4922  1.4626  0.1389
 2969TIP3   OH233101   4.453   3.903  18.199 -0.0237 -0.6004 -0.7647
 2969TIP3    H133102   4.521   3.969  18.205  0.0288 -0.7505  0.4690
 2969TIP3    H233103   4.496   3.828  18.158  0.4223 -0.5205 -0.4522
 2970TIP3   OH233104   3.965   0.421  19.573  0.3495  0.5452 -0.5117
 2970TIP3    H133105   4.024   0.465  19.512 -1.1786  2.4771 -0.6936
 2970TIP3    H233106   3.935   0.490  19.632  0.9663 -1.0636  1.8468
 2971TIP3   OH233107   6.100   2.573  19.383  0.2269 -0.4439  0.0821
 2971TIP3    H133108   6.162   2.585  19.312 -0.6364  1.2618 -0.4533
 2971TIP3    H233109   6.117   2.647  19.442  1.2060 -2.0343  1.9292
 2972TIP3   OH233110   4.088   4.468  17.774  0.4291 -0.3756 -0.2652
 2972TIP3    H133111   4.179   4.488  17.754  0.0623  0.8322 -0.8009
 2972TIP3    H233112   4.089   4.439  17.865  1.1616  0.9731  0.1828
 2973TIP3   OH233113   4.479   6.487  18.445  0.3392  0.7116  0.1914
 2973TIP3    H133114   4.554   6.518  18.495  0.2354 -1.0325  1.5363
 2973TIP3    H233115   4.489   6.392  18.444  0.9200  0.6463 -4.1333
 2974TIP3   OH233116   4.498   6.114  18.092 -0.1450 -0.1418  0.1686
 2974TIP3    H133117   4.548   6.038  18.062 -0.5904 -0.4703  0.2442
 2974TIP3    H233118   4.435   6.130  18.021  1.1187  1.2910 -0.6955
 2975TIP3   OH233119   5.939   2.616  16.839  0.1836 -0.5401 -0.0896
 2975TIP3    H133120   6.028   2.581  16.844  1.5036  2.7067  1.9753
 2975TIP3    H233121   5.948   2.696  16.788 -1.5939 -0.2296  0.0342
 2976TIP3   OH233122   0.520   1.938  17.388 -0.6526 -0.1889 -0.0750
 2976TIP3    H133123   0.441   1.939  17.442 -2.5984  2.0371 -2.6788
 2976TIP3    H233124   0.550   2.029  17.388 -0.2863 -0.2656 -2.0648
 2977TIP3   OH233125   6.532   1.069  17.858  0.1712  0.2174 -0.2829
 2977TIP3    H133126   6.440   1.085  17.835 -0.2666 -1.2642  0.3060
 2977TIP3    H233127   6.569   1.027  17.781 -0.0572 -0.5313  0.0049
 2978TIP3   OH233128   7.345   6.197  18.084 -0.0067  0.0097  0.3151
 2978TIP3    H133129   7.302   6.274  18.121 -0.4514 -0.3040  0.4552
 2978TIP3    H233130   7.371   6.145  18.159  2.3630  1.0819  0.3446
 2979TIP3   OH233131   4.158   0.200  19.521 -0.0327  0.2941  0.3671
 2979TIP3    H133132   4.096   0.248  19.465  0.4296 -0.3039 -0.7030
 2979TIP3    H233133   4.112   0.119  19.543  0.1794  0.0600 -0.0368
 2980TIP3   OH233134   4.816   1.009  19.228  0.3039  0.2766 -0.3508
 2980TIP3    H133135   4.878   0.957  19.280 -1.3910 -1.0614  0.4156
 2980TIP3    H233136   4.737   0.956  19.224 -1.0652  2.2330 -0.7132
 2981TIP3   OH233137   1.382   1.905  19.835 -0.0073  0.2105  0.5521
 2981TIP3    H133138   1.419   1.856  19.761  0.4426 -1.4884  1.8427
 2981TIP3    H233139   1.291   1.921  19.809  0.6027  1.2160 -1.0966
 2982TIP3   OH233140   7.223   3.381  17.537 -0.1441  0.2839 -0.0417
 2982TIP3    H133141   7.162   3.454  17.525 -0.6410 -0.0281  0.5154
 2982TIP3    H233142   7.251   3.358  17.449 -0.9798  0.3109 -0.3203
 2983TIP3   OH233143   5.420   0.483  19.051 -0.0790 -0.0723 -0.0913
 2983TIP3    H133144   5.496   0.438  19.088 -0.0766  1.7128  2.3583
 2983TIP3    H233145   5.458   0.551  18.995  0.0547 -0.4202 -0.4257
 2984TIP3   OH233146   4.245   4.669  19.675  0.3252 -0.0106 -0.4531
 2984TIP3    H133147   4.284   4.582  19.665  0.3628 -0.0821  0.3126
 2984TIP3    H233148   4.229   4.678  19.768 -1.5134  0.0059 -0.7226
 2985TIP3   OH233149   0.923   6.772  18.895  0.7031  0.5919 -0.0822
 2985TIP3    H133150   0.829   6.766  18.912  0.9349  1.4710  1.8831
 2985TIP3    H233151   0.931   6.782  18.800 -1.2415  1.2854 -0.2101
 2986TIP3   OH233152   6.796   6.108  19.357  0.1802 -0.6976  0.5386
 2986TIP3    H133153   6.746   6.033  19.389 -0.2232  0.1059  1.8516
 2986TIP3    H233154   6.859   6.070  19.295 -2.7157 -1.6331 -2.0702
 2987TIP3   OH233155   0.560   3.233  18.685 -0.5843 -0.2296 -0.1466
 2987TIP3    H133156   0.572   3.309  18.742  1.1368 -0.5830  0.0042
 2987TIP3    H233157   0.465   3.227  18.674 -0.9642  0.0473  2.3785
 2988TIP3   OH233158   0.677   4.744  19.703 -0.1366  0.0487 -0.7101
 2988TIP3    H133159   0.586   4.762  19.727  0.2381 -0.3092  1.1115
 2988TIP3    H233160   0.721   4.829  19.712  0.1276 -0.2095  0.5155
 2989TIP3   OH233161   1.537   6.710  17.846 -0.3855  0.7155  0.0007
 2989TIP3    H133162   1.516   6.642  17.783 -1.1201  3.3571 -2.8593
 2989TIP3    H233163   1.614   6.678  17.893  0.1193 -1.4354 -2.1500
 2990TIP3   OH233164   1.333   6.807  18.403  0.7438 -0.5732 -0.5031
 2990TIP3    H133165   1.400   6.753  18.361  0.1661 -1.0859 -0.7784
 2990TIP3    H233166   1.374   6.892  18.413  1.3139 -0.7795 -1.0095
 2991TIP3   OH233167   3.749   6.984  18.344 -0.6818  0.5121 -0.2422
 2991TIP3    H133168   3.723   6.921  18.410 -1.5143  0.9760 -0.1206
 2991TIP3    H233169   3.690   6.968  18.270  1.4223 -1.2937 -1.6994
 2992TIP3   OH233170   5.410   6.769  19.643  0.6045  0.3295 -0.0780
 2992TIP3    H133171   5.481   6.830  19.666  0.6256 -0.0251  0.8471
 2992TIP3    H233172   5.450   6.709  19.580  0.4767  1.4845 -1.2918
 2993TIP3   OH233173   7.661   5.680  19.116  0.4528 -0.2233 -0.0572
 2993TIP3    H133174   7.699   5.767  19.129 -1.5322  0.7016 -0.0670
 2993TIP3    H233175   7.643   5.647  19.204 -0.9957  0.4541 -0.0607
 2994TIP3   OH233176   0.523   5.556  18.889  0.1310  0.2374 -0.6563
 2994TIP3    H133177   0.528   5.535  18.983 -0.1878 -1.7334 -1.0247
 2994TIP3    H233178   0.462   5.628  18.884 -1.3100 -0.8280  0.5354
 2995TIP3   OH233179   6.520   6.853  18.648 -0.4487 -0.2629  0.1196
 2995TIP3    H133180   6.571   6.884  18.723  1.8995 -3.1403 -0.1159
 2995TIP3    H233181   6.431   6.842  18.682  0.1428  0.2685  1.9524
 2996TIP3   OH233182   0.861   1.403  17.955 -0.1093  0.3640  0.1657
 2996TIP3    H133183   0.778   1.428  17.914  0.5440  1.3547 -0.6249
 2996TIP3    H233184   0.848   1.313  17.985 -1.7158  0.7711  0.7614
 2997TIP3   OH233185   5.240   2.298  17.926 -0.1253  0.2354 -0.9634
 2997TIP3    H133186   5.169   2.246  17.889 -1.5776  1.2473  0.2740
 2997TIP3    H233187   5.299   2.313  17.852 -1.3591 -0.3625 -2.1200
 2998TIP3   OH233188   3.702   1.520  19.844 -0.1865  0.0000 -0.7055
 2998TIP3    H133189   3.773   1.554  19.898  0.3571 -0.5872 -1.0518
 2998TIP3    H233190   3.686   1.431  19.877 -2.3444  0.8968  0.9430
 2999TIP3   OH233191   6.772   2.123  19.045  0.1967  0.2635 -0.2488
 2999TIP3    H133192   6.785   2.029  19.031 -0.6895  0.1649 -0.4571
 2999TIP3    H233193   6.834   2.165  18.985 -0.3143 -0.1868 -1.1071
 3000TIP3   OH233194   7.490   6.261  18.587  0.2204  0.2412 -0.6703
 3000TIP3    H133195   7.538   6.302  18.515  0.3040 -0.3097 -0.9277
 3000TIP3    H233196   7.464   6.335  18.642 -1.0075  0.8239 -1.9581
 3001TIP3   OH233197   5.101   5.145  18.600  0.0147  0.3034  0.2315
 3001TIP3    H133198   5.038   5.075  18.612  1.1290 -1.0151 -1.1541
 3001TIP3    H233199   5.149   5.149  18.683 -0.5233 -0.0858  0.5633
 3002TIP3   OH233200   6.474   1.193  17.252 -0.0893 -0.7395 -0.2123
 3002TIP3    H133201   6.459   1.121  17.314 -1.6840 -0.1993  0.0810
 3002TIP3    H233202   6.533   1.253  17.298 -1.5305 -0.1744  0.9764
 3003TIP3   OH233203   2.117   3.974  18.605  0.0847  0.5484  0.7799
 3003TIP3    H133204   2.071   3.919  18.668 -3.4383  0.6903 -1.3988
 3003TIP3    H233205   2.168   3.912  18.552 -2.2180 -0.5419 -0.3312
 3004TIP3   OH233206   5.864   1.774  19.433 -0.4274  0.0971  0.0421
 3004TIP3    H133207   5.827   1.689  19.457 -2.5494  0.6425 -1.0706
 3004TIP3    H233208   5.837   1.832  19.504  0.7439 -0.0471  0.6366
 3005TIP3   OH233209   0.811   7.126  16.657 -0.5822  0.3175 -0.1828
 3005TIP3    H133210   0.755   7.202  16.640 -0.0082  0.6308 -0.7394
 3005TIP3    H233211   0.898   7.154  16.627 -0.3223 -0.4878 -0.1981
 3006TIP3   OH233212   6.978   7.632  17.577  0.2072 -0.0793  0.0145
 3006TIP3    H133213   7.055   7.689  17.574  0.1382 -0.0071 -1.9321
 3006TIP3    H233214   7.009   7.548  17.543 -0.2421 -0.5127  0.6528
 3007TIP3   OH233215   3.240   2.129  18.395  0.1294 -0.0775  0.2707
 3007TIP3    H133216   3.169   2.065  18.390 -0.7220  0.8366  0.1721
 3007TIP3    H233217   3.204   2.199  18.449  1.3399 -0.0489  1.0775
 3008TIP3   OH233218   3.792   6.140  18.793 -0.8166 -0.0258  0.3832
 3008TIP3    H133219   3.881   6.116  18.818 -1.4304 -0.8421  1.9891
 3008TIP3    H233220   3.775   6.221  18.841 -1.2352 -0.3791  0.8482
 3009TIP3   OH233221   1.286   5.094  18.444  0.2938 -0.0488 -0.3158
 3009TIP3    H133222   1.283   5.187  18.425 -0.6075 -0.2121 -1.0366
 3009TIP3    H233223   1.353   5.059  18.385  3.0727  0.5835  2.1818
 3010TIP3   OH233224   2.870   1.184  18.952  0.0533  0.5092  0.3550
 3010TIP3    H133225   2.931   1.257  18.959 -0.3097  1.0161 -1.4326
 3010TIP3    H233226   2.804   1.201  19.020  0.4210  1.3895  0.5046
 3011TIP3   OH233227   6.412   3.848  18.515  0.4736 -0.3536  0.2967
 3011TIP3    H133228   6.389   3.760  18.545 -1.2011  0.3337  1.2009
 3011TIP3    H233229   6.446   3.836  18.427 -1.0435 -1.7683 -0.1360
 3012TIP3   OH233230   1.547   5.286  18.258 -0.4944 -0.2414 -0.3922
 3012TIP3    H133231   1.502   5.202  18.251  0.3472 -0.9369  1.6758
 3012TIP3    H233232   1.636   5.264  18.287  0.7562  1.1904 -2.7651
 3013TIP3   OH233233   6.472   4.202  17.118  0.2514 -0.0752 -0.2248
 3013TIP3    H133234   6.541   4.141  17.091  1.0883  0.0776  1.4218
 3013TIP3    H233235   6.399   4.184  17.059  1.2373 -1.1564 -1.1627
 3014TIP3   OH233236   4.072   6.869  19.521  0.0046 -0.4855 -0.1332
 3014TIP3    H133237   4.106   6.958  19.511 -1.4257  0.2649  1.3060
 3014TIP3    H233238   4.147   6.819  19.553  0.1315  0.8915  1.9105
 3015TIP3   OH233239   4.171   2.518  18.707 -0.3453 -0.1802  0.2781
 3015TIP3    H133240   4.230   2.502  18.633 -0.6327  4.1972 -1.1884
 3015TIP3    H233241   4.224   2.565  18.771 -1.1887 -0.0298  0.8890
 3016TIP3   OH233242   5.898   2.905  19.179  0.1264  0.1440 -0.7507
 3016TIP3    H133243   5.857   2.845  19.241 -1.8905 -0.6645 -2.7073
 3016TIP3    H233244   5.988   2.873  19.171  0.0467 -0.5324  0.7284
 3017TIP3   OH233245   4.503   6.817  19.668  0.0214 -0.1279 -0.0528
 3017TIP3    H133246   4.524   6.827  19.761 -0.3757 -0.1517  0.0428
 3017TIP3    H233247   4.579   6.854  19.622  0.7934 -1.2633  0.2636
 3018TIP3   OH233248   4.021   5.973  19.191 -0.3633 -0.1633 -0.2779
 3018TIP3    H133249   4.116   5.984  19.186 -0.4713  0.0972 -2.9863
 3018TIP3    H233250   4.008   5.884  19.222  0.7205  0.1610  1.2169
 3019TIP3   OH233251   5.834   5.802  20.032  0.4570 -0.4386 -0.4731
 3019TIP3    H133252   5.823   5.787  19.939 -1.6319 -2.3212 -0.0163
 3019TIP3    H233253   5.863   5.893  20.039 -1.7510  0.5493 -2.8318
 3020TIP3   OH233254   3.805   3.091  19.635 -0.1552  0.2948 -0.1584
 3020TIP3    H133255   3.811   3.105  19.541  0.9924  1.0170  0.0004
 3020TIP3    H233256   3.715   3.115  19.658 -0.7530 -0.8396 -1.1997
 3021TIP3   OH233257   3.290   5.801  19.621 -0.2830 -0.5386 -0.0469
 3021TIP3    H133258   3.257   5.889  19.605  0.2404  0.3434  2.9569
 3021TIP3    H233259   3.355   5.786  19.553 -0.0172  1.6290 -0.3258
 3022TIP3   OH233260   5.889   3.703  17.806 -0.6388  0.0895 -0.1822
 3022TIP3    H133261   5.813   3.645  17.802 -0.3825 -0.2695  0.1084
 3022TIP3    H233262   5.901   3.722  17.899  1.1929 -1.9725  0.0954
 3023TIP3   OH233263   7.264   2.542  19.273  0.0198 -0.1123  0.2794
 3023TIP3    H133264   7.336   2.591  19.233  0.5194  0.0260  1.3297
 3023TIP3    H233265   7.194   2.606  19.283  0.0421 -0.0464  0.0280
 3024TIP3   OH233266   3.662   3.160  19.139  0.1406  0.1471  0.6346
 3024TIP3    H133267   3.575   3.121  19.130 -0.3661  1.2874  0.3700
 3024TIP3    H233268   3.655   3.243  19.091  1.4410  0.1447  0.4232
 3025TIP3   OH233269   2.719   1.844  19.800  1.0281 -0.2106  0.0407
 3025TIP3    H133270   2.782   1.916  19.797 -0.2332  0.8984 -1.9199
 3025TIP3    H233271   2.642   1.877  19.753 -0.8650 -1.6805  1.8974
 3026TIP3   OH233272   2.673   2.152  19.464  0.1380  0.4023 -0.0809
 3026TIP3    H133273   2.612   2.167  19.536  0.5143  1.1853  0.0867
 3026TIP3    H233274   2.707   2.064  19.479 -1.4211 -0.3207 -0.5357
 3027TIP3   OH233275   5.294   7.453  17.745 -0.5923 -0.6770  0.0014
 3027TIP3    H133276   5.352   7.440  17.820 -2.0081 -1.9151  0.9371
 3027TIP3    H233277   5.352   7.447  17.669  0.8296  0.3062  0.9506
 3028TIP3   OH233278   3.004   2.202  19.612  0.3596  0.0540 -0.1450
 3028TIP3    H133279   2.934   2.252  19.654 -1.5113 -0.8560 -2.0261
 3028TIP3    H233280   2.989   2.112  19.641  0.5120 -0.2054 -0.8610
 3029TIP3   OH233281   2.658   1.090  19.661  0.0151  0.1648  0.5464
 3029TIP3    H133282   2.697   1.148  19.726 -1.3047 -0.4944  1.9876
 3029TIP3    H233283   2.640   1.147  19.586  0.5182  1.1851  1.1763
 3030TIP3   OH233284   6.062   0.441  18.436 -0.2679 -0.7986  0.2542
 3030TIP3    H133285   5.997   0.381  18.473 -0.0968 -1.0082  0.2207
 3030TIP3    H233286   6.032   0.455  18.346  0.6315 -2.2365 -0.3088
 3031TIP3   OH233287   1.309   1.252  17.473  0.3405  0.4380  0.4846
 3031TIP3    H133288   1.319   1.233  17.566 -1.4109 -2.0272  0.2827
 3031TIP3    H233289   1.218   1.282  17.464  0.0051 -0.7739 -0.5531
 3032TIP3   OH233290   4.574   0.912  19.091  0.5445 -0.5804 -0.0084
 3032TIP3    H133291   4.537   0.949  19.010 -1.0972 -0.0989  0.9234
 3032TIP3    H233292   4.611   0.828  19.064  0.8918  0.0017 -1.4384
 3033TIP3   OH233293   5.575   3.382  19.149  0.1724  0.3403 -0.5432
 3033TIP3    H133294   5.640   3.444  19.183 -0.2712  0.2597  0.5140
 3033TIP3    H233295   5.619   3.297  19.150  0.0640  0.2876  0.1626
 3034TIP3   OH233296   7.286   7.117  18.278  0.4919 -0.8568 -0.5843
 3034TIP3    H133297   7.208   7.071  18.309 -0.5903  0.6082 -1.0225
 3034TIP3    H233298   7.344   7.048  18.246 -0.9559 -1.9303 -0.9905
 3035TIP3   OH233299   4.452   4.968  18.589 -0.6699  0.3801 -0.1915
 3035TIP3    H133300   4.531   4.963  18.643 -0.2424 -0.0665 -0.8464
 3035TIP3    H233301   4.390   5.018  18.643 -0.4603 -0.5475  0.9514
 3036TIP3   OH233302   4.397   0.516  19.173 -0.1349  0.3002 -0.2401
 3036TIP3    H133303   4.351   0.594  19.144 -3.1801 -1.0431  0.5402
 3036TIP3    H233304   4.328   0.454  19.196  2.0871 -2.7194 -0.9434
 3037TIP3   OH233305   3.124   1.576  19.805 -0.6839 -0.1540  0.2217
 3037TIP3    H133306   3.153   1.666  19.794 -0.6720  0.1235  2.0648
 3037TIP3    H233307   3.202   1.529  19.835 -1.1999 -0.2460  1.4849
 3038TIP3   OH233308   5.373   5.777  17.670  0.3484 -0.2741  0.5117
 3038TIP3    H133309   5.401   5.713  17.605  0.3834 -0.3983  0.6489
 3038TIP3    H233310   5.448   5.785  17.729  0.9855  1.1320 -0.4443
 3039TIP3   OH233311   1.986   0.351  17.200  0.1651 -0.2084  0.9489
 3039TIP3    H133312   1.957   0.384  17.285 -0.1826 -0.4398  0.9222
 3039TIP3    H233313   1.972   0.256  17.206 -2.2036  0.0055 -0.2564
 3040TIP3   OH233314   7.645   6.832  17.822 -0.5243  0.2877  0.4457
 3040TIP3    H133315   7.736   6.802  17.824 -0.4246  0.4877 -0.5346
 3040TIP3    H233316   7.652   6.925  17.799 -1.0002  0.1011 -0.5295
 3041TIP3   OH233317   2.346   2.523  19.775 -0.4340 -0.1829  0.0797
 3041TIP3    H133318   2.277   2.480  19.824  0.6104  1.4459  3.2874
 3041TIP3    H233319   2.419   2.460  19.776 -0.9129 -0.7801 -0.8573
 3042TIP3   OH233320   1.561   4.661  18.189  0.2688 -0.0399 -0.6093
 3042TIP3    H133321   1.482   4.704  18.222  0.5786  0.2563 -0.2340
 3042TIP3    H233322   1.593   4.720  18.121  0.6583  0.3006 -0.1390
 3043TIP3   OH233323   2.052   2.859  19.364 -0.1341 -0.3757  0.6587
 3043TIP3    H133324   1.966   2.848  19.404 -1.0778 -0.0947 -1.1667
 3043TIP3    H233325   2.060   2.954  19.353 -0.7477 -0.5184 -1.4452
 3044TIP3   OH233326   1.354   0.651  17.732 -0.1892 -0.5060  0.0588
 3044TIP3    H133327   1.331   0.638  17.640  2.4588 -0.5986 -0.6685
 3044TIP3    H233328   1.373   0.744  17.738  0.7639 -0.7019  0.2040
 3045TIP3   OH233329   2.651   3.128  17.351  0.0424  0.0686  0.5941
 3045TIP3    H133330   2.712   3.146  17.279 -0.2714  1.2969  0.6223
 3045TIP3    H233331   2.654   3.206  17.406 -0.4318 -0.4721  1.4173
 3046TIP3   OH233332   1.698   5.309  17.990  0.0904  0.3413 -0.1826
 3046TIP3    H133333   1.651   5.330  17.909  0.3022 -0.7744 -0.6028
 3046TIP3    H233334   1.704   5.214  17.991 -1.7321  0.1463  2.1940
 3047TIP3   OH233335   7.560   7.363  18.535 -0.1351 -0.5041  0.4665
 3047TIP3    H133336   7.625   7.316  18.483  0.6348  0.6430  0.3389
 3047TIP3    H233337   7.532   7.301  18.602  0.6527 -1.2104  0.1533
 3048TIP3   OH233338   0.798   2.861  19.738 -0.5098 -0.1644  0.0975
 3048TIP3    H133339   0.741   2.841  19.664  0.6017 -1.7808 -0.3431
 3048TIP3    H233340   0.886   2.841  19.708 -0.0801 -1.3880  2.0160
 3049TIP3   OH233341   6.832   0.251  18.195 -0.0302  0.2603  0.1825
 3049TIP3    H133342   6.861   0.326  18.143  1.0090 -0.6525 -0.6122
 3049TIP3    H233343   6.870   0.175  18.150  0.8265 -0.5874  2.2096
 3050TIP3   OH233344   3.930   6.557  19.483  0.1807 -0.1384  0.2488
 3050TIP3    H133345   3.851   6.546  19.431 -0.1870  0.1136  0.7517
 3050TIP3    H233346   3.997   6.583  19.419  0.1639 -1.5296 -0.3768
 3051TIP3   OH233347   1.130   6.687  18.179  0.0048  0.2740 -0.0583
 3051TIP3    H133348   1.100   6.730  18.259 -0.2297  1.0291 -0.5445
 3051TIP3    H233349   1.058   6.629  18.155  0.3197 -0.4063  0.5964
 3052TIP3   OH233350   1.929   7.279  17.146 -0.1311  0.7137 -0.4255
 3052TIP3    H133351   1.960   7.200  17.103  0.6087  1.5568 -1.4938
 3052TIP3    H233352   1.834   7.276  17.134 -0.2422 -0.5404  0.5223
 3053TIP3   OH233353   1.099   2.016  19.003 -0.0480 -0.1021  0.3565
 3053TIP3    H133354   1.176   2.007  18.946  0.1438 -1.8659  0.8527
 3053TIP3    H233355   1.110   2.103  19.043  0.9582  0.2511 -0.6083
 3054TIP3   OH233356   7.173   4.155  17.487 -0.2694 -0.1933 -0.1332
 3054TIP3    H133357   7.115   4.230  17.497 -0.3586 -0.5155  2.5320
 3054TIP3    H233358   7.116   4.078  17.488  0.0776 -0.5519  3.1462
 3055TIP3   OH233359   6.542   3.473  18.873  0.0250  0.1526 -0.1829
 3055TIP3    H133360   6.477   3.493  18.806 -0.7709  0.0231  0.5448
 3055TIP3    H233361   6.625   3.504  18.835 -0.7369  2.3091 -0.2482
 3056TIP3   OH233362   2.614   4.446  18.441 -0.1938  0.4305  0.1554
 3056TIP3    H133363   2.532   4.430  18.395 -1.2678 -2.0186  2.6755
 3056TIP3    H233364   2.594   4.515  18.504  0.0294  0.6018  0.0445
 3057TIP3   OH233365   0.834   2.144  18.984 -0.2008 -0.0961  0.0885
 3057TIP3    H133366   0.741   2.125  18.973  0.0386 -0.9219 -0.5872
 3057TIP3    H233367   0.879   2.064  18.957  0.7200  0.3836  0.1473
 3058TIP3   OH233368   5.957   1.505  18.847 -0.6036  0.2052  0.3878
 3058TIP3    H133369   6.043   1.501  18.806 -0.8419  0.6723 -0.1640
 3058TIP3    H233370   5.925   1.593  18.829 -1.1125  0.1110  0.7720
 3059TIP3   OH233371   2.618   1.885  18.646  0.0420  0.4600  0.1785
 3059TIP3    H133372   2.687   1.842  18.696 -0.9175 -0.3471  0.8695
 3059TIP3    H233373   2.579   1.815  18.594 -0.8159  0.7051  0.4647
 3060TIP3   OH233374   7.532   6.893  19.278  0.0135  0.2674 -0.2656
 3060TIP3    H133375   7.596   6.961  19.295 -0.5276  0.9286 -0.7872
 3060TIP3    H233376   7.546   6.828  19.347  0.1463  1.1875  0.5923
 3061TIP3   OH233377   4.218   7.576  18.842  0.1741  0.4774  0.9504
 3061TIP3    H133378   4.195   7.602  18.931 -1.0261  0.4960  0.6567
 3061TIP3    H233379   4.278   7.644  18.812  0.5686  0.4891  1.7226
 3062TIP3   OH233380   2.998   5.791  19.467 -0.3749 -0.2125  0.7937
 3062TIP3    H133381   3.074   5.843  19.493 -1.6148  0.7274  2.7848
 3062TIP3    H233382   2.935   5.854  19.432 -0.5521 -0.8778 -0.1328
 3063TIP3   OH233383   7.456   3.009  18.421 -0.7927  0.3197 -0.1138
 3063TIP3    H133384   7.521   3.012  18.351  0.6844  0.5729  1.1908
 3063TIP3    H233385   7.412   3.093  18.417  0.0994  0.8036 -0.0227
 3064TIP3   OH233386   3.032   5.329  17.102  0.7517 -0.3759  0.3043
 3064TIP3    H133387   3.096   5.369  17.043  0.8346  0.5544  1.0046
 3064TIP3    H233388   3.032   5.236  17.079 -0.8039  0.2368 -2.6628
 3065TIP3   OH233389   5.794   7.005  17.716  0.2368  0.6425  0.5757
 3065TIP3    H133390   5.869   7.036  17.665 -0.3273  0.1750 -0.5866
 3065TIP3    H233391   5.817   6.915  17.741 -0.1569  0.2869 -0.2894
 3066TIP3   OH233392   6.586   0.757  18.013  0.3296 -0.0695  0.1449
 3066TIP3    H133393   6.550   0.765  17.925  1.2566 -1.6398 -0.4240
 3066TIP3    H233394   6.667   0.706  18.001 -0.2825 -1.5987  2.0677
 3067TIP3   OH233395   2.086   7.316  17.368 -0.0483 -0.3468 -0.2806
 3067TIP3    H133396   2.107   7.225  17.386 -1.3274 -0.6569 -0.3232
 3067TIP3    H233397   2.001   7.314  17.325  0.4330  0.7880 -1.3590
 3068TIP3   OH233398   2.114   1.276  18.569  0.3336  0.2186 -0.0680
 3068TIP3    H133399   2.065   1.253  18.648  0.9785 -1.7661 -0.2106
 3068TIP3    H233400   2.193   1.222  18.572  1.1125  1.2263 -1.3150
 3069TIP3   OH233401   6.161   1.114  19.502  0.3098  0.1383  0.1268
 3069TIP3    H133402   6.102   1.181  19.535 -0.8038 -0.3788 -0.7551
 3069TIP3    H233403   6.114   1.074  19.429  0.8580 -1.7180  0.7197
 3070TIP3   OH233404   5.648   0.466  18.177  0.2847  0.0576  0.0056
 3070TIP3    H133405   5.685   0.543  18.134  0.9857 -0.0132  0.4613
 3070TIP3    H233406   5.713   0.397  18.162 -0.4393 -0.5054 -0.5896
 3071TIP3   OH233407   4.171   6.334  19.289  0.1685 -0.5885  0.1242
 3071TIP3    H133408   4.124   6.368  19.213  0.2553 -0.1657  0.2586
 3071TIP3    H233409   4.103   6.306  19.349  0.0529  1.0508  0.7891
 3072TIP3   OH233410   5.406   6.560  17.777 -0.1366  0.1261 -0.1859
 3072TIP3    H133411   5.499   6.574  17.758 -0.0873  0.1413  0.0627
 3072TIP3    H233412   5.361   6.632  17.732  0.0719  0.8017  0.6616
 3073TIP3   OH233413   4.655   2.741  16.796 -0.4958 -0.7173  0.3936
 3073TIP3    H133414   4.623   2.713  16.882 -0.7684 -0.7204  0.2939
 3073TIP3    H233415   4.677   2.660  16.751  1.1176 -0.6578  1.0120
 3074TIP3   OH233416   7.305   6.013  19.309 -0.6989  0.7234 -0.0576
 3074TIP3    H133417   7.266   6.090  19.267 -1.5414 -0.3889 -1.4417
 3074TIP3    H233418   7.230   5.966  19.346 -0.3427  0.0317 -0.1931
 3075TIP3   OH233419   5.757   3.919  19.685  0.1628  0.4130 -0.5016
 3075TIP3    H133420   5.788   3.912  19.595  0.7773  0.7178 -0.3143
 3075TIP3    H233421   5.718   3.834  19.704  2.5259 -0.6616 -0.1327
 3076TIP3   OH233422   3.869   6.762  17.913  0.1813  0.1818  0.2521
 3076TIP3    H133423   3.889   6.856  17.908  2.4252 -0.2349  0.2982
 3076TIP3    H233424   3.796   6.756  17.975  0.9514  1.7963  1.3992
 3077TIP3   OH233425   6.217   6.138  19.501 -0.3861 -0.6464  0.1621
 3077TIP3    H133426   6.169   6.128  19.419 -1.8011 -3.1672  1.1958
 3077TIP3    H233427   6.303   6.100  19.483 -0.7488 -1.3483 -0.1477
 3078TIP3   OH233428   0.873   2.232  17.908 -0.1607 -0.0473  0.3585
 3078TIP3    H133429   0.782   2.262  17.918  0.6827  2.9022  0.0021
 3078TIP3    H233430   0.880   2.208  17.816 -0.0412  1.8906 -0.1729
 3079TIP3   OH233431   3.619   1.981  19.601 -0.0232 -0.1762 -0.2573
 3079TIP3    H133432   3.688   1.952  19.541  0.8912 -0.6362  0.9634
 3079TIP3    H233433   3.666   2.025  19.672 -0.9703 -0.5430  0.6336
 3080TIP3   OH233434   7.036   4.032  18.745 -0.0151 -0.0968  0.1807
 3080TIP3    H133435   7.036   4.039  18.840 -0.1075 -0.6101  0.2177
 3080TIP3    H233436   6.951   4.066  18.718  0.2502  0.6306  0.2342
 3081TIP3   OH233437   1.965   2.575  18.150 -0.4446  0.7536 -0.2226
 3081TIP3    H133438   1.931   2.528  18.227 -0.0898  0.3639 -0.3014
 3081TIP3    H233439   1.887   2.602  18.102 -0.7345 -2.4403 -1.8205
 3082TIP3   OH233440   1.230   2.423  19.456  0.2102  0.2946  0.2033
 3082TIP3    H133441   1.303   2.468  19.413 -0.1160  1.8879  1.2526
 3082TIP3    H233442   1.173   2.397  19.384  0.0022  2.3284 -0.4299
 3083TIP3   OH233443   1.099   3.823  19.631 -0.1649 -0.1422 -0.4933
 3083TIP3    H133444   1.059   3.771  19.561  0.2422 -0.6589 -0.3481
 3083TIP3    H233445   1.192   3.825  19.609 -0.1527  0.4038 -0.4140
 3084TIP3   OH233446   4.366   3.531  19.059  0.3807 -0.0435 -0.9281
 3084TIP3    H133447   4.432   3.518  19.126  0.3025 -0.7676 -0.9894
 3084TIP3    H233448   4.385   3.618  19.023  0.7367  0.1262 -0.3296
 3085TIP3   OH233449   5.365   0.592  17.388 -0.7037 -0.1174 -0.6921
 3085TIP3    H133450   5.306   0.633  17.452 -0.8914 -0.5121 -0.6074
 3085TIP3    H233451   5.380   0.504  17.423  0.8585  0.3590 -0.1144
 3086TIP3   OH233452   6.342   4.579  19.496  0.0571 -0.1389  0.3803
 3086TIP3    H133453   6.413   4.517  19.515  0.1812 -0.5290 -1.2224
 3086TIP3    H233454   6.331   4.574  19.401  1.2546  3.5543 -0.1013
 3087TIP3   OH233455   2.566   2.643  17.966  0.8566 -0.0502 -0.7000
 3087TIP3    H133456   2.514   2.684  17.897 -0.1588  2.8518  1.5425
 3087TIP3    H233457   2.502   2.592  18.016  0.7827  0.7904  0.1026
 3088TIP3   OH233458   4.041   2.351  18.473  0.7042  0.8055 -0.4217
 3088TIP3    H133459   3.950   2.381  18.465  0.3596 -0.5173 -2.2441
 3088TIP3    H233460   4.057   2.349  18.567 -1.0748  1.2997 -0.0566
 3089TIP3   OH233461   0.897   1.917  19.370 -0.4177 -0.1470 -0.0590
 3089TIP3    H133462   0.927   2.007  19.375  0.1357 -0.3723  0.7698
 3089TIP3    H233463   0.803   1.924  19.350 -0.3234  0.5941 -0.2620
 3090TIP3   OH233464   4.213   5.349  19.835  0.7008  0.5796 -0.6336
 3090TIP3    H133465   4.173   5.421  19.884  0.6468  0.6238 -0.7418
 3090TIP3    H233466   4.204   5.375  19.743  1.4282  0.8214 -0.6379
 3091TIP3   OH233467   6.947   0.389  17.996  0.1484 -0.2938  0.5208
 3091TIP3    H133468   6.936   0.484  17.997 -1.3029 -0.4165 -0.0660
 3091TIP3    H233469   6.903   0.361  17.915 -0.5660 -1.5694  1.3173
 3092TIP3   OH233470   5.537   3.431  18.014  0.1488  0.0365 -0.1424
 3092TIP3    H133471   5.586   3.482  18.078 -1.0146 -0.3121  1.0704
 3092TIP3    H233472   5.574   3.456  17.930  0.0742  2.3846  0.4622
 3093TIP3   OH233473   6.923   5.612  19.110  0.4948  0.0961  0.2722
 3093TIP3    H133474   6.993   5.552  19.086  0.4800 -0.0681  0.6236
 3093TIP3    H233475   6.937   5.689  19.056  0.7179 -0.0896  0.0646
 3094TIP3   OH233476   3.490   4.595  18.144  0.3048 -0.8493 -0.4863
 3094TIP3    H133477   3.524   4.566  18.059  2.6399 -1.1967  0.4697
 3094TIP3    H233478   3.399   4.617  18.128  0.2599 -2.3656 -2.7487
 3095TIP3   OH233479   4.361   3.204  19.832  0.3527 -0.4785 -0.1623
 3095TIP3    H133480   4.291   3.268  19.816  1.7493  0.9206 -0.9292
 3095TIP3    H233481   4.316   3.130  19.874 -1.8173 -0.1862 -1.7622
 3096TIP3   OH233482   6.453   2.378  17.570  0.1697 -0.0432 -0.3508
 3096TIP3    H133483   6.396   2.391  17.646  0.9549 -0.7147  0.3741
 3096TIP3    H233484   6.394   2.384  17.495 -0.5716  0.9365  0.2862
 3097TIP3   OH233485   5.194   5.229  18.307  0.9612 -0.1086  0.2471
 3097TIP3    H133486   5.195   5.281  18.387  0.8196  2.6602 -1.4012
 3097TIP3    H233487   5.230   5.288  18.240 -0.6758 -1.6001 -2.1131
 3098TIP3   OH233488   5.883   1.837  19.117 -0.0654 -0.1940  0.2442
 3098TIP3    H133489   5.827   1.761  19.097 -2.0212  1.4383 -0.9129
 3098TIP3    H233490   5.861   1.859  19.208  2.4517 -2.4469  1.5601
 3099TIP3   OH233491   0.774   2.151  18.688 -1.0092  0.4140 -0.4623
 3099TIP3    H133492   0.786   2.221  18.625 -0.5310  0.4295 -0.3557
 3099TIP3    H233493   0.809   2.185  18.770 -1.0211  0.1525 -0.3460
 3100TIP3   OH233494   2.654   1.273  18.242 -0.1601  0.5261 -0.2108
 3100TIP3    H133495   2.747   1.275  18.220  0.0185  1.2940  0.5461
 3100TIP3    H233496   2.624   1.188  18.211  0.9633 -0.0352  0.1651
 3101TIP3   OH233497   6.923   3.877  19.065 -0.4281  0.3927 -0.1000
 3101TIP3    H133498   6.922   3.815  18.992 -1.0198  0.2205  0.0527
 3101TIP3    H233499   6.964   3.828  19.137 -1.0977  0.0958  0.0862
 3102TIP3   OH233500   4.754   6.562  18.966  0.2310  0.0634  0.0907
 3102TIP3    H133501   4.734   6.598  19.052  0.8172  1.5542 -0.3593
 3102TIP3    H233502   4.669   6.557  18.922  0.2704  2.6506 -0.4436
 3103TIP3   OH233503   2.986   0.221  17.457  0.1119  0.3243  0.6306
 3103TIP3    H133504   2.927   0.279  17.409 -0.2634 -0.9520 -0.4992
 3103TIP3    H233505   2.991   0.142  17.404  1.2782 -0.3686  1.7129
 3104TIP3   OH233506   2.839   3.355  19.062 -0.0950 -0.2778  0.0839
 3104TIP3    H133507   2.881   3.318  18.984 -0.5134 -0.7621  0.0823
 3104TIP3    H233508   2.746   3.358  19.040 -0.1583  0.0405  0.3868
 3105TIP3   OH233509   5.449   2.549  18.274  0.0946  0.3169 -0.3705
 3105TIP3    H133510   5.509   2.559  18.199  0.9292  1.8555  0.4587
 3105TIP3    H233511   5.481   2.612  18.338 -1.1678 -0.3380  0.9381
 3106TIP3   OH233512   4.164   0.539  19.419  0.2871  0.2132  0.0526
 3106TIP3    H133513   4.198   0.460  19.376 -0.2798 -0.1951  0.3441
 3106TIP3    H233514   4.122   0.588  19.348 -1.2114 -0.7682  0.2265
 3107TIP3   OH233515   1.938   1.872  18.973 -0.1277  0.7004  0.2237
 3107TIP3    H133516   1.884   1.886  18.896 -0.1397  0.7810  0.2467
 3107TIP3    H233517   1.946   1.777  18.980 -0.3656  0.6857  0.2915
 3108TIP3   OH233518   3.872   4.699  17.838 -0.0528 -0.7816 -0.1579
 3108TIP3    H133519   3.848   4.616  17.880  1.2337 -0.8688  0.4553
 3108TIP3    H233520   3.934   4.674  17.770 -1.0530 -0.4912 -1.1965
 3109TIP3   OH233521   7.241   3.251  19.566 -0.1750 -0.6592 -0.1437
 3109TIP3    H133522   7.243   3.336  19.522 -0.9240 -0.7621 -0.3840
 3109TIP3    H233523   7.323   3.248  19.615 -0.7869  0.8532  1.0640
 3110TIP3   OH233524   5.459   1.926  18.099 -0.2842  0.1925  0.5756
 3110TIP3    H133525   5.423   1.934  18.187 -1.2651 -0.6260  0.2723
 3110TIP3    H233526   5.466   2.017  18.068 -0.1223  0.4749  1.4078
 3111TIP3   OH233527   2.968   0.096  18.548  0.0233  0.5142 -0.7640
 3111TIP3    H133528   2.946   0.010  18.584 -0.5639  0.9045 -0.1441
 3111TIP3    H233529   2.889   0.149  18.563  0.9126  1.6019  0.2954
 3112TIP3   OH233530   5.150   7.011  18.516 -0.0509  0.3106 -0.3261
 3112TIP3    H133531   5.140   7.089  18.570 -2.1705 -1.3962  1.9598
 3112TIP3    H233532   5.089   7.023  18.444 -2.0916 -0.1326  1.2551
 3113TIP3   OH233533   3.214   5.901  17.674 -0.0644 -0.3335 -0.2715
 3113TIP3    H133534   3.281   5.838  17.700  1.2874  1.2737  0.3557
 3113TIP3    H233535   3.210   5.894  17.578 -0.1233 -1.5288 -0.1900
 3114TIP3   OH233536   3.637   2.459  17.262 -0.3539 -0.5674 -0.6235
 3114TIP3    H133537   3.563   2.424  17.212 -0.0845 -0.5894 -1.0135
 3114TIP3    H233538   3.633   2.553  17.249 -0.8608 -0.4752  0.1251
 3115TIP3   OH233539   1.073   1.735  18.763  0.3769 -0.1392  0.4590
 3115TIP3    H133540   1.110   1.690  18.839 -0.1638  1.5069  1.7627
 3115TIP3    H233541   1.136   1.805  18.743 -0.3598  0.5651  0.5588
 3116TIP3   OH233542   2.512   2.458  18.228 -0.0380  0.7082 -0.5037
 3116TIP3    H133543   2.561   2.388  18.272  0.7667  1.7929  0.3923
 3116TIP3    H233544   2.445   2.484  18.292 -0.0333  1.0641 -0.6414
 3117TIP3   OH233545   4.495   1.449  19.317  0.4276  0.5534 -0.4909
 3117TIP3    H133546   4.483   1.429  19.410  1.0786  0.4648 -0.4215
 3117TIP3    H233547   4.587   1.431  19.300 -0.0190 -0.9193 -1.5199
 3118TIP3   OH233548   2.691   2.435  18.611  0.0266  0.1641 -0.1434
 3118TIP3    H133549   2.774   2.469  18.579  0.4670 -0.1367  0.6638
 3118TIP3    H233550   2.633   2.511  18.613  0.2390  0.3483 -0.8402
 3119TIP3   OH233551   3.657   2.457  19.192 -0.2776  0.1680  0.2574
 3119TIP3    H133552   3.594   2.466  19.263  0.5199  0.9629  0.8827
 3119TIP3    H233553   3.737   2.499  19.225  0.1029  0.5709 -1.1014
 3120TIP3   OH233554   2.816   7.596  18.302  0.2848 -0.3368  0.1086
 3120TIP3    H133555   2.892   7.651  18.318  0.2459 -0.6999  1.6566
 3120TIP3    H233556   2.816   7.582  18.207  1.0959  1.1464 -0.1364
 3121TIP3   OH233557   3.444   0.720  19.012  0.3306  0.3457 -0.5606
 3121TIP3    H133558   3.477   0.805  19.041 -3.0200  0.9589  2.0558
 3121TIP3    H233559   3.467   0.660  19.083  1.3523 -0.6667 -1.7064
 3122TIP3   OH233560   6.992   7.630  18.953 -0.2543 -0.1431  0.1797
 3122TIP3    H133561   6.913   7.575  18.953 -0.7775  0.3581 -3.2012
 3122TIP3    H233562   7.064   7.568  18.949 -0.7038 -0.6328 -0.6423
 3123TIP3   OH233563   7.204   3.177  19.209  0.0539  0.6180 -0.0580
 3123TIP3    H133564   7.119   3.134  19.209  0.6632 -0.6448 -0.4846
 3123TIP3    H233565   7.213   3.212  19.298 -1.7487  2.5636 -0.5844
 3124TIP3   OH233566   5.128   6.969  19.382  1.2774 -0.0685  0.9879
 3124TIP3    H133567   5.156   6.966  19.474  0.5535 -0.4430  1.2091
 3124TIP3    H233568   5.032   6.970  19.387  1.2377 -0.0040  0.2379
 3125TIP3   OH233569   4.848   1.601  18.703  0.0330 -0.1935  0.2461
 3125TIP3    H133570   4.757   1.621  18.728 -0.3629 -1.8439  0.2544
 3125TIP3    H233571   4.898   1.617  18.783 -0.5279 -0.9302  0.7613
 3126TIP3   OH233572   1.713   6.977  18.057  0.7357  0.4240 -0.2397
 3126TIP3    H133573   1.722   6.958  18.151 -0.1938  0.6924 -0.0929
 3126TIP3    H233574   1.624   7.010  18.047  1.1332  1.2914 -1.0771
 3127TIP3   OH233575   5.914   3.571  17.261  0.0388  0.0120 -0.1587
 3127TIP3    H133576   5.969   3.644  17.289  2.0267 -1.0884 -0.9343
 3127TIP3    H233577   5.901   3.585  17.167  0.5363 -0.6591 -0.3368
 3128TIP3   OH233578   6.699   0.075  19.081  0.8202  0.3094  0.0715
 3128TIP3    H133579   6.677   0.127  19.004  1.3521  1.0317  0.3999
 3128TIP3    H233580   6.787   0.103  19.106  0.7138 -0.0160  0.8573
 3129TIP3   OH233581   6.615   7.081  18.815  0.2205  0.4159  0.1941
 3129TIP3    H133582   6.614   7.177  18.811  0.1002  0.3930 -0.4233
 3129TIP3    H233583   6.555   7.059  18.887  0.0370  0.7942  0.1593
 3130TIP3   OH233584   2.524   5.711  19.437  0.0754  0.3125 -0.5573
 3130TIP3    H133585   2.439   5.688  19.475  0.0044  0.4721 -0.6202
 3130TIP3    H233586   2.512   5.701  19.343  0.8012 -1.9478 -0.4538
 3131TIP3   OH233587   4.193   2.015  18.927  0.4537  0.8091 -0.1324
 3131TIP3    H133588   4.116   1.977  18.970  1.1414 -1.9920 -1.1332
 3131TIP3    H233589   4.159   2.051  18.845  0.2022 -0.6910 -0.7145
 3132TIP3   OH233590   0.378   5.151  19.039  0.1668 -0.4754  0.3906
 3132TIP3    H133591   0.472   5.162  19.054  0.8543  0.0544 -3.3146
 3132TIP3    H233592   0.371   5.071  18.986 -1.0549  0.9668 -1.7858
 3133TIP3   OH233593   2.792   6.312  19.294 -0.1235  0.7634  0.0767
 3133TIP3    H133594   2.714   6.313  19.349 -1.1519 -0.8605 -1.2904
 3133TIP3    H233595   2.805   6.404  19.270 -1.7016  1.0415  0.2015
 3134TIP3   OH233596   4.363   2.626  17.632  0.1121  0.1957  0.3967
 3134TIP3    H133597   4.335   2.630  17.541 -0.8445  3.1078  0.7309
 3134TIP3    H233598   4.282   2.637  17.682  1.0079  2.2302  1.5012
 3135TIP3   OH233599   3.111   6.553  17.951 -0.1528 -0.2042 -0.0141
 3135TIP3    H133600   3.089   6.505  17.871  0.1474  0.2511 -0.3752
 3135TIP3    H233601   3.056   6.632  17.946  0.2124  0.0501 -0.0082
 3136TIP3   OH233602   2.588   3.208  20.089 -0.7360 -0.1368  0.6455
 3136TIP3    H133603   2.549   3.174  20.170  0.3239  1.1047  1.7159
 3136TIP3    H233604   2.570   3.302  20.091  1.0611  0.2426  0.4683
 3137TIP3   OH233605   5.420   1.964  19.615  0.4007  0.0085 -0.8261
 3137TIP3    H133606   5.389   1.931  19.531 -0.0706  0.3381 -0.7873
 3137TIP3    H233607   5.361   2.036  19.636  0.2034 -0.3882  0.0320
 3138TIP3   OH233608   2.570   7.169  18.917  0.4349  0.0390  0.1115
 3138TIP3    H133609   2.626   7.102  18.878 -0.1353 -0.1329 -0.4294
 3138TIP3    H233610   2.603   7.252  18.883  0.6464 -0.0241  0.1620
 3139TIP3   OH233611   3.481   2.552  18.485  0.2625  0.0113 -0.0480
 3139TIP3    H133612   3.566   2.573  18.523 -0.1088  0.5406  0.4982
 3139TIP3    H233613   3.427   2.527  18.560 -0.1106 -0.1688 -0.3739
 3140TIP3   OH233614   4.061   5.833  18.788 -0.1455 -0.3286 -0.4702
 3140TIP3    H133615   4.062   5.922  18.754  1.4060  0.8023  2.2198
 3140TIP3    H233616   4.141   5.826  18.840 -2.3054 -1.7214  3.0111
 3141TIP3   OH233617   2.401   3.545  17.411 -0.5237  0.4714  0.2350
 3141TIP3    H133618   2.323   3.492  17.422  0.3771 -1.2487 -1.2585
 3141TIP3    H233619   2.368   3.634  17.397 -2.1339 -0.0006  0.8247
 3142TIP3   OH233620   4.168   4.865  19.962 -0.2718  0.3990  0.6704
 3142TIP3    H133621   4.175   4.959  19.976  1.2558  0.3927  0.2428
 3142TIP3    H233622   4.251   4.830  19.995 -0.0389 -0.5591 -0.8302
 3143TIP3   OH233623   4.552   2.244  18.598 -0.2598 -0.9555  0.7425
 3143TIP3    H133624   4.599   2.206  18.524  0.6429  0.1962  0.6973
 3143TIP3    H233625   4.465   2.204  18.594 -0.1141 -1.1812 -0.7284
 3144TIP3   OH233626   2.265   4.025  18.063 -0.1151 -0.1872  0.4906
 3144TIP3    H133627   2.316   3.962  18.114  1.8473 -0.2735 -1.3947
 3144TIP3    H233628   2.222   4.080  18.128  0.2636 -1.7980  2.1880
 3145TIP3   OH233629   0.861   0.978  18.998 -0.1795 -0.4431  0.5770
 3145TIP3    H133630   0.885   0.930  19.077 -0.9724 -1.0755  0.4424
 3145TIP3    H233631   0.942   0.980  18.946  0.0205 -1.1175  0.8472
 3146TIP3   OH233632   3.133   5.537  19.196 -0.0980  0.6321 -0.2361
 3146TIP3    H133633   3.189   5.477  19.146 -2.5759 -0.2702 -2.1143
 3146TIP3    H233634   3.171   5.623  19.181  1.6612 -0.0820 -0.1459
 3147TIP3   OH233635   4.910   1.057  18.196  0.1563  0.0501  0.0108
 3147TIP3    H133636   4.992   1.079  18.151  0.7610 -1.1991  0.4528
 3147TIP3    H233637   4.926   1.080  18.288  0.2070 -0.6804  0.1880
 3148TIP3   OH233638   2.703   2.932  18.865 -0.7675 -0.5009  0.3742
 3148TIP3    H133639   2.743   2.876  18.932 -0.2889 -0.8789 -0.2152
 3148TIP3    H233640   2.679   3.012  18.912 -2.3044 -1.5428  1.4123
 3149TIP3   OH233641   2.826   2.790  19.069  0.1488 -0.4098  0.4306
 3149TIP3    H133642   2.912   2.818  19.100 -0.3154  2.0054 -0.2280
 3149TIP3    H233643   2.811   2.706  19.112  2.9330 -1.0499  0.3398
 3150TIP3   OH233644   7.290   5.914  16.987 -0.0035  0.2559 -0.1210
 3150TIP3    H133645   7.333   5.963  17.057 -0.9219  0.2267  0.4804
 3150TIP3    H233646   7.241   5.980  16.938  1.7163  0.4928 -1.5951
 3151TIP3   OH233647   2.595   1.292  19.493 -1.0945 -0.1371  0.2669
 3151TIP3    H133648   2.641   1.350  19.432 -0.9340 -0.3199  0.2125
 3151TIP3    H233649   2.514   1.270  19.448 -0.3840 -1.3510 -0.4784
 3152TIP3   OH233650   5.711   4.098  18.996  0.7949 -0.5603 -0.3088
 3152TIP3    H133651   5.667   4.014  18.977  1.3030 -0.8217 -0.3436
 3152TIP3    H233652   5.724   4.137  18.910 -0.8442  0.2958 -0.2145
 3153TIP3   OH233653   6.341   7.464  19.399  0.0877  0.1143 -0.1168
 3153TIP3    H133654   6.319   7.555  19.384  0.8280  0.2336 -0.5187
 3153TIP3    H233655   6.257   7.422  19.421 -0.0329  1.1728  1.5552
 3154TIP3   OH233656   5.635   2.516  19.161 -0.6498  0.3709 -0.1198
 3154TIP3    H133657   5.599   2.583  19.103 -0.9175 -0.3347 -0.7856
 3154TIP3    H233658   5.729   2.535  19.164 -0.7217  0.7708 -0.3037
 3155TIP3   OH233659   2.493   6.039  19.141 -0.5308 -0.3344  0.6206
 3155TIP3    H133660   2.410   6.021  19.098 -1.0685 -0.5713  1.7323
 3155TIP3    H233661   2.513   6.130  19.119  0.7355 -1.2302 -2.6054
 3156TIP3   OH233662   4.252   4.132  18.053 -0.0203  0.3940 -0.1583
 3156TIP3    H133663   4.246   4.226  18.036 -0.2230  0.4588  0.2695
 3156TIP3    H233664   4.332   4.123  18.106 -1.6362  0.7425  2.5650
 3157TIP3   OH233665   1.705   7.533  18.342  0.0624 -0.2672 -0.2271
 3157TIP3    H133666   1.650   7.460  18.369  0.7165 -0.0653  1.8525
 3157TIP3    H233667   1.655   7.611  18.365  0.4190 -0.0805 -0.0742
 3158TIP3   OH233668   0.380   2.830  19.695  0.9794  0.0649  0.6536
 3158TIP3    H133669   0.305   2.785  19.657  0.2682 -0.3690  2.4873
 3158TIP3    H233670   0.456   2.796  19.647  0.0389  0.6617 -1.3659
 3159TIP3   OH233671   0.564   2.945  19.845 -0.0433  0.5746 -0.2371
 3159TIP3    H133672   0.644   2.898  19.822  0.9404  1.9565  0.2528
 3159TIP3    H233673   0.496   2.904  19.792  0.8490 -1.0857 -0.1511
 3160TIP3   OH233674   2.539   6.328  19.379 -0.1369 -0.1639 -0.0251
 3160TIP3    H133675   2.511   6.326  19.288  0.9324  1.2030 -0.4146
 3160TIP3    H233676   2.514   6.415  19.411  1.3438  0.1685  0.3321
 3161TIP3   OH233677   0.911   3.579  19.768  0.4825 -0.4264 -0.3403
 3161TIP3    H133678   0.956   3.556  19.686  0.4408  0.6266 -0.6779
 3161TIP3    H233679   0.958   3.655  19.800  1.9252 -2.1097  1.8237
 3162TIP3   OH233680   3.664   7.615  17.912  0.5135  0.2175 -0.0539
 3162TIP3    H133681   3.736   7.668  17.946  1.2445 -0.0940 -1.0644
 3162TIP3    H233682   3.621   7.671  17.847  0.2256  0.1823  0.1042
 3163TIP3   OH233683   6.631   7.170  18.500  0.3198 -0.0913 -0.3547
 3163TIP3    H133684   6.576   7.161  18.578 -0.0638 -1.3063 -0.7325
 3163TIP3    H233685   6.714   7.203  18.532  0.1131 -0.4388  0.5570
 3164TIP3   OH233686   4.134   2.931  19.375 -0.0405  0.0478 -0.4120
 3164TIP3    H133687   4.108   3.008  19.325  0.5147  2.3453  2.5497
 3164TIP3    H233688   4.054   2.881  19.386 -0.5230  0.4268 -1.9495
 3165TIP3   OH233689   2.398   3.095  19.301 -0.0751  0.1447 -0.1158
 3165TIP3    H133690   2.392   3.003  19.275  1.2780 -0.1978  0.6467
 3165TIP3    H233691   2.370   3.096  19.392 -2.2789  0.8955 -0.7569
 3166TIP3   OH233692   7.291   0.280  19.654  0.1759  0.0773 -0.1738
 3166TIP3    H133693   7.312   0.192  19.684  0.5128  0.4618  0.7489
 3166TIP3    H233694   7.325   0.284  19.565  0.4569 -0.6096 -0.0988
 3167TIP3   OH233695   4.423   1.456  19.590 -0.1390 -0.0485  0.1848
 3167TIP3    H133696   4.465   1.535  19.625 -1.8281 -0.0578  2.4284
 3167TIP3    H233697   4.355   1.490  19.530  1.1328  0.0369 -1.2831
 3168TIP3   OH233698   7.631   7.502  17.720  0.2423 -0.3046  0.3725
 3168TIP3    H133699   7.581   7.510  17.638  0.8688 -0.2480 -0.0043
 3168TIP3    H233700   7.601   7.419  17.758 -1.1841  0.3969  0.8655
 3169TIP3   OH233701   1.587   4.343  18.854 -0.1191  0.0244  0.8192
 3169TIP3    H133702   1.583   4.423  18.906 -0.2404  1.9585 -1.9538
 3169TIP3    H233703   1.495   4.323  18.835 -0.0258  0.3744 -0.0589
 3170TIP3   OH233704   6.900   4.456  17.901  0.0012  1.0482  0.4714
 3170TIP3    H133705   6.942   4.511  17.967 -0.3290  1.8141  0.0469
 3170TIP3    H233706   6.972   4.428  17.844  0.5705 -0.9574  2.0478
 3171TIP3   OH233707   0.017   7.081  17.744 -0.1990 -0.0264  0.0883
 3171TIP3    H133708  -0.011   7.139  17.674 -0.2762  0.6359  0.6558
 3171TIP3    H233709   0.029   7.139  17.820 -2.4632 -1.0309  1.3068
 3172TIP3   OH233710   2.967   0.555  17.058  0.2334  0.0080 -0.2505
 3172TIP3    H133711   2.963   0.459  17.062 -0.5631 -0.0193 -1.1942
 3172TIP3    H233712   2.888   0.580  17.010 -0.0729  1.2159  0.8410
 3173TIP3   OH233713   1.115   7.216  17.945 -0.0943  0.6410  0.2979
 3173TIP3    H133714   1.099   7.282  18.013 -1.5896 -0.7585  1.4082
 3173TIP3    H233715   1.109   7.263  17.863  1.0622  2.2683  1.0995
 3174TIP3   OH233716   5.144   4.125  17.235  0.2671  0.1617  0.7741
 3174TIP3    H133717   5.191   4.134  17.152 -0.3241 -0.2804  0.3900
 3174TIP3    H233718   5.076   4.192  17.231  0.7257  0.6701  1.2478
 3175TIP3   OH233719   1.429   6.889  18.042  0.3811 -0.0841 -0.1954
 3175TIP3    H133720   1.427   6.843  18.126 -1.3627 -0.7846 -0.5870
 3175TIP3    H233721   1.463   6.824  17.980  1.2028  0.2754 -0.1271
 3176TIP3   OH233722   3.002   0.543  19.700 -0.3210 -0.3662  0.4315
 3176TIP3    H133723   2.917   0.577  19.730 -0.1987 -0.6300  1.0990
 3176TIP3    H233724   2.990   0.448  19.698  0.2010 -0.4644  1.3250
 3177TIP3   OH233725   1.529   5.393  17.769  0.3384  0.3619  0.0321
 3177TIP3    H133726   1.595   5.369  17.705  0.2864  0.8221 -0.1958
 3177TIP3    H233727   1.446   5.383  17.724  0.0899 -2.0421  0.8688
 3178TIP3   OH233728   3.687   3.136  17.723  0.0825 -0.0013  0.3989
 3178TIP3    H133729   3.732   3.179  17.796  1.1102  0.5019 -0.4904
 3178TIP3    H233730   3.670   3.048  17.753  1.7406 -0.2319  0.7902
 3179TIP3   OH233731   6.611   4.289  18.505  0.4669 -0.0028  0.0791
 3179TIP3    H133732   6.616   4.367  18.451 -1.0300  0.2898  0.3375
 3179TIP3    H233733   6.699   4.282  18.543  1.1250  0.5743 -1.2503
 3180TIP3   OH233734   4.381   3.197  19.164  0.1362 -0.1605 -0.0593
 3180TIP3    H133735   4.447   3.169  19.227 -0.6040 -1.0251  0.3523
 3180TIP3    H233736   4.306   3.141  19.181 -1.0385  1.3882  0.0746
 3181TIP3   OH233737   5.309   2.542  18.034 -0.1503 -0.3400  0.1610
 3181TIP3    H133738   5.404   2.531  18.037  0.0503  1.0877 -0.1669
 3181TIP3    H233739   5.279   2.474  17.973  0.6644 -0.7010  0.1460
 3182TIP3   OH233740   6.792   3.459  18.731 -0.4681  0.4835  0.1974
 3182TIP3    H133741   6.742   3.380  18.709 -2.0380  1.0211  1.5655
 3182TIP3    H233742   6.877   3.427  18.760 -1.7008 -0.9374  2.5568
 3183TIP3   OH233743   5.214   5.518  19.070 -0.1161  0.5712 -0.2419
 3183TIP3    H133744   5.230   5.466  19.149  0.2534 -0.0615 -0.7257
 3183TIP3    H233745   5.256   5.469  19.000 -1.2334  0.6507 -0.9944
 3184TIP3   OH233746   0.645   0.002  19.262 -0.1647  0.1758  0.2922
 3184TIP3    H133747   0.731  -0.014  19.300 -0.8705 -0.3361  1.7283
 3184TIP3    H233748   0.583  -0.034  19.325 -1.4406  0.3139 -0.8242
 3185TIP3   OH233749   5.533   7.421  18.258 -0.1325 -0.5849  0.0401
 3185TIP3    H133750   5.596   7.350  18.242  1.1622  0.5414 -0.0239
 3185TIP3    H233751   5.468   7.382  18.316  0.7608 -1.7319  0.3159
 3186TIP3   OH233752   0.876   1.050  18.535 -0.2851  0.2254 -0.4242
 3186TIP3    H133753   0.947   1.077  18.478 -2.2357  1.3719 -2.4649
 3186TIP3    H233754   0.858   0.959  18.509  0.7078 -0.2464  0.4601
 3187TIP3   OH233755   5.421   7.395  17.989 -0.1818  0.1664  0.0936
 3187TIP3    H133756   5.432   7.410  18.083 -1.9894  0.4211  0.2957
 3187TIP3    H233757   5.416   7.299  17.981  0.6800  0.1090  0.1507
 3188TIP3   OH233758   1.521   0.688  19.690  0.1240  0.2336  0.0667
 3188TIP3    H133759   1.457   0.672  19.760  0.3710 -1.6537 -0.0891
 3188TIP3    H233760   1.469   0.719  19.616 -0.6816 -1.4075 -0.1005
 3189TIP3   OH233761   1.096   6.341  18.239 -0.3279 -0.1354  0.4507
 3189TIP3    H133762   1.135   6.346  18.326 -2.8462 -1.7515  1.7963
 3189TIP3    H233763   1.036   6.415  18.235 -1.1517 -0.7726  0.6514
 3190TIP3   OH233764   6.396   5.802  17.961  0.4683 -0.3186 -0.2639
 3190TIP3    H133765   6.363   5.778  18.047 -0.4967 -1.9686 -1.0562
 3190TIP3    H233766   6.445   5.725  17.931  1.2925  0.4477 -0.9686
 3191TIP3   OH233767   1.088   0.313  18.904 -0.6042  0.3175 -0.2369
 3191TIP3    H133768   1.109   0.390  18.852  0.7399 -0.1060 -0.3828
 3191TIP3    H233769   1.073   0.244  18.840 -1.5081  0.3851 -0.1036
 3192TIP3   OH233770   0.006   4.588  18.256 -0.6593  0.0306  0.5225
 3192TIP3    H133771  -0.082   4.612  18.227 -0.8340 -3.1029 -2.1657
 3192TIP3    H233772   0.064   4.649  18.210 -1.3035  0.0063 -0.3441
 3193TIP3   OH233773   5.266   2.063  18.687 -0.3389  0.2071 -0.4094
 3193TIP3    H133774   5.228   2.140  18.645 -0.0895 -0.4609 -1.9408
 3193TIP3    H233775   5.220   2.055  18.770 -1.0036  1.4811 -0.6409
 3194TIP3   OH233776   6.075   5.754  18.905  0.4572 -0.2584 -0.0266
 3194TIP3    H133777   6.044   5.669  18.873 -0.6130  0.0828  0.0669
 3194TIP3    H233778   6.016   5.775  18.977 -0.5074  1.4448 -1.2473
 3195TIP3   OH233779   4.843   2.816  17.740  0.3442  0.5454  0.6298
 3195TIP3    H133780   4.766   2.862  17.710  0.2037  0.6975  1.2209
 3195TIP3    H233781   4.809   2.742  17.791  0.5931  0.8079  1.1775
 3196TIP3   OH233782   7.084   3.119  19.764 -0.7305  0.3583 -0.0516
 3196TIP3    H133783   7.031   3.184  19.810  0.7148  1.5943 -0.0467
 3196TIP3    H233784   7.133   3.170  19.699  0.4732 -0.7098 -0.0218
 3197TIP3   OH233785   5.172   6.897  19.653 -0.0869  0.7619 -0.4564
 3197TIP3    H133786   5.108   6.827  19.666 -1.0675  1.9454  1.7214
 3197TIP3    H233787   5.257   6.857  19.673 -0.6803  0.2582  1.2403
 3198TIP3   OH233788   0.182   7.567  18.461 -0.0328  0.3431 -0.1692
 3198TIP3    H133789   0.099   7.613  18.462 -1.1152 -1.5031 -0.2811
 3198TIP3    H233790   0.233   7.611  18.393 -1.5720  0.4324 -1.3198
 3199TIP3   OH233791   3.486   5.328  19.865 -0.1261 -0.4236 -0.0998
 3199TIP3    H133792   3.496   5.236  19.843 -1.5240 -0.2098 -1.8167
 3199TIP3    H233793   3.434   5.328  19.945  1.6675 -1.1266  1.1304
 3200TIP3   OH233794   7.665   2.714  17.334 -0.3012 -0.3226  0.1141
 3200TIP3    H133795   7.721   2.791  17.345  0.0733 -0.6543  0.5530
 3200TIP3    H233796   7.577   2.747  17.353 -0.0829 -0.1008  0.7969
 3201TIP3   OH233797   5.377   4.006  18.342  0.0300  0.1889  0.1840
 3201TIP3    H133798   5.443   3.940  18.322 -1.9795 -1.5436 -1.0976
 3201TIP3    H233799   5.361   4.051  18.259 -0.7081  0.2713  0.3561
 3202TIP3   OH233800   6.354   4.679  18.635  0.2437 -0.4419 -0.3367
 3202TIP3    H133801   6.338   4.687  18.541 -0.1486  0.5729 -0.1969
 3202TIP3    H233802   6.447   4.698  18.645 -0.1609  1.7286 -0.2979
 3203TIP3   OH233803   3.268   2.425  17.720  0.0030  0.4705 -0.6529
 3203TIP3    H133804   3.330   2.437  17.647  0.4170 -2.1815 -0.8561
 3203TIP3    H233805   3.228   2.340  17.702 -2.1545  1.1555  0.6459
 3204TIP3   OH233806   2.306   6.494  17.939 -0.4344 -0.2604  0.2540
 3204TIP3    H133807   2.233   6.469  17.883 -0.0349 -0.4162 -0.2046
 3204TIP3    H233808   2.265   6.534  18.016 -1.1166 -2.6853  1.2444
 3205TIP3   OH233809   3.652   1.660  18.029  0.4697  0.7551  0.3762
 3205TIP3    H133810   3.608   1.732  17.983  1.6224 -0.0781 -2.1893
 3205TIP3    H233811   3.707   1.619  17.962  0.8625 -1.7004  2.0906
 3206TIP3   OH233812   4.574   2.660  18.810 -0.3100  0.4122 -0.3055
 3206TIP3    H133813   4.576   2.571  18.775  0.0749 -0.5208  1.9429
 3206TIP3    H233814   4.521   2.654  18.889  0.8059  1.8843  0.6097
 3207TIP3   OH233815   7.236   0.756  18.150  0.2403  0.0565 -0.3220
 3207TIP3    H133816   7.245   0.669  18.189  1.6010  0.4213  0.2430
 3207TIP3    H233817   7.253   0.742  18.057  0.4337 -0.2939 -0.2378
 3208TIP3   OH233818   4.274   1.626  17.981  0.3496  0.1637  0.0527
 3208TIP3    H133819   4.336   1.659  18.046  1.2349 -1.1913 -0.0598
 3208TIP3    H233820   4.208   1.695  17.973  0.5941  0.6630  1.8627
 3209TIP3   OH233821   3.764   1.645  18.824 -0.5362 -0.7966 -0.0871
 3209TIP3    H133822   3.761   1.617  18.732  1.1480 -0.0235 -0.4097
 3209TIP3    H233823   3.856   1.644  18.847 -0.7513  0.7253  1.0596
 3210TIP3   OH233824   5.784   3.213  17.869  0.5348 -0.3556 -0.5190
 3210TIP3    H133825   5.805   3.176  17.955  0.4749  0.3989 -0.1659
 3210TIP3    H233826   5.695   3.181  17.850  0.9997 -1.4985 -0.8631
 3211TIP3   OH233827   7.631   2.393  17.823  0.6609  0.4862 -0.0065
 3211TIP3    H133828   7.713   2.383  17.774  0.3095  0.6423 -0.6456
 3211TIP3    H233829   7.572   2.328  17.783  0.8991 -0.6385  1.4079
 3212TIP3   OH233830   4.612   7.083  18.610 -0.3066  0.0146 -1.0733
 3212TIP3    H133831   4.593   7.117  18.523 -0.1964 -0.8311 -1.4346
 3212TIP3    H233832   4.679   7.141  18.644 -0.7239  0.6640 -1.3418
 3213TIP3   OH233833   2.406   7.030  17.639 -0.7320 -0.1568 -0.5551
 3213TIP3    H133834   2.357   6.950  17.657 -1.4299  0.1016 -1.2319
 3213TIP3    H233835   2.406   7.078  17.722 -1.5292 -0.2161 -0.5200
 3214TIP3   OH233836   2.161   7.165  18.074  0.2326 -0.2574  0.5053
 3214TIP3    H133837   2.077   7.204  18.049  0.6624 -0.0105 -0.6212
 3214TIP3    H233838   2.149   7.137  18.165 -1.2366 -0.7017  0.1956
 3215TIP3   OH233839   7.676   3.001  19.750 -0.1445  0.3885  0.6042
 3215TIP3    H133840   7.666   2.906  19.746 -0.0322  0.4247 -1.8695
 3215TIP3    H233841   7.767   3.015  19.775 -0.3323 -0.1103  1.6449
 3216TIP3   OH233842   4.892   3.833  17.833  0.4107  0.1991 -0.1507
 3216TIP3    H133843   4.962   3.899  17.830  0.4178  0.1965 -0.0361
 3216TIP3    H233844   4.937   3.752  17.856  0.6339 -0.1615 -1.7021
 3217TIP3   OH233845   5.790   5.297  17.866 -0.2431 -0.1189 -0.3963
 3217TIP3    H133846   5.772   5.204  17.855  0.7560 -0.3201 -0.4641
 3217TIP3    H233847   5.847   5.319  17.793  0.1107  0.3776  0.0188
 3218TIP3   OH233848   2.999   3.746  17.843  0.7939 -0.8632 -0.1558
 3218TIP3    H133849   3.072   3.719  17.900  1.5207 -2.1895 -1.6306
 3218TIP3    H233850   2.983   3.669  17.788 -1.5102 -0.4677 -0.1136
 3219TIP3   OH233851   2.102   7.576  19.639  0.1728 -0.3395 -0.4218
 3219TIP3    H133852   2.103   7.542  19.549 -0.3196 -0.1030 -0.5222
 3219TIP3    H233853   2.041   7.650  19.635 -1.5392 -1.6477  0.5959
 3220TIP3   OH233854   1.049   6.974  18.662 -0.5362  0.4125 -0.1601
 3220TIP3    H133855   1.096   6.961  18.745  2.2944 -0.6398 -1.7692
 3220TIP3    H233856   1.027   7.067  18.661  0.5307  0.7194  1.2422
 3221TIP3   OH233857   5.307   1.691  17.531  0.4547  0.5009  0.2116
 3221TIP3    H133858   5.344   1.603  17.538 -2.2153 -0.6801  1.1117
 3221TIP3    H233859   5.282   1.699  17.439  1.8533  0.8757 -0.1585
 3222TIP3   OH233860   4.498   4.660  18.836  0.6203 -0.3064 -0.1195
 3222TIP3    H133861   4.473   4.573  18.866  2.0677 -1.2208 -1.4195
 3222TIP3    H233862   4.457   4.669  18.751  0.7306  0.1615 -0.1241
 3223TIP3   OH233863   4.941   2.718  19.243  0.4232  0.0801  0.1153
 3223TIP3    H133864   5.012   2.737  19.182  0.8417  0.5076  0.7300
 3223TIP3    H233865   4.982   2.716  19.329 -0.3509  0.6772  0.5179
 3224TIP3   OH233866   6.356   0.815  18.564  0.0958  0.1440 -0.3791
 3224TIP3    H133867   6.284   0.790  18.621 -0.4476  2.4668  0.0888
 3224TIP3    H233868   6.418   0.860  18.621  1.4871 -0.9583 -0.9568
 3225TIP3   OH233869   3.358   4.761  17.123  0.1844 -0.0845  0.2284
 3225TIP3    H133870   3.351   4.667  17.141 -1.4557 -0.1800 -0.7261
 3225TIP3    H233871   3.298   4.801  17.186 -0.1319  0.1940 -0.2488
 3226TIP3   OH233872   3.602   4.209  17.717 -0.9199 -0.3071  0.1515
 3226TIP3    H133873   3.681   4.163  17.747 -0.2435  1.4458  1.1604
 3226TIP3    H233874   3.558   4.145  17.660  1.5816 -1.0869 -1.0376
 3227TIP3   OH233875   4.938   2.084  19.592 -0.1032  0.5950  0.9544
 3227TIP3    H133876   4.941   2.144  19.517 -2.9615  0.3121  0.4978
 3227TIP3    H233877   5.023   2.095  19.635  1.9308  0.2956 -2.6195
 3228TIP3   OH233878   5.686   7.037  19.065 -0.0873 -0.8723 -0.1786
 3228TIP3    H133879   5.674   7.127  19.097 -1.0980 -0.9257 -0.3806
 3228TIP3    H233880   5.772   7.012  19.098  0.9888  0.7768 -1.5280
 3229TIP3   OH233881   1.173   0.212  17.754  0.1132 -0.9174  0.7439
 3229TIP3    H133882   1.255   0.260  17.744  1.0162 -2.5800 -0.3314
 3229TIP3    H233883   1.108   0.265  17.708  0.6973  0.1091  1.0753
 3230TIP3   OH233884   3.471   2.134  17.917 -0.0854 -0.5863  0.0627
 3230TIP3    H133885   3.502   2.083  17.992 -1.3458 -0.6125  0.5749
 3230TIP3    H233886   3.397   2.185  17.950 -0.3012 -0.1605 -1.0191
 3231TIP3   OH233887   6.998   6.020  19.651 -0.2357  0.2346 -0.1546
 3231TIP3    H133888   7.017   5.976  19.734 -0.9460 -0.6974 -0.4856
 3231TIP3    H233889   6.917   6.068  19.668 -0.7855 -0.5525 -0.5249
 3232TIP3   OH233890   1.143   5.283  17.429  0.0344 -0.5576  0.2589
 3232TIP3    H133891   1.209   5.276  17.359  0.9721 -2.4330  1.2565
 3232TIP3    H233892   1.075   5.221  17.403  0.3067 -1.1341  0.9002
 3233TIP3   OH233893   7.148   5.896  18.051 -0.1435  0.1861  0.0856
 3233TIP3    H133894   7.105   5.952  17.987  0.3466  0.0929 -0.3327
 3233TIP3    H233895   7.200   5.835  17.999  1.9980  1.4834  0.6026
 3234TIP3   OH233896   3.507   6.441  16.950 -0.0865 -0.4900 -0.0105
 3234TIP3    H133897   3.499   6.528  16.987 -0.0585 -0.6865  0.4720
 3234TIP3    H233898   3.600   6.420  16.959  0.4379  0.4663 -2.5397
 3235TIP3   OH233899   2.467   5.090  18.512  0.2184  0.0664  0.8337
 3235TIP3    H133900   2.557   5.093  18.545  0.0510  0.7482  1.2537
 3235TIP3    H233901   2.414   5.065  18.588  0.0068  0.0908  0.6961
 3236TIP3   OH233902   5.896   4.020  19.175 -0.0071 -0.9485 -0.0404
 3236TIP3    H133903   5.831   4.048  19.111  1.1302 -0.7705 -1.1524
 3236TIP3    H233904   5.953   3.960  19.127  1.2582 -0.3061  0.6060
 3237TIP3   OH233905   2.193   5.952  18.346 -0.0315  0.1113 -0.1655
 3237TIP3    H133906   2.222   5.862  18.331 -0.9149 -0.8566  3.1444
 3237TIP3    H233907   2.101   5.943  18.371  0.1134  1.8432  1.1173
 3238TIP3   OH233908   5.992   2.883  17.003 -0.1927  0.2176 -0.7732
 3238TIP3    H133909   6.032   2.847  16.924  0.6134  0.6180 -0.5558
 3238TIP3    H233910   6.035   2.836  17.075  0.6740  1.3939 -0.4949
 3239TIP3   OH233911   1.341   7.629  18.290  0.2945 -0.0608  0.1571
 3239TIP3    H133912   1.290   7.642  18.210 -0.7479 -0.4688  0.7439
 3239TIP3    H233913   1.428   7.662  18.268 -0.5654  2.0171 -0.4263
 3240TIP3   OH233914   6.195   3.804  19.705  0.2193 -0.1747 -0.2634
 3240TIP3    H133915   6.168   3.864  19.635 -1.1188  0.8184  1.0669
 3240TIP3    H233916   6.218   3.861  19.778 -2.4130 -1.2263  1.5271
 3241TIP3   OH233917   4.128   4.643  18.327 -0.3858  0.7284 -0.3876
 3241TIP3    H133918   4.220   4.622  18.310 -0.2649 -0.0316  1.0727
 3241TIP3    H233919   4.130   4.706  18.399 -1.0380 -0.4972  0.7482
 3242TIP3   OH233920   5.278   5.176  19.147  0.2636 -0.0020 -0.0451
 3242TIP3    H133921   5.209   5.240  19.129  0.7746 -0.0771 -2.6272
 3242TIP3    H233922   5.244   5.124  19.221 -2.5253 -0.1331 -1.2992
 3243TIP3   OH233923   0.771   6.616  16.829 -0.1133 -0.4220 -0.2082
 3243TIP3    H133924   0.863   6.638  16.839 -0.3294 -0.3095  1.9347
 3243TIP3    H233925   0.727   6.663  16.900 -1.6218 -1.6452 -0.2828
 3244TIP3   OH233926   0.495   6.075  17.678  0.2252  0.6911 -0.4296
 3244TIP3    H133927   0.435   6.135  17.722 -0.1206  0.4785 -0.6058
 3244TIP3    H233928   0.492   6.101  17.586  1.3971  1.5188 -0.2553
 3245TIP3   OH233929   1.270   1.185  18.666  0.3937 -0.2080  0.8446
 3245TIP3    H133930   1.297   1.239  18.741  0.0091  1.1602  0.0241
 3245TIP3    H233931   1.351   1.142  18.638  0.8688  0.5269  1.0529
 3246TIP3   OH233932   2.575   6.380  18.368  0.6383  0.4143  0.3854
 3246TIP3    H133933   2.494   6.417  18.402 -0.2703 -1.1467  0.0417
 3246TIP3    H233934   2.628   6.363  18.446 -0.3689 -0.7391  0.8590
 3247TIP3   OH233935   0.940   4.605  18.981 -0.0265 -0.4740 -0.0280
 3247TIP3    H133936   1.030   4.574  18.974 -0.0980 -0.2839 -2.7824
 3247TIP3    H233937   0.948   4.695  19.014  1.0706  0.4900 -2.6555
 3248TIP3   OH233938   0.554   1.013  18.117 -0.4701 -0.3188 -0.2729
 3248TIP3    H133939   0.639   0.970  18.117 -0.3452 -0.0725 -0.5847
 3248TIP3    H233940   0.542   1.042  18.208 -0.7853 -1.4441  0.0601
 3249TIP3   OH233941   1.604   3.667  19.266 -0.0461  0.5522 -0.3958
 3249TIP3    H133942   1.641   3.752  19.244  2.0790 -0.0784  0.5094
 3249TIP3    H233943   1.545   3.686  19.340 -0.4105  1.3672 -0.8816
 3250TIP3   OH233944   4.298   2.120  18.642  0.1954  0.1046 -0.1160
 3250TIP3    H133945   4.308   2.131  18.736  2.3483 -1.1240 -0.1378
 3250TIP3    H233946   4.204   2.129  18.626 -0.0082  2.3339  1.8212
 3251TIP3   OH233947   2.408   4.812  19.481 -0.2788  0.1815 -0.2281
 3251TIP3    H133948   2.483   4.857  19.441 -0.9608  1.2372 -0.3448
 3251TIP3    H233949   2.354   4.882  19.516 -0.4438 -0.6558  1.2650
 3252TIP3   OH233950   5.897   0.529  19.076 -0.3055 -0.2122 -0.5355
 3252TIP3    H133951   5.825   0.517  19.138 -0.9903  0.7791 -1.1362
 3252TIP3    H233952   5.960   0.461  19.101  0.1373  1.0535  2.2360
 3253TIP3   OH233953   5.109   6.435  17.892 -0.5664  0.5053  0.1165
 3253TIP3    H133954   5.177   6.408  17.831  0.0832  0.3340  0.9042
 3253TIP3    H233955   5.069   6.354  17.922 -2.4494  0.6406 -1.7703
 3254TIP3   OH233956   4.222   3.398  18.085 -0.1875  0.1556 -0.1075
 3254TIP3    H133957   4.236   3.492  18.072  0.0977  0.1831  0.3937
 3254TIP3    H233958   4.306   3.366  18.119 -0.5074 -0.1452  0.4106
 3255TIP3   OH233959   6.658   1.036  18.487 -0.1991  0.4060  0.3440
 3255TIP3    H133960   6.611   0.991  18.418 -1.0822 -0.2217  1.3378
 3255TIP3    H233961   6.745   1.053  18.449 -0.3446 -0.7615 -0.5747
 3256TIP3   OH233962   5.795   0.500  19.547 -0.6899 -0.0410  0.5441
 3256TIP3    H133963   5.769   0.576  19.495  1.1622  0.1594 -0.1816
 3256TIP3    H233964   5.859   0.535  19.609 -2.0196 -0.4971  2.2448
 3257TIP3   OH233965   0.026   7.109  18.823 -0.1270  0.1848 -0.0141
 3257TIP3    H133966   0.107   7.129  18.775 -0.2113 -0.6356 -0.5291
 3257TIP3    H233967   0.024   7.172  18.894  1.4322 -0.3353  0.5370
 3258TIP3   OH233968   0.394   3.567  18.357 -0.1685  0.5251 -0.0481
 3258TIP3    H133969   0.475   3.564  18.308  0.6064 -2.1618  1.2097
 3258TIP3    H233970   0.392   3.655  18.396  1.6957  0.9127 -0.7537
 3259TIP3   OH233971   7.345   3.597  18.975 -0.4003  0.4117 -0.5248
 3259TIP3    H133972   7.364   3.532  19.042 -1.4267  1.0971  0.4837
 3259TIP3    H233973   7.429   3.639  18.958 -0.1226  0.2732  0.4079
 3260TIP3   OH233974   2.110   7.009  19.336  0.2464  0.1700  0.0428
 3260TIP3    H133975   2.121   6.961  19.254  1.2517  1.6377 -0.7322
 3260TIP3    H233976   2.016   7.027  19.340  0.3285  1.1041 -1.4214
 3261TIP3   OH233977   2.008   0.630  19.351  0.8363 -0.3162  0.5776
 3261TIP3    H133978   2.071   0.688  19.393 -0.6428  0.0803  2.3721
 3261TIP3    H233979   1.923   0.657  19.386 -0.2832 -1.3182 -1.1786
 3262TIP3   OH233980   2.706   4.523  19.690 -0.4771  0.0195 -0.2095
 3262TIP3    H133981   2.751   4.540  19.773 -1.1511 -0.2203  0.2098
 3262TIP3    H233982   2.708   4.428  19.680  0.4793  0.1085 -0.9711
 3263TIP3   OH233983   3.311   2.762  18.889 -0.1081  0.0263 -0.4335
 3263TIP3    H133984   3.230   2.723  18.922 -0.9283  2.7794  1.0864
 3263TIP3    H233985   3.381   2.708  18.926 -1.1816 -1.6673 -0.7744
 3264TIP3   OH233986   5.648   0.522  17.805 -0.3270 -0.5110 -0.3583
 3264TIP3    H133987   5.646   0.565  17.720 -2.4543  1.4441  0.5538
 3264TIP3    H233988   5.602   0.439  17.792 -1.6384  0.2723 -0.9276
 3265TIP3   OH233989   5.960   1.061  18.487  0.3814  0.2095  0.4809
 3265TIP3    H133990   6.001   1.014  18.414 -0.5941 -2.4118  1.4992
 3265TIP3    H233991   6.017   1.043  18.562 -0.2611  0.2523  0.9898
 3266TIP3   OH233992   3.089   1.515  19.514  0.8608  0.4268  0.1147
 3266TIP3    H133993   3.103   1.567  19.594  0.6365 -0.7056  0.9207
 3266TIP3    H233994   3.177   1.493  19.484  0.9507 -0.7169  1.1389
 3267TIP3   OH233995   2.339   3.223  18.554  0.2875 -0.0300  0.2895
 3267TIP3    H133996   2.362   3.181  18.471  1.5733  2.2378 -0.6125
 3267TIP3    H233997   2.416   3.211  18.609  0.6319  0.9977  0.0538
 3268TIP3   OH233998   7.630   7.467  19.242  0.3184 -0.1657 -0.1286
 3268TIP3    H133999   7.639   7.547  19.190  0.3236 -0.3666 -0.4369
 3268TIP3    H234000   7.719   7.434  19.250 -0.0296 -2.9527 -4.4396
 3269TIP3   OH234001   7.087   3.571  19.476  0.2341 -0.1003 -0.1985
 3269TIP3    H134002   7.132   3.509  19.419  1.4165 -1.3138  1.9298
 3269TIP3    H234003   7.007   3.525  19.502 -0.2831  0.4331 -0.8171
 3270TIP3   OH234004   1.954   6.382  18.517  0.4300  0.1011  0.0021
 3270TIP3    H134005   1.921   6.305  18.471  2.1107  0.2552 -1.5570
 3270TIP3    H234006   1.968   6.448  18.449  1.5627  0.8632  0.9246
 3271TIP3   OH234007   3.764   1.667  17.436  0.2206 -0.0547 -0.1828
 3271TIP3    H134008   3.691   1.697  17.490  0.4423 -0.7212  0.5122
 3271TIP3    H234009   3.822   1.742  17.431 -0.0011  0.1459  0.1751
 3272TIP3   OH234010   3.645   0.010  19.590  0.8209  0.1542  0.4127
 3272TIP3    H134011   3.641  -0.007  19.496 -2.0564 -0.0061  0.4578
 3272TIP3    H234012   3.652   0.105  19.597  1.3843  0.1422  0.0473
 3273TIP3   OH234013   2.759   5.955  17.211  0.3422  0.5138 -0.1528
 3273TIP3    H134014   2.693   6.016  17.243 -0.3913  0.3987 -1.3798
 3273TIP3    H234015   2.775   5.897  17.284 -0.6603  0.7636  0.2849
 3274TIP3   OH234016   2.051   5.405  18.875 -0.5027  0.2579  0.0955
 3274TIP3    H134017   2.022   5.483  18.827 -1.0496 -0.1058 -0.1666
 3274TIP3    H234018   2.143   5.395  18.848 -0.1967  1.2286  0.6997
 3275TIP3   OH234019   1.581   2.931  19.624 -0.6606 -0.0834  0.2656
 3275TIP3    H134020   1.622   3.004  19.577 -0.8774 -0.1973 -0.1016
 3275TIP3    H234021   1.646   2.906  19.690 -0.3210  0.0274 -0.0231
 3276TIP3   OH234022   3.157   0.135  17.649 -0.1672  0.0544 -0.1800
 3276TIP3    H134023   3.233   0.193  17.657  0.6905 -0.8444 -1.3449
 3276TIP3    H234024   3.093   0.185  17.598  0.1101  0.4028 -0.1898
 3277TIP3   OH234025   7.088   1.282  19.468 -0.4730 -0.5590 -0.8843
 3277TIP3    H134026   7.034   1.350  19.509  0.2187 -1.2800  1.3517
 3277TIP3    H234027   7.064   1.202  19.513  2.1552 -0.9697 -0.0559
 3278TIP3   OH234028   6.733   3.812  18.633 -0.6124  0.1953  0.3403
 3278TIP3    H134029   6.660   3.871  18.652 -0.3898  0.3667  0.6553
 3278TIP3    H234030   6.786   3.812  18.712 -1.4956 -1.7383  0.9857
 3279TIP3   OH234031   6.158   3.716  18.229 -0.0145  0.2143  0.4258
 3279TIP3    H134032   6.250   3.739  18.216  0.2302 -0.0878  1.5737
 3279TIP3    H234033   6.126   3.778  18.295 -0.6809  0.4070 -0.0587
 3280TIP3   OH234034   2.509   6.330  17.490  0.1344  0.1116 -0.3341
 3280TIP3    H134035   2.416   6.316  17.472  0.2625 -1.3367 -0.0152
 3280TIP3    H234036   2.511   6.398  17.557 -0.8251 -1.1863  1.0845
 3281TIP3   OH234037   4.942   5.807  17.829 -0.5216  0.2210  0.4595
 3281TIP3    H134038   4.984   5.847  17.753 -2.1868 -0.7102 -1.0588
 3281TIP3    H234039   4.977   5.718  17.831  0.3133  0.5606  1.4682
 3282TIP3   OH234040   6.189   5.460  18.505  0.0280  0.2353  0.1095
 3282TIP3    H134041   6.109   5.483  18.459 -0.7475 -1.7280  0.3845
 3282TIP3    H234042   6.170   5.479  18.597 -0.5513 -1.1920  0.3141
 3283TIP3   OH234043   6.915   2.106  18.195 -0.4696 -0.2291  0.2033
 3283TIP3    H134044   6.930   2.031  18.252  0.3489  0.0913  0.4261
 3283TIP3    H234045   6.991   2.163  18.209 -0.6248  0.2101 -0.6443
 3284TIP3   OH234046   5.513   3.312  17.705 -0.0668 -0.2206  0.0595
 3284TIP3    H134047   5.421   3.329  17.725 -0.2621 -1.1453 -0.0071
 3284TIP3    H234048   5.518   3.217  17.696  1.0124 -0.2337  0.6460
 3285TIP3   OH234049   5.200   0.794  17.530  0.2613 -0.1311  0.4549
 3285TIP3    H134050   5.217   0.872  17.478  2.8542 -0.4492  0.6993
 3285TIP3    H234051   5.275   0.787  17.589 -1.5077 -0.9898  2.7842
 3286TIP3   OH234052   5.317   4.291  19.170 -0.4867  0.1710  0.0297
 3286TIP3    H134053   5.281   4.252  19.249 -0.7442  0.6981  0.1794
 3286TIP3    H234054   5.412   4.281  19.180 -0.5429 -0.2906  0.1223
 3287TIP3   OH234055   6.350   2.734  18.556  0.2448  0.1219 -0.6433
 3287TIP3    H134056   6.322   2.759  18.468  0.5090 -0.5825 -0.9354
 3287TIP3    H234057   6.435   2.692  18.543  0.2065 -0.1392 -0.0764
 3288TIP3   OH234058   4.739   4.576  18.910  0.1458 -0.1059  0.3250
 3288TIP3    H134059   4.761   4.497  18.861  0.1133  0.0671  0.0317
 3288TIP3    H234060   4.653   4.602  18.876  0.4799  0.4612 -0.0909
 3289TIP3   OH234061   3.807   3.033  17.975  0.3949 -0.2974  0.2693
 3289TIP3    H134062   3.746   3.093  18.017  0.3947 -0.1199  0.0180
 3289TIP3    H234063   3.877   3.089  17.942 -0.0450 -0.3224 -0.7480
 3290TIP3   OH234064   1.867   0.030  19.553 -0.1943  0.4615 -0.0802
 3290TIP3    H134065   1.810  -0.038  19.590 -1.0319  1.2924  0.1822
 3290TIP3    H234066   1.809   0.083  19.498  0.2115  1.6106  0.5690
 3291TIP3   OH234067   2.336   3.811  18.833 -0.1385 -0.8397  0.7640
 3291TIP3    H134068   2.241   3.820  18.835 -0.1203  0.0886 -0.6362
 3291TIP3    H234069   2.352   3.746  18.764  0.2580  0.0360  0.0067
 3292TIP3   OH234070   2.263   3.465  17.736 -0.3329 -0.1968  0.0127
 3292TIP3    H134071   2.291   3.433  17.650 -0.3987  0.2510 -0.1765
 3292TIP3    H234072   2.187   3.412  17.758 -0.4161 -0.2012 -0.2840
 3293TIP3   OH234073   2.510   5.733  19.916 -0.0483  0.2718 -0.2628
 3293TIP3    H134074   2.468   5.656  19.877 -1.0466  1.5499 -1.8696
 3293TIP3    H234075   2.499   5.802  19.850  0.8811  1.7797  1.0838
 3294TIP3   OH234076   7.542   5.471  17.322  0.0960 -0.5177 -0.3988
 3294TIP3    H134077   7.623   5.522  17.328  0.0857 -0.4201 -1.0107
 3294TIP3    H234078   7.534   5.450  17.229  0.3954 -2.1252 -0.1040
 3295TIP3   OH234079   7.395   5.746  19.448  0.0194 -0.2573 -0.4190
 3295TIP3    H134080   7.441   5.830  19.443  0.3160 -0.3679  0.2746
 3295TIP3    H234081   7.303   5.767  19.432 -0.0623  0.3604  0.7883
 3296TIP3   OH234082   0.195   4.958  18.336  0.0172  0.5263 -0.3648
 3296TIP3    H134083   0.204   4.970  18.431  2.4902  1.2987 -0.6300
 3296TIP3    H234084   0.241   4.876  18.318  0.7789  1.0964 -1.0525
 3297TIP3   OH234085   0.188   3.522  18.938 -0.1783  0.0352 -0.0330
 3297TIP3    H134086   0.258   3.499  18.999  1.2976 -1.9212 -2.2906
 3297TIP3    H234087   0.187   3.618  18.938  0.9160  0.1035  1.7203
 3298TIP3   OH234088   3.256   4.843  19.808  0.4355  0.0109  0.2881
 3298TIP3    H134089   3.190   4.850  19.739  0.4533  0.4038  0.3130
 3298TIP3    H234090   3.310   4.769  19.780  0.1735 -0.1194  0.1110
 3299TIP3   OH234091   2.472   4.324  19.376  0.1099 -0.0559 -0.1853
 3299TIP3    H134092   2.414   4.388  19.334  0.0781  0.9845  1.3510
 3299TIP3    H234093   2.560   4.350  19.349  0.0179 -0.1158 -0.5463
 3300TIP3   OH234094   7.607   6.667  18.395  0.2416  0.6878  0.0373
 3300TIP3    H134095   7.563   6.659  18.310  0.9914 -0.6983 -0.2501
 3300TIP3    H234096   7.693   6.705  18.374  0.2042  0.8921  0.2521
 3301TIP3   OH234097   1.221   1.386  19.675  0.2990  0.1515 -0.1017
 3301TIP3    H134098   1.127   1.401  19.662  0.4082  0.3491 -0.7322
 3301TIP3    H234099   1.239   1.304  19.629  0.6626  0.7680 -1.1153
 3302TIP3   OH234100   6.456   2.111  18.766 -0.2325  0.2703  0.1693
 3302TIP3    H134101   6.493   2.112  18.678  1.2462 -0.6220  0.7522
 3302TIP3    H234102   6.494   2.034  18.808  0.6847  1.7336  2.2453
 3303TIP3   OH234103   5.349   2.779  18.829 -0.3614 -0.1642  0.3268
 3303TIP3    H134104   5.367   2.866  18.795  2.9973 -0.5116  0.8551
 3303TIP3    H234105   5.339   2.724  18.751  1.2288  0.0883 -0.0808
 3304TIP3   OH234106   2.551   6.626  18.223 -0.1300  0.6297  0.1612
 3304TIP3    H134107   2.595   6.541  18.222 -0.8140  0.2651  0.4887
 3304TIP3    H234108   2.549   6.651  18.315  1.4170  1.7320 -0.0524
 3305TIP3   OH234109   4.720   0.567  17.958 -0.0848 -0.2357 -0.2110
 3305TIP3    H134110   4.712   0.471  17.957  0.2674 -0.3470  2.1928
 3305TIP3    H234111   4.807   0.584  17.922 -0.5221 -0.7209 -1.5683
 3306TIP3   OH234112   6.909   2.948  19.492  0.3435  0.2242  0.3795
 3306TIP3    H134113   6.892   2.864  19.534  0.4861 -0.2720 -0.5389
 3306TIP3    H234114   6.858   3.011  19.544 -2.1513 -0.8172 -0.6439
 3307TIP3   OH234115   5.507   7.136  18.416  0.1241 -0.3821 -0.0419
 3307TIP3    H134116   5.426   7.187  18.413  0.4800  0.1680 -0.3565
 3307TIP3    H234117   5.497   7.070  18.347 -0.4596 -0.9402  0.5562
 3308TIP3   OH234118   1.492   5.015  18.303 -0.4271  0.4162 -0.3462
 3308TIP3    H134119   1.489   4.964  18.221  1.0270  1.7773 -1.2854
 3308TIP3    H234120   1.553   4.967  18.358  0.5559  0.8403 -1.0403
 3309TIP3   OH234121   5.963   2.339  19.425  0.8284 -0.1655  0.0154
 3309TIP3    H134122   5.992   2.428  19.410 -1.4058  0.3798 -1.7542
 3309TIP3    H234123   6.012   2.286  19.362  0.4759  0.1988 -0.5722
 3310TIP3   OH234124   4.969   0.670  17.692 -0.2596 -0.1986 -0.3320
 3310TIP3    H134125   5.020   0.713  17.623  1.1806 -1.9756 -0.4522
 3310TIP3    H234126   5.034   0.645  17.757 -1.3918 -0.0273  0.9180
 3311TIP3   OH234127   0.465   0.580  19.063  0.0255 -0.0647  0.0595
 3311TIP3    H134128   0.487   0.545  18.977 -0.9370 -1.7581  0.4611
 3311TIP3    H234129   0.488   0.673  19.058 -1.1885  0.1638 -2.4533
 3312TIP3   OH234130   3.695   3.517  17.994 -0.3959 -0.5785 -0.1328
 3312TIP3    H134131   3.614   3.556  17.961  1.1287  2.7933 -0.2430
 3312TIP3    H234132   3.681   3.508  18.088 -0.8635  0.0289 -0.1399
 3313TIP3   OH234133   4.220   5.974  18.240  0.7595  0.1035 -0.2412
 3313TIP3    H134134   4.311   5.955  18.220  0.7841  1.4080 -1.5158
 3313TIP3    H234135   4.171   5.929  18.171  0.5682  0.9544 -0.6722
 3314TIP3   OH234136   5.497   3.242  19.459  0.1267  0.0737 -0.5459
 3314TIP3    H134137   5.494   3.335  19.435  0.2202  0.1312 -0.3407
 3314TIP3    H234138   5.575   3.235  19.514 -0.6281  0.1407  0.5624
 3315TIP3   OH234139   0.280   6.038  18.627  0.0973  0.6046 -0.6168
 3315TIP3    H134140   0.228   5.972  18.674  2.4268 -0.6504  0.3856
 3315TIP3    H234141   0.260   6.024  18.535  0.2586 -1.3143 -0.4014
 3316TIP3   OH234142   3.980   0.173  19.269  0.0537  0.5330 -0.5527
 3316TIP3    H134143   3.910   0.107  19.267  0.1866  0.2431  1.5454
 3316TIP3    H234144   3.933   0.256  19.270 -0.2795  0.3545  0.2011
 3317TIP3   OH234145   1.247   6.177  18.736  0.3365  1.0691 -0.5992
 3317TIP3    H134146   1.185   6.244  18.764  0.6240  1.0301  0.1347
 3317TIP3    H234147   1.193   6.100  18.718  0.1928  0.9447  0.3219
 3318TIP3   OH234148   6.076   7.266  19.719 -0.0799  0.1565 -0.7164
 3318TIP3    H134149   6.090   7.338  19.781 -1.8143  1.4565 -1.7293
 3318TIP3    H234150   6.162   7.228  19.707  0.5779  0.8277  1.3154
 3319TIP3   OH234151   0.480   7.246  18.911  0.0060  0.0087 -0.2853
 3319TIP3    H134152   0.440   7.169  18.951  1.6832 -1.4658 -1.2735
 3319TIP3    H234153   0.460   7.317  18.971 -0.8470 -1.3615  1.1400
 3320TIP3   OH234154   6.504   1.494  17.823  0.1586 -0.1394  0.3911
 3320TIP3    H134155   6.539   1.580  17.801  2.8024 -0.7875  1.6731
 3320TIP3    H234156   6.506   1.445  17.741  3.9674 -0.6023  0.5705
 3321TIP3   OH234157   3.233   2.073  18.726  0.7842  0.1179 -0.0949
 3321TIP3    H134158   3.224   2.134  18.799  1.6555  0.6307 -0.4053
 3321TIP3    H234159   3.157   2.015  18.734  0.7435  0.3039  1.0800
 3322TIP3   OH234160   5.923   3.177  17.211  0.2890 -0.1586 -0.5135
 3322TIP3    H134161   5.829   3.183  17.228  0.3731 -0.6230  0.1406
 3322TIP3    H234162   5.939   3.240  17.141 -0.2202  1.2306  0.5763
 3323TIP3   OH234163   4.079   4.998  19.603 -0.6384 -0.2047 -0.1421
 3323TIP3    H134164   4.063   4.934  19.672 -0.5902  0.8544  0.8939
 3323TIP3    H234165   4.001   5.053  19.604 -0.8360 -0.4338 -1.2547
 3324TIP3   OH234166   0.831   5.681  18.648  0.9001 -0.3753  0.1628
 3324TIP3    H134167   0.858   5.638  18.567  2.1302 -0.6135  0.6654
 3324TIP3    H234168   0.852   5.774  18.634 -0.7302 -0.0727 -0.5057
 3325TIP3   OH234169   4.609   3.284  18.436  1.2518  0.0388 -0.5660
 3325TIP3    H134170   4.660   3.204  18.430  0.1078 -0.7737  0.1084
 3325TIP3    H234171   4.544   3.276  18.366  0.7394  0.0759 -0.0986
 3326TIP3   OH234172   3.721   0.577  19.522 -0.2413 -0.6924  0.0232
 3326TIP3    H134173   3.740   0.666  19.493 -0.3361 -0.7611 -0.2525
 3326TIP3    H234174   3.627   0.576  19.538  0.1418  0.0521  2.7638
 3327TIP3   OH234175   4.904   2.491  19.533  0.1108 -0.4168  0.5849
 3327TIP3    H134176   4.959   2.564  19.505 -0.8077  1.0360  2.3556
 3327TIP3    H234177   4.880   2.512  19.623 -1.0553 -2.4078  0.7992
 3328TIP3   OH234178   7.455   4.039  17.190 -0.4689 -0.4823  0.8628
 3328TIP3    H134179   7.408   4.121  17.206  0.8828  0.2251  1.3434
 3328TIP3    H234180   7.532   4.044  17.246  0.4578 -1.3849 -0.2761
 3329TIP3   OH234181   4.281   2.671  18.898 -0.3353 -0.2235  0.5449
 3329TIP3    H134182   4.200   2.651  18.945 -0.5286 -0.3196  0.1822
 3329TIP3    H234183   4.293   2.765  18.909 -0.9412 -0.0654 -0.0762
 3330TIP3   OH234184   1.309   0.999  18.256 -0.1462  0.2282  0.3220
 3330TIP3    H134185   1.353   0.945  18.322  2.1837  0.5541 -0.8723
 3330TIP3    H234186   1.293   1.082  18.300 -0.0572 -0.0658  0.9313
 3331TIP3   OH234187   1.911   6.056  18.604 -0.5977 -0.2174 -0.0878
 3331TIP3    H134188   1.972   6.070  18.677 -0.9098 -0.0982  0.1530
 3331TIP3    H234189   1.827   6.087  18.637 -1.1688 -1.9261  0.2061
 3332TIP3   OH234190   4.686   4.960  19.134 -0.4043  0.2983  0.1557
 3332TIP3    H134191   4.761   4.973  19.193 -1.1151 -0.5379  1.2940
 3332TIP3    H234192   4.678   4.865  19.126 -0.3850  0.3953 -1.2506
 3333TIP3   OH234193   1.443   7.120  19.300  0.7154  0.4605  0.3688
 3333TIP3    H134194   1.435   7.139  19.393  0.8263  0.7226  0.3280
 3333TIP3    H234195   1.531   7.152  19.277 -0.3541  3.1246 -0.4309
 3334TIP3   OH234196   6.788   2.834  19.903  0.2830  0.8713  0.1978
 3334TIP3    H134197   6.721   2.772  19.932  0.6383  0.6527  0.5646
 3334TIP3    H234198   6.752   2.920  19.923 -0.0570  0.7712  0.0262
 3335TIP3   OH234199   4.558   7.319  18.854  0.1611 -0.0585  0.5448
 3335TIP3    H134200   4.559   7.406  18.815  0.4983  0.1086  0.9233
 3335TIP3    H234201   4.647   7.287  18.844  0.6469  0.5562  2.4107
 3336TIP3   OH234202   1.712   0.511  18.064 -0.2033  0.2478  0.2253
 3336TIP3    H134203   1.806   0.492  18.066  0.3259  2.6363 -0.0489
 3336TIP3    H234204   1.692   0.524  17.972 -0.8387 -0.2511  0.2821
 3337TIP3   OH234205   4.994   2.503  17.967 -0.1060 -0.3654 -0.2081
 3337TIP3    H134206   5.061   2.503  18.035 -0.5756 -0.5839  0.2725
 3337TIP3    H234207   4.915   2.535  18.012 -0.3891 -0.3778 -0.6880
 3338TIP3   OH234208   3.263   7.034  18.439  0.2506 -1.0939 -0.7258
 3338TIP3    H134209   3.245   7.027  18.345  0.4374 -1.6380 -0.7249
 3338TIP3    H234210   3.330   7.102  18.445 -1.0964  0.2854 -0.8101
 3339TIP3   OH234211   2.608   7.058  18.169  0.2968  0.7412  0.6310
 3339TIP3    H134212   2.611   6.963  18.180 -0.1003  0.6955  0.3891
 3339TIP3    H234213   2.548   7.088  18.237  0.9064  0.8875  1.1041
 3340TIP3   OH234214   7.562   0.475  17.716  0.0740 -0.0537 -0.0162
 3340TIP3    H134215   7.487   0.446  17.663  0.4747 -1.2683  0.0555
 3340TIP3    H234216   7.525   0.490  17.803 -0.4175  1.1042 -0.4033
 3341TIP3   OH234217   3.362   5.145  18.230 -0.0299 -0.9347 -0.6457
 3341TIP3    H134218   3.416   5.219  18.203 -0.3694 -1.5204 -3.1769
 3341TIP3    H234219   3.422   5.070  18.229 -0.1341 -1.0326 -0.0352
 3342TIP3   OH234220   6.615   7.421  17.327 -0.4665 -0.1737 -0.1233
 3342TIP3    H134221   6.561   7.440  17.403 -0.9316  0.2006 -0.5444
 3342TIP3    H234222   6.561   7.444  17.251 -0.7104 -2.2672 -0.6493
 3343TIP3   OH234223   2.804   5.459  16.951  0.2351  0.5246 -0.2363
 3343TIP3    H134224   2.727   5.406  16.928  0.0030  0.7686 -0.0291
 3343TIP3    H234225   2.870   5.395  16.978  0.1788  0.3002 -0.6207
 3344TIP3   OH234226   2.835   0.846  18.022 -0.3387 -0.0882 -0.9938
 3344TIP3    H134227   2.917   0.825  17.978 -0.9740 -0.0983 -2.2242
 3344TIP3    H234228   2.857   0.848  18.115  1.0543 -0.0574 -1.3071
 3345TIP3   OH234229   1.847   2.761  17.765  0.3544  0.4104 -0.3282
 3345TIP3    H134230   1.807   2.674  17.767 -0.0296  0.5938  0.9350
 3345TIP3    H234231   1.940   2.745  17.783  0.1435  0.3090  0.7769
 3346TIP3   OH234232   6.279   3.970  19.251 -0.0054 -0.2477 -0.0113
 3346TIP3    H134233   6.296   4.048  19.304  1.0910  0.2846 -1.0991
 3346TIP3    H234234   6.244   4.004  19.169  1.9661 -0.7287 -1.1260
 3347TIP3   OH234235   0.652   1.275  19.565  0.1435  0.4854  0.1817
 3347TIP3    H134236   0.586   1.206  19.571  1.3713 -0.6875  0.8593
 3347TIP3    H234237   0.695   1.260  19.480  3.3175 -2.4843  2.0346
 3348TIP3   OH234238   3.714   3.531  18.887  0.3116 -0.3366  0.0616
 3348TIP3    H134239   3.657   3.607  18.875  1.2139  0.2407 -0.7320
 3348TIP3    H234240   3.743   3.509  18.798  3.2204  0.8796  0.6321
 3349TIP3   OH234241   0.275   2.051  19.068  0.4521  0.2224 -0.2093
 3349TIP3    H134242   0.190   2.092  19.082  0.4088 -0.0357  0.2620
 3349TIP3    H234243   0.270   2.015  18.979  0.2359  0.5995 -0.3533
 3350TIP3   OH234244   6.725   4.604  17.443 -0.4518 -0.2855  0.7366
 3350TIP3    H134245   6.814   4.600  17.409  0.1439  2.5023  1.7268
 3350TIP3    H234246   6.736   4.599  17.538 -1.2733  0.6982  0.8960
 3351TIP3   OH234247   4.952   5.797  19.778 -0.0636 -0.9859 -1.0172
 3351TIP3    H134248   4.962   5.709  19.742 -0.9770 -1.1066 -1.0004
 3351TIP3    H234249   5.036   5.840  19.760  1.5524 -2.7350  1.4710
 3352TIP3   OH234250   2.058   6.028  17.663  0.1716  0.3752  0.7170
 3352TIP3    H134251   2.069   6.109  17.613 -0.6731 -0.4649 -0.8970
 3352TIP3    H234252   1.966   6.029  17.690  0.7369  1.0961  2.8536
 3353TIP3   OH234253   4.616   2.185  19.298 -0.6282 -0.0764  0.1281
 3353TIP3    H134254   4.653   2.249  19.360 -2.0392  0.4521  0.4579
 3353TIP3    H234255   4.535   2.226  19.267 -1.3548 -1.5404  0.0459
 3354TIP3   OH234256   7.435   7.236  18.726  0.0406 -0.1420 -0.6720
 3354TIP3    H134257   7.396   7.276  18.803 -0.3602 -0.5348 -0.6676
 3354TIP3    H234258   7.484   7.161  18.759  3.7135  2.1739 -0.2127
 3355TIP3   OH234259   6.972   1.507  19.587  0.5709 -1.0032  0.0279
 3355TIP3    H134260   6.922   1.534  19.663  3.1234  0.8719  1.1646
 3355TIP3    H234261   6.981   1.586  19.534  2.3092 -1.2421 -0.0951
 3356TIP3   OH234262   5.561   0.349  18.406  0.0772 -0.5062  0.0344
 3356TIP3    H134263   5.574   0.400  18.326 -0.0158  2.3002  1.6738
 3356TIP3    H234264   5.473   0.374  18.436  0.0570 -1.6098  0.9400
 3357TIP3   OH234265   4.691   5.470  19.207  0.4004  0.1838 -0.0141
 3357TIP3    H134266   4.679   5.405  19.137 -0.4103  0.0809  0.2121
 3357TIP3    H234267   4.774   5.445  19.248  0.2229 -0.5660 -0.0892
 3358TIP3   OH234268   0.841   5.969  18.634 -0.1339 -0.0493 -0.5776
 3358TIP3    H134269   0.826   5.991  18.726 -1.3390 -0.8436 -0.5647
 3358TIP3    H234270   0.935   5.986  18.620 -0.1720  1.1547  0.4810
 3359TIP3   OH234271   0.435   0.652  17.633  0.0340 -0.1971 -0.0774
 3359TIP3    H134272   0.475   0.571  17.601  2.0184 -0.0343  1.7738
 3359TIP3    H234273   0.509   0.703  17.668 -1.4263  1.5263  0.6403
 3360TIP3   OH234274   6.734   1.636  18.912 -0.1532  0.4511 -0.0188
 3360TIP3    H134275   6.825   1.606  18.904  0.3788  1.5513  1.3310
 3360TIP3    H234276   6.697   1.579  18.980 -1.0674 -1.1799 -1.7935
 3361TIP3   OH234277   0.677   4.213  17.802 -0.9823 -0.1804 -0.4910
 3361TIP3    H134278   0.766   4.223  17.835 -0.6632  1.9186 -1.7999
 3361TIP3    H234279   0.622   4.214  17.880 -0.0181  1.0972  0.2141
 3362TIP3   OH234280   0.170   2.960  18.375  0.8875 -0.6415  0.0645
 3362TIP3    H134281   0.105   3.018  18.336  1.4572 -0.0695 -0.0472
 3362TIP3    H234282   0.202   3.007  18.452 -0.2876 -1.7961  1.3012
 3363TIP3   OH234283   6.051   3.929  19.496  0.2747  0.1328  0.5047
 3363TIP3    H134284   5.982   3.872  19.462  1.2306 -2.3034  2.3528
 3363TIP3    H234285   6.085   3.974  19.418 -1.1094 -1.1564 -0.9136
 3364TIP3   OH234286   6.607   4.393  18.028  0.6240 -0.5937  0.5097
 3364TIP3    H134287   6.584   4.483  18.053 -1.3604 -1.1457  0.7972
 3364TIP3    H234288   6.702   4.391  18.035  0.5804  0.8818  2.5863
 3365TIP3   OH234289   6.981   3.056  19.241  0.1360 -0.4075 -0.6335
 3365TIP3    H134290   6.983   3.043  19.336  0.2584  0.4157 -0.5208
 3365TIP3    H234291   6.894   3.024  19.215 -0.6360  1.0756  0.0209
 3366TIP3   OH234292   1.973   0.423  18.116  0.7058 -0.0896  0.6747
 3366TIP3    H134293   2.000   0.431  18.024  1.0473  2.6741  0.9094
 3366TIP3    H234294   2.047   0.461  18.165 -1.1912  2.5567  1.7190
 3367TIP3   OH234295   7.528   1.675  17.924 -0.0146 -0.4143 -0.1642
 3367TIP3    H134296   7.539   1.581  17.908  0.5281 -0.5160  0.6939
 3367TIP3    H234297   7.477   1.707  17.850 -1.1226 -1.5887  0.0666
 3368TIP3   OH234298   5.484   4.745  18.438  0.0394 -0.1154  0.0921
 3368TIP3    H134299   5.533   4.705  18.509  0.3322 -0.4138 -0.2723
 3368TIP3    H234300   5.550   4.794  18.388 -0.4940  1.8234  1.2038
 3369TIP3   OH234301   4.709   5.465  17.141  0.1634  0.1122  0.1868
 3369TIP3    H134302   4.661   5.475  17.223 -0.7595  3.9243 -0.6330
 3369TIP3    H234303   4.649   5.416  17.084 -0.3915 -0.0414  0.8844
 3370TIP3   OH234304   0.012   7.199  16.740  0.1406 -0.3962  0.0194
 3370TIP3    H134305   0.084   7.188  16.678  2.1950  2.3221  1.6506
 3370TIP3    H234306  -0.064   7.219  16.686  0.9974 -1.6097 -1.7013
 3371TIP3   OH234307   0.213   1.894  18.822  0.3573 -0.4951  0.1806
 3371TIP3    H134308   0.144   1.851  18.873  1.1086 -1.5050  0.3673
 3371TIP3    H234309   0.281   1.827  18.812  1.2640  0.4438 -0.0911
 3372TIP3   OH234310   0.602   6.160  19.430  0.0443 -0.4088 -0.2618
 3372TIP3    H134311   0.602   6.208  19.347 -0.0446  1.4512  0.7531
 3372TIP3    H234312   0.563   6.221  19.493  2.5572 -0.6844  1.7264
 3373TIP3   OH234313   2.387   3.069  18.339  0.0647  0.4406  0.3591
 3373TIP3    H134314   2.343   3.000  18.390  1.8917 -0.9596  0.1231
 3373TIP3    H234315   2.387   3.036  18.249  0.7081  0.8880  0.1932
 3374TIP3   OH234316   6.924   5.548  19.601 -0.2924 -0.1828 -0.0744
 3374TIP3    H134317   6.995   5.599  19.563  0.1606 -0.3010  0.6033
 3374TIP3    H234318   6.956   5.458  19.598 -0.3311 -0.2118  0.4228
 3375TIP3   OH234319   1.327   7.265  18.494  0.8349  0.0527 -0.3810
 3375TIP3    H134320   1.241   7.306  18.487  0.5041 -0.6582 -0.6582
 3375TIP3    H234321   1.381   7.327  18.542 -0.2486 -0.1327  1.1216
 3376TIP3   OH234322   6.298   6.802  18.806 -0.3092  0.6731  0.1724
 3376TIP3    H134323   6.305   6.769  18.896 -2.0004 -0.5944 -0.1067
 3376TIP3    H234324   6.266   6.891  18.815  1.1278  1.1482  0.8557
 3377TIP3   OH234325   2.709   5.200  18.730 -0.4007 -0.7092  0.1517
 3377TIP3    H134326   2.760   5.223  18.808  1.6992  0.2664 -1.4070
 3377TIP3    H234327   2.651   5.275  18.716 -1.2933 -1.1935  1.1306
 3378TIP3   OH234328   5.910   6.915  19.855  0.0682 -0.7019 -0.2202
 3378TIP3    H134329   5.869   6.961  19.782 -0.1216  0.0888  0.3582
 3378TIP3    H234330   5.838   6.873  19.901  0.0332 -0.2792  0.1293
 3379TIP3   OH234331   5.481   6.798  18.472  0.3659  0.0704 -0.2851
 3379TIP3    H134332   5.533   6.730  18.429 -0.2931  0.1118 -1.1750
 3379TIP3    H234333   5.404   6.808  18.416 -0.5219  0.1315  0.9134
 3380TIP3   OH234334   1.547   6.461  17.692  0.1092 -0.0505  0.0926
 3380TIP3    H134335   1.605   6.429  17.623 -2.7626 -1.5098 -1.8461
 3380TIP3    H234336   1.557   6.398  17.763  0.7542 -0.3979 -0.2996
 3381TIP3   OH234337   2.647   6.843  19.164 -0.0287 -0.4953 -0.2346
 3381TIP3    H134338   2.565   6.806  19.132 -0.1713  0.5580 -1.1791
 3381TIP3    H234339   2.697   6.863  19.085  0.6408 -0.0381  0.2858
 3382TIP3   OH234340   4.673   2.422  19.439  0.4967 -0.2894  0.0836
 3382TIP3    H134341   4.748   2.443  19.495  0.6246 -0.9765  0.1764
 3382TIP3    H234342   4.598   2.428  19.497  0.3852  1.0494 -0.1559
 3383TIP3   OH234343   5.377   1.304  19.023 -0.1692 -0.2329  0.0339
 3383TIP3    H134344   5.309   1.257  18.975  0.7875 -1.7932  0.1468
 3383TIP3    H234345   5.433   1.342  18.955 -0.9309  0.7718 -0.0563
 3384TIP3   OH234346   0.562   3.328  17.725 -0.0357 -0.0479  0.0454
 3384TIP3    H134347   0.609   3.408  17.701  1.1311 -0.1118  1.9215
 3384TIP3    H234348   0.521   3.299  17.643  1.3189  1.2563 -1.1658
 3385TIP3   OH234349   0.001   3.336  19.337 -0.7114 -0.0115 -0.5499
 3385TIP3    H134350   0.055   3.413  19.318 -0.3156 -0.5506 -1.6578
 3385TIP3    H234351  -0.001   3.332  19.433 -0.1456  0.9619 -0.4814
 3386TIP3   OH234352   6.739   5.317  16.609  0.2802 -0.2188  0.2666
 3386TIP3    H134353   6.833   5.337  16.602  0.3416 -0.9686 -1.7424
 3386TIP3    H234354   6.708   5.315  16.518 -2.1256  1.8630  0.9508
 3387TIP3   OH234355   6.152   6.246  19.743  0.4062  0.0890  0.3031
 3387TIP3    H134356   6.236   6.285  19.765  0.4898 -0.2324  0.5592
 3387TIP3    H234357   6.170   6.189  19.669  0.2448  0.6853 -0.2073
 3388TIP3   OH234358   7.068   4.465  17.692  0.0844 -0.2546  0.4988
 3388TIP3    H134359   7.049   4.440  17.602  0.0846  0.4535  0.2970
 3388TIP3    H234360   7.093   4.557  17.687  2.5230 -0.8232  0.8989
 3389TIP3   OH234361   7.483   5.440  19.077  0.5351 -0.1226  0.5756
 3389TIP3    H134362   7.479   5.508  19.009 -0.3153  0.0436  0.7805
 3389TIP3    H234363   7.393   5.434  19.110  1.2111  0.9127  2.7826
 3390TIP3   OH234364   1.511   5.615  19.302  0.4305  0.6648 -0.0840
 3390TIP3    H134365   1.603   5.622  19.276 -0.0891 -0.3296 -2.4228
 3390TIP3    H234366   1.513   5.612  19.398  2.9214 -0.5064 -0.1010
 3391TIP3   OH234367   7.639   7.665  19.029 -0.1629  0.6156 -0.3091
 3391TIP3    H134368   7.544   7.658  19.023 -0.1398  0.5255 -0.5770
 3391TIP3    H234369   7.662   7.737  18.971  0.2151 -1.2763 -2.6562
 3392TIP3   OH234370   7.115   1.593  18.486  0.7178 -0.7936  0.2697
 3392TIP3    H134371   7.048   1.543  18.439 -0.7014  1.7762 -0.6593
 3392TIP3    H234372   7.067   1.636  18.557  1.3147  1.1175 -0.4168
 3393TIP3   OH234373   6.956   6.717  19.462 -0.0232  0.0106 -0.1554
 3393TIP3    H134374   6.909   6.670  19.531 -0.6990 -1.8622 -1.8058
 3393TIP3    H234375   7.045   6.726  19.496 -0.2937 -1.0029  0.8996
 3394TIP3   OH234376   6.496   4.181  19.000 -0.3569 -0.5720 -0.1731
 3394TIP3    H134377   6.551   4.123  19.053  2.0450 -0.8425 -2.6951
 3394TIP3    H234378   6.497   4.265  19.046 -0.3360 -1.3721  1.3487
 3395TIP3   OH234379   6.694   0.337  18.493  0.3673 -0.0174  0.7372
 3395TIP3    H134380   6.685   0.432  18.482  0.8047 -0.0203  0.3124
 3395TIP3    H234381   6.789   0.323  18.494  0.2990 -0.5456 -0.0129
 3396TIP3   OH234382   1.291   5.566  18.581  0.0865 -0.0704 -0.6169
 3396TIP3    H134383   1.300   5.659  18.564 -0.5185  0.2218  0.5593
 3396TIP3    H234384   1.291   5.525  18.494  2.2337  0.8126 -1.0965
 3397TIP3   OH234385   5.422   1.040  17.189  0.0302 -0.9883  0.0052
 3397TIP3    H134386   5.343   1.067  17.141  0.7092 -0.1906 -0.6839
 3397TIP3    H234387   5.436   0.949  17.161 -0.5640 -1.1003  0.0427
 3398TIP3   OH234388   5.488   7.016  17.361 -0.3267 -0.2344  0.4550
 3398TIP3    H134389   5.566   7.029  17.307 -1.2375  1.3011 -0.5733
 3398TIP3    H234390   5.424   6.976  17.301 -0.4773 -1.0820  1.1657
 3399TIP3   OH234391   5.207   1.571  19.462 -0.1494  0.2278 -0.1911
 3399TIP3    H134392   5.264   1.508  19.419  1.6565  0.7922  1.2044
 3399TIP3    H234393   5.193   1.640  19.397  0.3676 -0.1584 -0.7221
 3400TIP3   OH234394   1.765   3.512  19.535  0.7457  0.5283 -0.3047
 3400TIP3    H134395   1.702   3.548  19.597 -0.0770  2.2177 -1.9994
 3400TIP3    H234396   1.847   3.556  19.556  1.1410 -0.7815  1.1278
 3401TIP3   OH234397   0.077   0.999  18.161 -0.2856  0.0311  0.4410
 3401TIP3    H134398  -0.001   0.958  18.123  0.3310  0.1463 -1.0343
 3401TIP3    H234399   0.148   0.938  18.140  0.3574  0.9876 -0.2308
 3402TIP3   OH234400   2.322   0.544  17.964 -0.1942 -0.4832  0.4095
 3402TIP3    H134401   2.344   0.466  18.014  1.0938  0.7959  1.9717
 3402TIP3    H234402   2.355   0.617  18.017  0.3118  1.0395 -1.8375
 3403TIP3   OH234403   0.934   3.883  17.958  0.5411  0.4595  0.4522
 3403TIP3    H134404   1.003   3.842  18.009 -1.2129 -1.8283  1.1450
 3403TIP3    H234405   0.867   3.906  18.023 -1.2657 -1.5345 -0.5899
 3404TIP3   OH234406   3.245   6.095  18.984  0.3360 -0.4475 -0.0856
 3404TIP3    H134407   3.239   6.001  19.001 -1.3409 -0.5530 -1.0432
 3404TIP3    H234408   3.168   6.132  19.027  0.7926  0.4528 -0.0229
 3405TIP3   OH234409   2.944   0.279  19.688  0.0369 -0.4084  0.1241
 3405TIP3    H134410   2.848   0.277  19.684 -0.1062  1.6012  1.1730
 3405TIP3    H234411   2.972   0.241  19.604 -1.7114  0.6691 -1.0164
 3406TIP3   OH234412   4.106   4.009  18.723 -0.1144  0.8176 -0.1094
 3406TIP3    H134413   4.012   3.993  18.725  0.1691 -1.0445  0.4480
 3406TIP3    H234414   4.143   3.929  18.685  1.3154  1.0912  0.6357
 3407TIP3   OH234415   6.193   2.517  18.070  0.0864  0.0444 -0.3935
 3407TIP3    H134416   6.117   2.544  18.018 -1.1708 -0.5707  1.0296
 3407TIP3    H234417   6.155   2.483  18.151  2.0082  3.1250  2.0020
 3408TIP3   OH234418   6.141   4.855  17.737 -0.1445 -0.2260  0.2051
 3408TIP3    H134419   6.056   4.842  17.695 -0.1677 -0.5487  0.3464
 3408TIP3    H234420   6.124   4.836  17.830 -0.1109  0.5427  0.3773
 3409TIP3   OH234421   4.451   5.039  18.305  0.6105  0.0705 -0.5395
 3409TIP3    H134422   4.516   4.969  18.310 -0.4503 -0.9594 -0.5469
 3409TIP3    H234423   4.432   5.061  18.396  0.9164  0.3138 -0.5350
 3410TIP3   OH234424   1.175   3.250  18.959 -0.1888  0.1097  0.0182
 3410TIP3    H134425   1.270   3.259  18.972 -0.2061 -0.1782  0.3611
 3410TIP3    H234426   1.166   3.221  18.868  0.0422  0.3537 -0.0807
 3411TIP3   OH234427   5.442   6.137  17.983  0.1417 -0.3557 -0.2906
 3411TIP3    H134428   5.495   6.130  17.903  0.7217  1.5442 -0.1335
 3411TIP3    H234429   5.354   6.114  17.955  0.4527 -0.3530 -1.3438
 3412TIP3   OH234430   6.758   7.499  19.008 -0.0325 -0.4886 -0.1969
 3412TIP3    H134431   6.744   7.436  19.079  1.3234 -0.6074 -0.0063
 3412TIP3    H234432   6.727   7.582  19.044  0.8692 -0.4979  0.6594
 3413TIP3   OH234433   4.479   5.727  19.617  0.2876 -0.3144 -0.3156
 3413TIP3    H134434   4.474   5.679  19.534  0.3624  0.5826 -0.8496
 3413TIP3    H234435   4.534   5.672  19.673  0.2158 -0.9432 -0.8485
 3414TIP3   OH234436   0.730   4.601  19.471  0.1330 -0.6716 -0.1453
 3414TIP3    H134437   0.754   4.534  19.535  0.1515 -0.8833 -0.3752
 3414TIP3    H234438   0.737   4.683  19.520 -0.2692 -0.8628  0.2450
 3415TIP3   OH234439   2.525   6.802  19.506  0.4103  0.0938 -0.0986
 3415TIP3    H134440   2.523   6.829  19.598 -0.4597 -0.1766 -0.0262
 3415TIP3    H234441   2.554   6.879  19.458  2.4202 -0.2174  0.5412
 3416TIP3   OH234442   0.906   6.068  19.825  0.2472 -0.0305  0.1130
 3416TIP3    H134443   0.916   6.017  19.744  2.2627  0.0762  0.2413
 3416TIP3    H234444   0.904   6.002  19.895  1.6191 -0.0069  0.1883
 3417TIP3   OH234445   6.414   6.323  17.177 -0.3529 -0.2438  0.2782
 3417TIP3    H134446   6.363   6.403  17.161 -0.1241 -0.1527  0.0003
 3417TIP3    H234447   6.505   6.351  17.167 -0.2887 -0.6557 -0.3716
 3418TIP3   OH234448   1.732   4.325  18.635 -0.1389  0.5737 -0.8251
 3418TIP3    H134449   1.797   4.256  18.650  0.8240  1.4660 -0.7568
 3418TIP3    H234450   1.677   4.322  18.713  0.5680  0.5871 -0.3108
 3419TIP3   OH234451   2.709   1.558  18.218 -0.3304 -0.3106 -0.6309
 3419TIP3    H134452   2.698   1.463  18.219  0.6967 -0.4594 -1.5592
 3419TIP3    H234453   2.795   1.573  18.257  0.0856  0.1231 -1.6546
 3420TIP3   OH234454   6.803   3.886  17.942 -0.1404 -0.5725  0.3456
 3420TIP3    H134455   6.838   3.832  17.872 -0.5785 -0.4719  0.0435
 3420TIP3    H234456   6.845   3.971  17.930 -0.5588 -0.4238 -0.0737
 3421TIP3   OH234457   5.115   1.951  16.802  0.1173 -0.4700  0.4962
 3421TIP3    H134458   5.156   1.966  16.888 -1.2719 -2.1444  1.5227
 3421TIP3    H234459   5.049   1.883  16.819 -2.0091  0.9839 -1.3648
 3422TIP3   OH234460   1.297   5.822  18.692  0.2124 -0.3114  0.0497
 3422TIP3    H134461   1.377   5.871  18.708 -1.1381  1.8872  0.4359
 3422TIP3    H234462   1.308   5.742  18.744  1.7523  0.3777  0.8669
 3423TIP3   OH234463   5.811   7.181  19.704 -0.0552  0.5799  0.0185
 3423TIP3    H134464   5.895   7.210  19.737 -0.0060  0.6720 -0.1836
 3423TIP3    H234465   5.748   7.246  19.735 -0.2845 -0.2660  1.4098
 3424TIP3   OH234466   0.600   4.915  18.037 -0.0024 -0.1578  0.4714
 3424TIP3    H134467   0.628   5.006  18.040  0.1625 -0.1999  0.2280
 3424TIP3    H234468   0.548   4.908  17.956  0.3873 -0.3909  0.2333
 3425TIP3   OH234469   6.214   1.594  17.877 -0.2651  0.3793  0.0573
 3425TIP3    H134470   6.216   1.586  17.782  0.0099  0.1456  0.0815
 3425TIP3    H234471   6.264   1.518  17.909 -0.1272  0.6009  0.3789
 3426TIP3   OH234472   4.241   2.987  19.945  0.0206  0.6258  0.0214
 3426TIP3    H134473   4.250   2.932  19.867  0.9261 -0.7671  1.0808
 3426TIP3    H234474   4.175   2.944  19.999 -1.1155  1.9534 -0.2339
 3427TIP3   OH234475   7.626   2.643  19.711 -0.0034  0.2442  0.5520
 3427TIP3    H134476   7.604   2.565  19.762 -0.0443 -1.1702 -1.5175
 3427TIP3    H234477   7.543   2.690  19.701 -0.1624  0.0625  0.9942
 3428TIP3   OH234478   7.274   1.197  18.363  0.3604  0.6247 -0.1436
 3428TIP3    H134479   7.297   1.190  18.455 -0.0337  2.6922  0.1722
 3428TIP3    H234480   7.347   1.156  18.317  0.1755 -1.1723  1.0667
 3429TIP3   OH234481   5.995   2.662  18.347  0.3017 -0.2737 -0.1409
 3429TIP3    H134482   6.042   2.586  18.314  3.4840  0.5784  1.9876
 3429TIP3    H234483   5.955   2.631  18.429 -0.4604 -0.2326 -0.4866
 3430TIP3   OH234484   2.131   4.337  19.473  0.5933 -0.0521 -0.4237
 3430TIP3    H134485   2.146   4.431  19.466 -0.9755  0.2204 -0.4217
 3430TIP3    H234486   2.178   4.311  19.552  0.1131  0.9411  0.2054
 3431TIP3   OH234487   5.466   6.588  19.408 -0.0846 -0.5969  0.0995
 3431TIP3    H134488   5.479   6.505  19.363  0.1957 -0.4130 -0.1665
 3431TIP3    H234489   5.392   6.629  19.363  0.1639 -0.4355 -0.1683
 3432TIP3   OH234490   7.429   3.118  17.540 -0.1717  0.3592 -0.2574
 3432TIP3    H134491   7.418   3.120  17.445 -1.9929  0.0801 -0.0879
 3432TIP3    H234492   7.494   3.050  17.556  3.0568  2.8503 -1.4647
 3433TIP3   OH234493   6.058   1.990  18.203  0.6652 -0.0920  0.0160
 3433TIP3    H134494   6.064   1.954  18.292  0.3498  0.5645  0.3099
 3433TIP3    H234495   6.046   1.913  18.147  0.3410 -0.4702  0.5933
 3434TIP3   OH234496   6.112   1.606  19.307  0.1672  0.3121  0.4575
 3434TIP3    H134497   6.163   1.684  19.329  0.5903 -0.3000  1.7497
 3434TIP3    H234498   6.021   1.635  19.309  0.3292  0.8106  0.7430
 3435TIP3   OH234499   1.253   4.884  17.462  0.0586  0.0878  0.5522
 3435TIP3    H134500   1.249   4.788  17.459 -0.5178  0.1039  0.6625
 3435TIP3    H234501   1.174   4.912  17.415 -0.0741  0.5023  1.0160
 3436TIP3   OH234502   1.453   0.674  17.472 -0.3003 -0.1057  0.3739
 3436TIP3    H134503   1.488   0.669  17.383 -1.9153 -1.6933 -0.2272
 3436TIP3    H234504   1.428   0.766  17.483  1.0821  0.3797 -0.3038
 3437TIP3   OH234505   2.887   5.220  17.900 -0.0833 -0.1031  0.3692
 3437TIP3    H134506   2.934   5.176  17.971  1.0822 -1.5608 -1.2091
 3437TIP3    H234507   2.942   5.294  17.877 -0.7960  0.7743  1.3682
 3438TIP3   OH234508   3.913   7.124  19.690 -0.2263 -0.0114  0.0869
 3438TIP3    H134509   4.007   7.120  19.673 -0.4565 -0.7336 -1.1637
 3438TIP3    H234510   3.897   7.216  19.713  0.8679 -0.0092  0.9420
 3439TIP3   OH234511   5.983   2.780  18.780 -0.1373 -0.6331 -0.2056
 3439TIP3    H134512   5.961   2.703  18.832  0.7834 -0.4422  0.4812
 3439TIP3    H234513   6.021   2.745  18.699  1.2597 -0.8894  0.5506
 3440TIP3   OH234514   6.573   0.909  18.248 -0.0381  0.1266  0.4771
 3440TIP3    H134515   6.582   0.880  18.157 -0.4582 -0.5729  0.6524
 3440TIP3    H234516   6.514   0.845  18.288  2.1172 -1.0787  1.9177
 3441TIP3   OH234517   0.194   5.351  18.477 -0.5293 -0.4649  0.1223
 3441TIP3    H134518   0.226   5.367  18.388  0.4785  0.0262  0.5509
 3441TIP3    H234519   0.218   5.430  18.525  0.4481 -1.3910  1.2212
 3442TIP3   OH234520   4.359   5.513  18.696 -0.2832 -0.1640  0.0948
 3442TIP3    H134521   4.329   5.598  18.663 -1.7690  0.0123  1.7536
 3442TIP3    H234522   4.386   5.465  18.618 -2.8652  0.4946 -1.3227
 3443TIP3   OH234523   1.075   2.576  18.926 -0.3030  0.2121  0.4999
 3443TIP3    H134524   1.119   2.603  19.006 -0.1667 -0.3937  0.6318
 3443TIP3    H234525   1.146   2.549  18.867 -0.4749 -0.5493  0.6320
 3444TIP3   OH234526   2.652   7.524  17.485  0.0646  0.0376  0.2057
 3444TIP3    H134527   2.727   7.544  17.429 -0.5363  0.2258 -0.5493
 3444TIP3    H234528   2.622   7.609  17.517 -0.7904  0.1263 -0.7770
 3445TIP3   OH234529   0.740   1.254  18.317  0.8635 -0.0826 -0.5802
 3445TIP3    H134530   0.721   1.216  18.403  1.2886  1.0496  0.0439
 3445TIP3    H234531   0.726   1.348  18.329 -0.9917 -0.0751 -2.2930
 3446TIP3   OH234532   7.450   7.298  17.873 -0.1264 -0.2839  0.1832
 3446TIP3    H134533   7.369   7.341  17.845  0.1730 -1.3301 -2.6236
 3446TIP3    H234534   7.448   7.213  17.830  1.7853 -0.9499  1.2812
 3447TIP3   OH234535   2.255   6.226  17.362  0.2457  0.3330  0.1170
 3447TIP3    H134536   2.242   6.254  17.271  1.1766 -0.7082 -0.3623
 3447TIP3    H234537   2.298   6.141  17.355  0.1018  0.1121  1.5406
 3448TIP3   OH234538   3.672   0.698  17.301  0.2711  0.2952 -0.2243
 3448TIP3    H134539   3.662   0.771  17.362  1.3284 -0.4715  0.9374
 3448TIP3    H234540   3.616   0.629  17.336  0.8121 -0.1196 -0.1463
 3449TIP3   OH234541   1.639   0.566  17.798 -0.1037  0.1606 -0.6053
 3449TIP3    H134542   1.694   0.559  17.720 -0.7228 -2.7793 -0.8980
 3449TIP3    H234543   1.560   0.610  17.768  0.4387  0.8000 -1.1357
 3450TIP3   OH234544   4.373   2.922  17.986 -0.1506 -0.3487  0.5120
 3450TIP3    H134545   4.342   2.963  18.066 -1.1519  0.5922 -0.3277
 3450TIP3    H234546   4.369   2.828  18.004 -1.6811 -0.2002  1.1156
 3451TIP3   OH234547   1.333   5.279  18.829 -0.0245 -0.4118  0.5211
 3451TIP3    H134548   1.343   5.188  18.856  0.1397 -0.3892  0.5428
 3451TIP3    H234549   1.264   5.314  18.885 -0.7889 -0.7928 -0.1597
 3452TIP3   OH234550   7.041   5.951  18.696 -0.2749  0.4124 -0.0432
 3452TIP3    H134551   6.994   5.926  18.617 -0.9496  1.2378  0.0752
 3452TIP3    H234552   7.092   6.027  18.671 -1.2555  1.2942  0.5286
 3453TIP3   OH234553   7.456   3.544  19.250 -0.4171  0.0712  0.2250
 3453TIP3    H134554   7.509   3.619  19.275  0.2558  0.4704 -2.1429
 3453TIP3    H234555   7.510   3.468  19.275 -0.8646  0.3276  2.1215
 3454TIP3   OH234556   1.898   6.600  19.648  0.4957 -0.3150 -0.1381
 3454TIP3    H134557   1.836   6.564  19.712  0.3645  0.1380 -0.0121
 3454TIP3    H234558   1.963   6.646  19.701  0.1784  0.3897 -0.3487
 3455TIP3   OH234559   4.092   6.131  16.858  0.2495  0.0844 -0.3299
 3455TIP3    H134560   4.151   6.059  16.882 -0.4813 -0.4511 -0.1022
 3455TIP3    H234561   4.036   6.093  16.790 -0.9804  0.0298  0.6818
 3456TIP3   OH234562   6.384   5.696  17.678  0.8520  0.4019  0.2785
 3456TIP3    H134563   6.478   5.706  17.661  0.9676 -1.3391 -0.2307
 3456TIP3    H234564   6.342   5.720  17.595  0.7302  2.2860  0.8315
 3457TIP3   OH234565   0.978   1.469  17.090  0.2939 -0.2893  0.1503
 3457TIP3    H134566   0.895   1.514  17.105 -0.0888 -1.4779  1.9914
 3457TIP3    H234567   0.953   1.388  17.045  0.5036 -0.4221  0.2687
 3458TIP3   OH234568   6.202   0.658  19.613 -0.5305 -0.3492  0.3150
 3458TIP3    H134569   6.251   0.740  19.607  0.6399 -1.1036 -1.0228
 3458TIP3    H234570   6.216   0.616  19.528 -1.7767 -1.5749  0.6822
 3459TIP3   OH234571   2.276   2.247  19.546 -0.0715  0.0298 -0.4202
 3459TIP3    H134572   2.218   2.311  19.506  0.2347 -0.0733 -1.0419
 3459TIP3    H234573   2.218   2.175  19.572 -0.3495  0.3462 -0.1515
 3460TIP3   OH234574   6.645   0.906  18.731 -0.8514  0.9545 -0.9609
 3460TIP3    H134575   6.565   0.931  18.777 -0.9499 -1.0182  0.0223
 3460TIP3    H234576   6.647   0.964  18.655 -3.2494  1.0071 -1.0633
 3461TIP3   OH234577   1.890   7.344  19.086 -0.4158 -0.2779 -0.5522
 3461TIP3    H134578   1.982   7.338  19.062  0.3947  0.4447  2.0395
 3461TIP3    H234579   1.857   7.419  19.035 -0.2596 -1.8865 -3.2110
 3462TIP3   OH234580   6.163   3.741  17.779 -0.4032 -0.1905  0.1095
 3462TIP3    H134581   6.090   3.720  17.836  1.1946 -0.3400  2.2483
 3462TIP3    H234582   6.229   3.674  17.799  0.7474  0.5853 -0.9004
 3463TIP3   OH234583   3.384   0.308  18.059 -0.1170  0.1165  0.1479
 3463TIP3    H134584   3.344   0.354  17.986 -0.7248  1.4381  1.2787
 3463TIP3    H234585   3.404   0.221  18.024  1.5942  1.3484 -2.2195
 3464TIP3   OH234586   5.163   5.926  19.011  0.2138  0.2241 -0.6075
 3464TIP3    H134587   5.157   5.845  19.061  0.1883  0.0927 -0.8202
 3464TIP3    H234588   5.097   5.916  18.942  1.6669 -0.5117 -1.9611
 3465TIP3   OH234589   7.185   4.627  19.026 -0.4761 -0.2595  0.9767
 3465TIP3    H134590   7.250   4.652  19.092  0.9066  0.8848 -0.7323
 3465TIP3    H234591   7.213   4.673  18.946 -1.8208 -1.9408 -0.5379
 3466TIP3   OH234592   7.265   4.658  17.588 -0.2737  0.2689  0.0371
 3466TIP3    H134593   7.301   4.726  17.531 -1.1198 -0.3167 -1.2447
 3466TIP3    H234594   7.293   4.575  17.548  1.5405 -0.1986  2.0869
 3467TIP3   OH234595   3.273   3.049  18.818  0.4520 -0.4219 -0.7860
 3467TIP3    H134596   3.195   3.043  18.763  0.1962  0.3230 -0.5089
 3467TIP3    H234597   3.282   2.961  18.855 -0.6234 -0.3674 -0.3333
 3468TIP3   OH234598   3.354   0.529  18.835 -0.4430  0.0977 -0.1469
 3468TIP3    H134599   3.393   0.580  18.906  2.4762 -1.0009 -0.8323
 3468TIP3    H234600   3.272   0.574  18.816 -1.8119  0.0235  4.3718
 3469TIP3   OH234601   0.193   0.517  19.042  0.6965  0.2884 -0.4198
 3469TIP3    H134602   0.191   0.422  19.055  0.8078  0.3268 -0.1073
 3469TIP3    H234603   0.281   0.543  19.070  0.0845  0.7223  1.2341
 3470TIP3   OH234604   0.930   4.531  18.549  0.2819 -0.3006 -0.3019
 3470TIP3    H134605   1.004   4.497  18.498 -1.4138 -2.3276 -1.5583
 3470TIP3    H234606   0.966   4.545  18.637  2.3525 -0.3915 -1.0870
 3471TIP3   OH234607   2.676   3.865  18.731 -0.0908 -0.2636  0.4559
 3471TIP3    H134608   2.675   3.843  18.638 -1.6313 -0.8386  0.5799
 3471TIP3    H234609   2.705   3.956  18.735  0.4286 -0.3828 -0.5458
 3472TIP3   OH234610   3.932   2.649  18.750 -0.2431  0.9013 -0.4457
 3472TIP3    H134611   4.002   2.592  18.720 -1.2643  0.0363 -1.2665
 3472TIP3    H234612   3.939   2.648  18.846 -1.5244 -2.3898 -0.2758
 3473TIP3   OH234613   5.347   4.840  17.952 -0.6639 -0.2133  0.1127
 3473TIP3    H134614   5.301   4.831  17.868 -0.3877  0.9997 -0.1960
 3473TIP3    H234615   5.290   4.898  18.003 -0.4165 -0.2648  0.4485
 3474TIP3   OH234616   3.922   5.235  18.451 -0.4000  0.1542 -0.2628
 3474TIP3    H134617   3.888   5.192  18.529  0.9158 -0.8165 -0.1830
 3474TIP3    H234618   4.014   5.249  18.469 -0.3005  0.8919 -1.2319
 3475TIP3   OH234619   0.301   4.818  19.120 -0.2522 -0.7719  0.1311
 3475TIP3    H134620   0.241   4.870  19.174 -1.9828 -0.0274 -2.2863
 3475TIP3    H234621   0.300   4.862  19.035  0.3814 -3.1943 -1.2334
 3476TIP3   OH234622   5.722   4.234  16.777  0.5835 -0.2945 -0.1569
 3476TIP3    H134623   5.723   4.159  16.836 -0.1056 -0.5378 -0.4448
 3476TIP3    H234624   5.700   4.197  16.691  1.8279  0.0186 -0.6349
 3477TIP3   OH234625   1.852   1.253  19.080  0.1748 -0.5709  0.6312
 3477TIP3    H134626   1.781   1.206  19.126 -0.3848 -0.6136 -0.2580
 3477TIP3    H234627   1.889   1.311  19.147 -0.3927 -0.8827  1.2326
 3478TIP3   OH234628   7.432   0.366  18.338  0.8634  0.1941  0.5077
 3478TIP3    H134629   7.408   0.450  18.297 -0.0217 -1.3477 -2.4318
 3478TIP3    H234630   7.498   0.330  18.279 -0.2753 -2.0760  0.5470
 3479TIP3   OH234631   3.402   6.151  18.318  0.1995  0.1329  0.0544
 3479TIP3    H134632   3.346   6.212  18.366 -2.3898 -1.1492 -1.1249
 3479TIP3    H234633   3.476   6.135  18.377 -2.6550 -1.1777  3.6737
 3480TIP3   OH234634   3.764   1.379  17.258 -0.1471 -0.1749  0.5410
 3480TIP3    H134635   3.681   1.331  17.256  1.2137 -2.7180 -1.9701
 3480TIP3    H234636   3.818   1.333  17.322  0.6128 -1.0441 -0.6917
 3481TIP3   OH234637   1.468   3.293  18.130  0.1113 -0.5560 -0.0851
 3481TIP3    H134638   1.540   3.352  18.107  0.5114 -0.5305  1.1565
 3481TIP3    H234639   1.511   3.220  18.175 -0.5898 -0.7313  0.3148
 3482TIP3   OH234640   4.153   6.399  17.282 -0.2818  0.3781  0.1713
 3482TIP3    H134641   4.168   6.305  17.282 -0.8431  0.2846 -0.0178
 3482TIP3    H234642   4.077   6.411  17.339  1.0928  0.9436  1.9792
 3483TIP3   OH234643   6.232   3.017  17.965  0.6601 -0.0349  0.1564
 3483TIP3    H134644   6.214   3.075  18.039 -0.3087  0.7051 -0.6345
 3483TIP3    H234645   6.242   2.931  18.004 -1.2014  0.0962  1.0634
 3484TIP3   OH234646   4.598   0.023  18.332  0.5529  0.6478  0.1131
 3484TIP3    H134647   4.616   0.117  18.339  0.6567  0.6174  0.2375
 3484TIP3    H234648   4.594   0.007  18.237 -0.7972  1.0358  0.0843
 3485TIP3   OH234649   5.545   6.441  17.186 -0.5141 -0.3054  0.0618
 3485TIP3    H134650   5.545   6.536  17.179 -0.8698 -0.3258 -0.2301
 3485TIP3    H234651   5.468   6.420  17.238 -0.6264 -0.4514 -0.1608
 3486TIP3   OH234652   4.024   6.206  19.785 -0.1898 -0.1209 -0.0550
 3486TIP3    H134653   3.962   6.279  19.793  1.6509  1.7668 -1.6508
 3486TIP3    H234654   4.089   6.222  19.854  1.3234  1.0128 -1.6561
 3487TIP3   OH234655   4.621   1.162  17.762  0.4526  0.4121  0.3860
 3487TIP3    H134656   4.533   1.189  17.735 -0.1488 -0.3020  1.5263
 3487TIP3    H234657   4.615   1.153  17.857  1.0295 -2.0786  0.2748
 3488TIP3   OH234658   7.612   6.645  19.418 -0.1015 -0.0756  0.0794
 3488TIP3    H134659   7.550   6.585  19.376  1.5319 -0.9876 -1.1574
 3488TIP3    H234660   7.698   6.606  19.401  1.2973  3.6612 -2.7128
 3489TIP3   OH234661   2.940   1.780  19.112  0.2166 -0.6705 -0.1146
 3489TIP3    H134662   2.931   1.749  19.202 -0.9470  2.2728  0.9145
 3489TIP3    H234663   2.992   1.860  19.120 -1.9214  0.9728 -1.6699
 3490TIP3   OH234664   7.142   6.503  17.238 -0.3091 -0.3813  0.2909
 3490TIP3    H134665   7.072   6.510  17.173 -1.1417 -1.3475  1.0408
 3490TIP3    H234666   7.153   6.593  17.271 -1.2531 -0.2197  0.2054
 3491TIP3   OH234667   5.234   6.923  17.973  0.6154  0.4698  0.0940
 3491TIP3    H134668   5.238   6.922  17.877 -0.7378 -0.7426  0.0152
 3491TIP3    H234669   5.153   6.969  17.993 -0.6303 -1.7661  0.5175
 3492TIP3   OH234670   7.254   6.093  18.997 -0.6339 -0.2100 -0.0267
 3492TIP3    H134671   7.221   6.047  18.920 -1.3461 -2.3640  1.4908
 3492TIP3    H234672   7.321   6.035  19.033 -1.2483  0.1086  1.7256
 3493TIP3   OH234673   7.227   2.438  18.751 -0.6555 -0.6637 -0.1263
 3493TIP3    H134674   7.317   2.472  18.752  0.3096 -3.0568 -0.2060
 3493TIP3    H234675   7.203   2.438  18.658  0.0271 -1.8137 -0.3229
 3494TIP3   OH234676   1.316   2.277  18.139  0.0776 -0.3459 -0.4381
 3494TIP3    H134677   1.398   2.248  18.178 -0.3490 -0.8503  0.1256
 3494TIP3    H234678   1.279   2.199  18.099 -1.1095 -0.6468  1.1394
 3495TIP3   OH234679   3.461   4.098  19.005 -0.1967 -0.4327 -0.1183
 3495TIP3    H134680   3.472   4.015  19.053  1.0416 -0.1408  0.1387
 3495TIP3    H234681   3.375   4.129  19.031  0.4177 -0.3002  1.9567
 3496TIP3   OH234682   0.310   7.545  18.018 -0.3637  0.1988  0.2396
 3496TIP3    H134683   0.293   7.633  17.984  1.4158 -0.0201 -1.4149
 3496TIP3    H234684   0.306   7.489  17.940 -2.1466 -1.3389  1.3548
 3497TIP3   OH234685   2.632   0.904  18.400 -0.7757  0.0884 -0.2394
 3497TIP3    H134686   2.715   0.932  18.363 -1.5644  2.5104 -0.3467
 3497TIP3    H234687   2.570   0.906  18.326 -1.2862 -0.0093  0.1761
 3498TIP3   OH234688   0.255   7.509  19.471  0.4253  0.1546 -0.1827
 3498TIP3    H134689   0.206   7.563  19.532  1.3021  0.0400  0.6385
 3498TIP3    H234690   0.346   7.536  19.482  0.5031  0.8747 -2.2029
 3499TIP3   OH234691   6.911   2.655  19.753  0.1634 -0.1172  0.1436
 3499TIP3    H134692   6.868   2.723  19.805  0.5171  0.0975  0.1648
 3499TIP3    H234693   6.890   2.573  19.798  1.1012  0.1338  1.0957
 3500TIP3   OH234694   4.452   1.392  18.440 -0.2490 -0.5015  0.1557
 3500TIP3    H134695   4.468   1.422  18.351 -2.5055  2.2889  0.5368
 3500TIP3    H234696   4.450   1.472  18.493  0.3782 -1.9923  2.6323
 3501TIP3   OH234697   1.121   5.390  18.699 -0.2708 -0.6004 -0.3531
 3501TIP3    H134698   1.166   5.457  18.649 -1.3199  0.3250 -0.0880
 3501TIP3    H234699   1.191   5.337  18.737  0.5452 -0.5155 -1.7031
 3502TIP3   OH234700   0.661   6.839  19.482 -0.1273 -0.1922  0.3189
 3502TIP3    H134701   0.715   6.889  19.542  0.4124 -0.5970  0.1800
 3502TIP3    H234702   0.697   6.750  19.485 -1.9305 -0.9626  1.6429
 3503TIP3   OH234703   0.696   5.746  18.286  0.3438 -0.1154 -0.3337
 3503TIP3    H134704   0.644   5.826  18.284  1.6478  0.8813  1.9437
 3503TIP3    H234705   0.748   5.750  18.205  0.8505  1.7160  0.0335
 3504TIP3   OH234706   4.522   3.546  18.253  0.0464  0.4207  0.5982
 3504TIP3    H134707   4.494   3.457  18.235 -1.7178  1.0564  0.0350
 3504TIP3    H234708   4.546   3.582  18.168  0.7803  0.4944  0.8263
 3505TIP3   OH234709   0.247   0.859  18.428 -0.2781  0.0303 -0.2700
 3505TIP3    H134710   0.270   0.848  18.336  0.7324  0.8438 -0.1380
 3505TIP3    H234711   0.279   0.780  18.471 -0.0002  0.0174 -0.4970
 3506TIP3   OH234712   1.667   2.411  18.209 -0.2102 -0.6061 -0.1965
 3506TIP3    H134713   1.735   2.427  18.274 -1.1629  0.1982  0.6290
 3506TIP3    H234714   1.646   2.318  18.217 -0.5920 -0.4357  0.9366
 3507TIP3   OH234715   5.401   5.872  18.864  0.8631  0.1129  0.0184
 3507TIP3    H134716   5.318   5.881  18.910  1.6523  2.0659  1.1699
 3507TIP3    H234717   5.378   5.875  18.771 -0.4225 -0.3326  0.3125
 3508TIP3   OH234718   4.886   3.319  17.893  0.3392  0.0497 -0.2002
 3508TIP3    H134719   4.923   3.271  17.967 -2.0574 -0.4015  0.7909
 3508TIP3    H234720   4.856   3.251  17.833 -1.8143  0.2196  0.5732
 3509TIP3   OH234721   2.584   5.068  19.801  0.0455 -0.1649 -0.2932
 3509TIP3    H134722   2.535   4.990  19.827 -0.9076  0.5459  0.1467
 3509TIP3    H234723   2.580   5.125  19.879  1.4647 -0.0226 -0.2995
 3510TIP3   OH234724   3.296   7.569  19.020 -0.1827  0.4148  0.2733
 3510TIP3    H134725   3.368   7.509  19.040 -0.7854 -1.1593 -1.8980
 3510TIP3    H234726   3.307   7.590  18.928 -1.3989  1.7395  0.3997
 3511TIP3   OH234727   4.072   6.362  17.670  0.8021  0.4066 -0.5744
 3511TIP3    H134728   4.043   6.413  17.745  0.7765  0.1410 -0.4031
 3511TIP3    H234729   4.013   6.388  17.599  0.7134  0.5267 -0.4572
 3512TIP3   OH234730   2.955   0.227  19.196 -0.8741 -0.1491  0.2788
 3512TIP3    H134731   2.889   0.284  19.235 -0.7582  0.2161 -0.0552
 3512TIP3    H234732   2.950   0.244  19.102  1.3363  1.7058  0.3984
 3513TIP3   OH234733   1.099   3.861  18.176 -0.0812 -0.4053 -0.1350
 3513TIP3    H134734   1.152   3.781  18.179  0.5907  0.0160 -0.5190
 3513TIP3    H234735   1.163   3.932  18.172 -0.6736  0.1539  0.1352
 3514TIP3   OH234736   7.212   5.148  18.618  0.2928 -0.9069 -0.2414
 3514TIP3    H134737   7.170   5.097  18.687  0.5923 -0.8735 -0.0313
 3514TIP3    H234738   7.209   5.091  18.541 -0.6347 -0.6851 -0.3795
 3515TIP3   OH234739   1.673   6.953  18.334  0.1289 -0.3448  0.1171
 3515TIP3    H134740   1.594   6.981  18.382 -0.4058 -1.8814  0.1748
 3515TIP3    H234741   1.683   6.861  18.356  2.1553 -0.1029  0.3569
 3516TIP3   OH234742   6.984   0.530  18.614 -0.4991  0.1264  0.1887
 3516TIP3    H134743   7.065   0.514  18.662 -0.5375  1.2193  0.6586
 3516TIP3    H234744   6.998   0.488  18.529  0.6439  0.4683  0.1884
 3517TIP3   OH234745   3.203   3.716  18.418  0.3660  0.5241  0.2542
 3517TIP3    H134746   3.130   3.752  18.469 -1.3753  2.2376 -3.1398
 3517TIP3    H234747   3.239   3.791  18.371  2.2724 -0.8548 -0.6221
 3518TIP3   OH234748   6.024   5.304  18.866  0.1350  0.2991  0.0833
 3518TIP3    H134749   6.012   5.221  18.911 -3.4798  0.6746  0.0884
 3518TIP3    H234750   5.979   5.368  18.921 -1.2235  1.3904 -2.1394
 3519TIP3   OH234751   5.030   0.333  17.214 -0.4890 -0.3150 -0.4963
 3519TIP3    H134752   4.939   0.341  17.243 -0.7106  1.4939 -1.5286
 3519TIP3    H234753   5.072   0.279  17.281 -1.8925  0.3365  0.9788
 3520TIP3   OH234754   1.472   6.637  18.199  0.0762 -0.0890 -0.4327
 3520TIP3    H134755   1.553   6.619  18.151 -0.4684 -0.3123 -1.2948
 3520TIP3    H234756   1.402   6.614  18.137 -0.6408  1.3108 -0.1802
 3521TIP3   OH234757   2.411   7.337  18.158  0.3047 -0.0359 -0.7826
 3521TIP3    H134758   2.413   7.290  18.241  0.4650  0.8287 -0.2949
 3521TIP3    H234759   2.327   7.313  18.119  0.6221 -1.1747 -0.8104
 3522TIP3   OH234760   3.257   7.152  17.795  0.4220  0.0830 -0.1481
 3522TIP3    H134761   3.187   7.166  17.859  1.7221 -0.1761  1.4008
 3522TIP3    H234762   3.285   7.240  17.770  1.1533  0.2428  1.1212
 3523TIP3   OH234763   2.707   4.426  17.918  0.4478  0.1250  0.6586
 3523TIP3    H134764   2.652   4.365  17.966  0.5375 -0.9640 -0.5712
 3523TIP3    H234765   2.653   4.454  17.844  1.3517 -0.6030 -0.3072
 3524TIP3   OH234766   4.328   0.007  17.700  0.5860 -0.3874 -0.1764
 3524TIP3    H134767   4.323  -0.089  17.704  1.1495 -0.3723  2.3341
 3524TIP3    H234768   4.236   0.035  17.701  0.3837 -0.8663 -1.8296
 3525TIP3   OH234769   6.277   0.114  18.685  0.2925  1.1378 -1.0662
 3525TIP3    H134770   6.208   0.052  18.659  1.0241 -0.3067  0.2856
 3525TIP3    H234771   6.347   0.099  18.621  0.1553  1.1326 -1.2148
 3526TIP3   OH234772   4.246   6.166  18.773 -0.4480 -0.7320 -0.1215
 3526TIP3    H134773   4.202   6.121  18.701  0.0912  0.4631 -1.2585
 3526TIP3    H234774   4.257   6.256  18.741 -1.2964  0.1788  1.9492
 3527TIP3   OH234775   2.076   2.807  19.714 -0.1102  0.0798 -0.8297
 3527TIP3    H134776   2.097   2.870  19.645 -0.6132  2.8033  1.3213
 3527TIP3    H234777   2.157   2.796  19.764 -0.3919  0.1680 -0.3411
 3528TIP3   OH234778   1.420   5.894  17.980 -0.0785 -0.5227  0.3720
 3528TIP3    H134779   1.499   5.948  17.974  0.4763 -1.1017  1.9705
 3528TIP3    H234780   1.446   5.810  17.940 -0.5808 -0.0311 -1.0501
 3529TIP3   OH234781   6.078   6.723  19.153  1.0691 -0.1179  0.2375
 3529TIP3    H134782   6.026   6.693  19.079  1.3567 -0.3571  0.1311
 3529TIP3    H234783   6.069   6.654  19.219  0.0524  0.5247  0.7966
 3530TIP3   OH234784   2.935   3.580  18.715 -0.3581  0.0133  0.3889
 3530TIP3    H134785   2.962   3.513  18.652 -1.5124 -0.5085  0.4388
 3530TIP3    H234786   3.011   3.590  18.773  0.4917  0.0650 -0.7076
 3531TIP3   OH234787   3.922   5.541  18.225 -0.1254 -0.1688 -0.4057
 3531TIP3    H134788   3.864   5.510  18.294 -0.4164 -0.7225 -0.8858
 3531TIP3    H234789   3.867   5.541  18.146  0.0967  0.7931 -0.5762
 3532TIP3   OH234790   5.943   6.334  19.431  0.3137 -0.4040 -0.1800
 3532TIP3    H134791   5.945   6.248  19.388 -0.1904 -0.1237 -0.7942
 3532TIP3    H234792   5.907   6.317  19.518 -1.7990 -0.5628 -1.0157
 3533TIP3   OH234793   1.896   3.409  18.398 -0.1924 -0.4818  0.0119
 3533TIP3    H134794   1.867   3.455  18.319 -0.2248  1.3511  1.0423
 3533TIP3    H234795   1.986   3.381  18.377  0.2354  1.0238 -0.2749
 3534TIP3   OH234796   6.734   5.476  18.310  0.2079 -0.1206  0.2473
 3534TIP3    H134797   6.714   5.383  18.300  2.5036 -0.9121  1.9493
 3534TIP3    H234798   6.767   5.484  18.400  0.5365  2.2581 -0.0009
 3535TIP3   OH234799   6.052   4.592  19.576  0.5013  0.0685 -0.4716
 3535TIP3    H134800   6.143   4.562  19.580  0.4663  0.0628  1.6621
 3535TIP3    H234801   6.001   4.512  19.584  0.3317  0.1926 -0.3198
 3536TIP3   OH234802   0.226   4.059  18.664 -0.8009  0.5097  0.4182
 3536TIP3    H134803   0.172   4.087  18.738 -1.0596  1.7567 -0.2076
 3536TIP3    H234804   0.216   4.130  18.600  0.2966 -0.0170 -0.3586
 3537TIP3   OH234805   1.214   3.354  18.221 -0.2588  0.4423 -0.3496
 3537TIP3    H134806   1.221   3.310  18.306 -2.3442  0.5021 -0.1172
 3537TIP3    H234807   1.291   3.323  18.172  1.7939  1.4795  1.9743
 3538TIP3   OH234808   0.629   2.018  17.802 -0.2626  0.7305  0.2149
 3538TIP3    H134809   0.610   1.931  17.768  0.4887 -0.0242  1.6071
 3538TIP3    H234810   0.666   2.065  17.728 -0.0129 -0.3712 -0.3868
 3539TIP3   OH234811   6.446   2.050  19.510 -0.3454 -0.1899  0.1659
 3539TIP3    H134812   6.461   2.067  19.417 -0.0863 -1.2454  0.0012
 3539TIP3    H234813   6.369   1.994  19.511 -0.8515  0.4957  0.6542
 3540TIP3   OH234814   1.515   3.635  18.084  0.0752  0.3078 -0.6564
 3540TIP3    H134815   1.493   3.600  17.998  0.0502  0.5166 -0.7375
 3540TIP3    H234816   1.431   3.642  18.129  0.1341 -0.1754 -0.4713
 3541TIP3   OH234817   5.615   4.504  18.309 -0.4178 -0.0616 -0.1660
 3541TIP3    H134818   5.591   4.574  18.248  0.4745 -0.1790 -0.6597
 3541TIP3    H234819   5.705   4.524  18.334 -0.7737  0.0011  1.1582
 3542TIP3   OH234820   7.354   0.666  19.531  0.1492 -0.0335  0.8207
 3542TIP3    H134821   7.411   0.608  19.481 -0.6141  1.1714 -1.6258
 3542TIP3    H234822   7.305   0.609  19.589 -0.3272 -1.8597 -1.2409
 3543TIP3   OH234823   4.067   4.805  18.592  0.1651  0.4904  0.5239
 3543TIP3    H134824   4.009   4.834  18.521 -1.9255  1.5925  2.5642
 3543TIP3    H234825   4.010   4.757  18.651  1.8450 -0.3415  1.5383
 3544TIP3   OH234826   2.767   3.682  18.235 -0.4714 -0.3164 -0.6189
 3544TIP3    H134827   2.724   3.615  18.181 -0.9078 -1.1187  0.6894
 3544TIP3    H234828   2.813   3.737  18.172 -1.3840 -0.9195 -1.8605
 3545TIP3   OH234829   2.681   4.047  19.965 -0.2318  0.8286  0.4643
 3545TIP3    H134830   2.638   4.000  19.894 -0.7753  1.5167  0.3367
 3545TIP3    H234831   2.715   3.977  20.022  0.5158  0.2794 -0.6373
 3546TIP3   OH234832   7.537   1.379  17.867  0.3524 -0.1652  0.5249
 3546TIP3    H134833   7.444   1.396  17.853  0.5396  0.1394 -0.4380
 3546TIP3    H234834   7.566   1.338  17.786  0.9611 -0.6717  0.9934
 3547TIP3   OH234835   6.908   1.964  17.453 -0.3330 -0.0167  0.0077
 3547TIP3    H134836   6.989   2.003  17.418 -0.2928  0.0660  0.1913
 3547TIP3    H234837   6.917   1.871  17.434  1.1043 -0.4581  2.4800
 3548TIP3   OH234838   0.885   7.271  18.928 -0.0773  0.1528  0.4156
 3548TIP3    H134839   0.833   7.193  18.945 -0.1008  0.2323  0.7313
 3548TIP3    H234840   0.907   7.267  18.835  1.4816 -1.1791  0.8009
 3549TIP3   OH234841   0.485   7.188  19.657  0.1149 -0.5972  0.1670
 3549TIP3    H134842   0.575   7.219  19.660 -0.1745  0.5009 -1.1576
 3549TIP3    H234843   0.461   7.194  19.564 -1.8091  0.6958  0.6773
 3550TIP3   OH234844   3.507   0.081  17.722 -0.3812 -0.2780 -0.1744
 3550TIP3    H134845   3.540   0.171  17.721 -0.5464 -0.2217 -0.9684
 3550TIP3    H234846   3.477   0.065  17.633  1.4436 -1.7984 -0.5977
 3551TIP3   OH234847   5.312   4.876  18.892 -0.0345  0.3686 -0.4656
 3551TIP3    H134848   5.274   4.869  18.804 -0.1186 -0.7585 -0.3576
 3551TIP3    H234849   5.393   4.825  18.887 -1.3082 -1.9786  0.7556
 3552TIP3   OH234850   5.197   3.832  18.484  0.7487 -0.5110  0.5717
 3552TIP3    H134851   5.263   3.895  18.456 -0.1770  0.1072 -0.3481
 3552TIP3    H234852   5.116   3.864  18.445  0.1179 -1.8951  0.6591
 3553TIP3   OH234853   1.146   6.633  19.755 -0.3217 -0.3082 -0.0733
 3553TIP3    H134854   1.054   6.605  19.758 -0.0316 -1.2401  0.3928
 3553TIP3    H234855   1.195   6.552  19.739  0.4284  0.1736 -0.2360
 3554TIP3   OH234856   3.202   1.754  18.422  0.3680  0.3869  0.2129
 3554TIP3    H134857   3.143   1.829  18.435  1.0514  0.6811  1.8637
 3554TIP3    H234858   3.279   1.774  18.475  2.7370  0.7415 -3.0174
 3555TIP3   OH234859   3.152   3.880  19.690 -0.2416 -0.1702  0.1942
 3555TIP3    H134860   3.205   3.902  19.766  1.4690  1.9313 -1.5021
 3555TIP3    H234861   3.064   3.865  19.726  0.8436 -1.0051  2.7348
 3556TIP3   OH234862   5.680   5.361  17.553 -0.4015 -0.6731  0.4940
 3556TIP3    H134863   5.743   5.303  17.510 -0.5591 -1.1070  0.8320
 3556TIP3    H234864   5.733   5.424  17.601 -0.2276 -0.4163 -0.0366
 3557TIP3   OH234865   4.077   6.672  18.064 -0.0707 -0.0160  0.3563
 3557TIP3    H134866   4.036   6.657  18.149 -1.1600  1.9543  0.2594
 3557TIP3    H234867   4.003   6.687  18.005  0.6664 -1.4298 -0.9731
 3558TIP3   OH234868   2.614   3.362  18.142  0.1226 -0.2608 -0.1968
 3558TIP3    H134869   2.690   3.313  18.173  0.4408  0.0766 -0.4441
 3558TIP3    H234870   2.645   3.407  18.064 -0.4043 -0.3277 -0.4489
 3559TIP3   OH234871   1.782   2.845  18.441  0.5744  0.1197  0.2075
 3559TIP3    H134872   1.715   2.800  18.390  0.4848  1.6709 -1.1576
 3559TIP3    H234873   1.846   2.777  18.464  0.7450 -0.6297 -2.2337
 3560TIP3   OH234874   5.445   5.568  17.487  0.0690 -0.0432  0.8137
 3560TIP3    H134875   5.368   5.511  17.479 -0.5961  1.0280 -0.7441
 3560TIP3    H234876   5.520   5.508  17.482 -0.6332 -0.8895  0.2671
 3561TIP3   OH234877   4.316   3.398  18.641 -0.5387  0.4181  0.8284
 3561TIP3    H134878   4.244   3.338  18.621  0.2555 -1.0616  2.2325
 3561TIP3    H234879   4.335   3.384  18.734 -0.7711  3.3717  1.4490
 3562TIP3   OH234880   7.178   0.469  19.022  0.1498  0.0594 -0.2338
 3562TIP3    H134881   7.252   0.501  19.075  0.3510  1.2492 -1.1909
 3562TIP3    H234882   7.201   0.378  19.002  0.5146 -0.1214  0.9333
 3563TIP3   OH234883   4.999   3.406  19.361  0.1571 -0.0824  0.1865
 3563TIP3    H134884   4.954   3.490  19.366  0.4550  0.3806 -2.9733
 3563TIP3    H234885   4.988   3.378  19.270  1.0246 -2.9618  0.8454
 3564TIP3   OH234886   1.873   6.051  19.132 -0.3051 -0.6401 -0.3741
 3564TIP3    H134887   1.857   6.003  19.051  1.3521 -0.8758 -0.6046
 3564TIP3    H234888   1.908   5.986  19.192 -1.5393 -0.4687  0.5628
 3565TIP3   OH234889   3.739   4.685  17.473 -0.2730  0.4046 -0.7249
 3565TIP3    H134890   3.826   4.680  17.433 -0.5507 -0.7787 -1.2163
 3565TIP3    H234891   3.734   4.774  17.507  1.6005  0.1549  0.3831
 3566TIP3   OH234892   2.816   1.888  19.507  0.1240 -0.9003 -0.0245
 3566TIP3    H134893   2.760   1.811  19.515  0.5284 -1.5475 -2.7153
 3566TIP3    H234894   2.858   1.896  19.593 -0.6612 -3.0618  0.6181
 3567TIP3   OH234895   5.285   1.990  17.023 -0.6061 -0.2424  0.5177
 3567TIP3    H134896   5.349   2.044  17.069 -0.2690 -1.6455  1.7425
 3567TIP3    H234897   5.224   1.960  17.091 -2.1013  0.3673 -0.4886
 3568TIP3   OH234898   3.117   5.107  17.319  0.0438  0.6784 -0.2120
 3568TIP3    H134899   3.135   5.200  17.312  0.1080  0.7613  0.8707
 3568TIP3    H234900   3.053   5.089  17.251  1.1109  1.2120 -1.3862
 3569TIP3   OH234901   6.279   2.483  17.762  0.0888  0.3671  0.0356
 3569TIP3    H134902   6.193   2.442  17.751 -0.1620  1.2365 -1.4917
 3569TIP3    H234903   6.263   2.576  17.749  1.4522  0.4094 -1.6380
 3570TIP3   OH234904   4.628   6.395  19.347 -0.3697 -0.4246  0.7207
 3570TIP3    H134905   4.637   6.348  19.430 -2.4895 -0.1254  1.1713
 3570TIP3    H234906   4.645   6.328  19.280  2.5077 -0.4077  1.3295
 3571TIP3   OH234907   2.783   3.267  17.153 -0.2477 -0.8231 -0.3197
 3571TIP3    H134908   2.802   3.355  17.122 -1.8766  0.0748  1.0869
 3571TIP3    H234909   2.857   3.214  17.121  2.1011  1.4948  0.8807
 3572TIP3   OH234910   3.382   1.506  17.347 -0.0619  0.2542 -0.5628
 3572TIP3    H134911   3.430   1.551  17.278  1.1509 -0.8061 -0.4413
 3572TIP3    H234912   3.396   1.413  17.330 -0.3080 -0.0420  0.7261
 3573TIP3   OH234913   4.371   4.906  17.038  0.1063  0.3372  0.0411
 3573TIP3    H134914   4.404   4.993  17.017  0.9732  0.2204  0.8603
 3573TIP3    H234915   4.278   4.909  17.013  0.4486  1.0279 -1.2474
 3574TIP3   OH234916   1.128   4.426  18.730 -1.0006  0.3207 -0.2163
 3574TIP3    H134917   1.093   4.339  18.744 -1.3804  0.7522  1.8337
 3574TIP3    H234918   1.174   4.447  18.811  0.9039  1.2229 -1.4388
 3575TIP3   OH234919   4.232   5.114  19.984 -0.5312 -0.2514 -0.3401
 3575TIP3    H134920   4.284   5.159  20.051 -0.8693  1.2093 -1.0107
 3575TIP3    H234921   4.211   5.183  19.920 -1.7714 -1.1987 -0.9957
 3576TIP3   OH234922   3.578   2.844  19.189 -0.2704  0.0444  0.0556
 3576TIP3    H134923   3.533   2.897  19.123  0.3318 -0.5935 -0.9039
 3576TIP3    H234924   3.516   2.773  19.209 -0.6185  0.4690  0.4821
 3577TIP3   OH234925   2.489   0.115  19.548 -0.2307 -0.4906  0.4841
 3577TIP3    H134926   2.409   0.165  19.532 -0.9985 -1.9376 -0.3905
 3577TIP3    H234927   2.478   0.034  19.498  2.5975  0.0152 -1.2005
 3578TIP3   OH234928   4.912   3.182  18.142  0.0422  0.1765  0.0310
 3578TIP3    H134929   5.004   3.159  18.138 -0.1328 -0.3280 -1.5218
 3578TIP3    H234930   4.911   3.271  18.178  1.1819  0.4730 -0.6328
 3579TIP3   OH234931   7.115   1.361  18.203  0.0383 -0.4800  0.0838
 3579TIP3    H134932   7.194   1.415  18.199 -0.4357  0.1687 -0.8979
 3579TIP3    H234933   7.129   1.305  18.279  0.9013  0.4684  0.6638
 3580TIP3   OH234934   0.594   1.884  18.264  0.1322 -0.0565  0.1521
 3580TIP3    H134935   0.544   1.924  18.192  0.1860  0.8633  0.6055
 3580TIP3    H234936   0.557   1.797  18.274  0.8653 -0.6366 -1.7324
 3581TIP3   OH234937   0.914   1.553  17.625  0.1427 -0.2230  0.0174
 3581TIP3    H134938   0.882   1.533  17.537  0.4367 -2.5053  0.3690
 3581TIP3    H234939   1.004   1.584  17.611  0.1846 -0.5670 -0.4902
 3582TIP3   OH234940   7.337   0.946  19.479 -0.1360 -0.1146 -0.2507
 3582TIP3    H134941   7.356   0.853  19.473 -0.4330 -0.2146  0.3841
 3582TIP3    H234942   7.355   0.969  19.570  1.2934  0.7496 -0.7055
 3583TIP3   OH234943   3.406   3.226  18.550 -0.3658 -0.1835  0.9934
 3583TIP3    H134944   3.352   3.180  18.615  0.5817  1.8003  3.3438
 3583TIP3    H234945   3.462   3.158  18.513  0.2712 -1.1738  3.5576
 3584TIP3   OH234946   1.780   1.944  19.499  0.5307 -0.5191 -0.6304
 3584TIP3    H134947   1.826   1.895  19.430  0.0389 -1.8997 -0.0153
 3584TIP3    H234948   1.821   1.914  19.580  0.1163 -0.0002 -0.2269
 3585TIP3   OH234949   4.539   0.282  17.256  0.4001  0.7190 -0.3232
 3585TIP3    H134950   4.469   0.347  17.252  0.1857  0.6430  1.5053
 3585TIP3    H234951   4.494   0.199  17.270  0.7477  0.3270 -1.4278
 3586TIP3   OH234952   6.250   3.585  17.480  0.0429 -0.3475 -0.0999
 3586TIP3    H134953   6.178   3.594  17.543 -0.9226 -0.2288 -1.1932
 3586TIP3    H234954   6.233   3.651  17.414  0.7089 -0.8693 -0.8109
 3587TIP3   OH234955   5.894   4.858  19.567  0.4212 -0.1889  0.1480
 3587TIP3    H134956   5.948   4.786  19.600 -1.0572 -2.0108 -1.1771
 3587TIP3    H234957   5.868   4.830  19.479 -0.1077  2.0520 -0.4668
 3588TIP3   OH234958   2.235   1.776  19.194  0.1603  0.2581 -0.3200
 3588TIP3    H134959   2.321   1.804  19.161  0.9657 -1.6332 -0.0004
 3588TIP3    H234960   2.215   1.697  19.144 -1.2123  0.4376 -0.0928
 3589TIP3   OH234961   6.325   6.550  18.667  0.0234 -0.1890  0.4127
 3589TIP3    H134962   6.307   6.632  18.713 -1.6584 -0.5266  0.4340
 3589TIP3    H234963   6.241   6.527  18.626  1.0781 -0.6620 -1.6128
 3590TIP3   OH234964   2.224   0.498  19.239 -0.0424  0.4843 -0.1296
 3590TIP3    H134965   2.155   0.560  19.262  0.7771  0.9031  1.3205
 3590TIP3    H234966   2.300   0.554  19.221  0.4008 -0.0522  0.0798
 3591TIP3   OH234967   6.795   3.242  18.995  0.6849 -0.1720  0.1543
 3591TIP3    H134968   6.723   3.276  19.048 -0.1230 -0.2763 -0.8489
 3591TIP3    H234969   6.756   3.226  18.909  2.2133  1.0714 -0.8186
 3592TIP3   OH234970   4.426   2.718  18.376  0.5507 -0.2152  0.6163
 3592TIP3    H134971   4.404   2.639  18.427 -0.4445  1.0033  2.1775
 3592TIP3    H234972   4.396   2.790  18.431  0.2813  1.2254 -1.3353
 3593TIP3   OH234973   4.782   6.669  17.189 -0.3092 -0.5302 -0.0605
 3593TIP3    H134974   4.791   6.666  17.094 -0.3259 -2.6031 -0.0601
 3593TIP3    H234975   4.687   6.673  17.205 -0.2706  1.3442 -0.0879
 3594TIP3   OH234976   0.017   1.770  19.496 -0.2573  0.1135  0.3881
 3594TIP3    H134977   0.093   1.829  19.497 -1.1448  1.3999 -1.4527
 3594TIP3    H234978  -0.050   1.818  19.545 -0.1955 -0.5674  1.1460
 3595TIP3   OH234979   2.440   1.606  18.095 -0.9979 -0.1878  0.2196
 3595TIP3    H134980   2.508   1.588  18.160 -1.1582  1.0233  0.7445
 3595TIP3    H234981   2.473   1.568  18.014 -0.1055 -0.3930  0.6709
 3596TIP3   OH234982   6.403   2.655  17.523  0.1212  0.2053 -0.1718
 3596TIP3    H134983   6.385   2.654  17.429  0.3189 -0.1636 -0.2121
 3596TIP3    H234984   6.481   2.600  17.532 -0.1201 -0.0732  0.2503
 3597TIP3   OH234985   1.171   4.993  17.729 -0.1074  0.0543 -0.3532
 3597TIP3    H134986   1.258   5.013  17.763  0.1022  0.0698 -0.8840
 3597TIP3    H234987   1.185   4.982  17.635 -0.2812 -2.0548 -0.1889
 3598TIP3   OH234988   4.220   0.904  19.148  0.9916  0.0526  0.0557
 3598TIP3    H134989   4.146   0.937  19.097  0.0740  0.0245  1.3235
 3598TIP3    H234990   4.204   0.936  19.237  0.0675 -3.5973  1.3770
 3599TIP3   OH234991   7.598   5.716  17.125 -0.4624  0.3791 -0.1315
 3599TIP3    H134992   7.655   5.793  17.121 -0.5704  0.4837  0.2874
 3599TIP3    H234993   7.652   5.649  17.168 -1.4686  1.2449  2.7239
 3600TIP3   OH234994   3.060   4.630  18.814  0.0708 -0.7269 -0.2150
 3600TIP3    H134995   3.045   4.679  18.733 -2.9355 -0.6068  0.3373
 3600TIP3    H234996   2.982   4.645  18.867  0.5417 -3.3653  1.4006
 3601TIP3   OH234997   4.117   1.321  19.384  0.0519 -0.4347  0.3818
 3601TIP3    H134998   4.107   1.314  19.479 -0.8498  0.3196  0.3589
 3601TIP3    H234999   4.153   1.408  19.369  3.4994 -1.7592  0.1972
 3602TIP3   OH235000   2.962   4.785  17.114  0.2739 -0.2712 -0.2700
 3602TIP3    H135001   3.007   4.710  17.074 -0.3092 -1.4482  1.1659
 3602TIP3    H235002   2.933   4.752  17.199 -0.7694  1.3478  0.0389
 3603TIP3   OH235003   3.060   3.572  19.633 -0.2617 -0.1936  0.0462
 3603TIP3    H135004   3.112   3.630  19.688  1.0958 -1.4002  0.0863
 3603TIP3    H235005   3.123   3.511  19.595 -1.2104  0.2887 -2.4907
 3604TIP3   OH235006   2.232   4.925  17.454  0.1447 -0.0429 -0.1705
 3604TIP3    H135007   2.237   4.959  17.543  0.8691 -0.4759 -0.0365
 3604TIP3    H235008   2.163   4.859  17.457 -2.2706  2.2424 -0.7442
 3605TIP3   OH235009   6.839   2.765  18.985 -0.1229 -0.8213  0.0363
 3605TIP3    H135010   6.803   2.789  18.900  0.7343 -1.8330 -0.6394
 3605TIP3    H235011   6.813   2.674  18.997 -1.1980 -0.3677  1.3987
 3606TIP3   OH235012   4.785   4.178  17.495  0.3460 -0.3687 -0.3654
 3606TIP3    H135013   4.874   4.209  17.513  0.3029  0.0675 -0.8769
 3606TIP3    H235014   4.754   4.233  17.423 -0.6767  0.1168  0.4087
 3607TIP3   OH235015   0.868   4.181  19.725  0.0267 -0.0881  0.4143
 3607TIP3    H135016   0.910   4.163  19.810 -1.8647 -0.4800  1.3248
 3607TIP3    H235017   0.825   4.265  19.737  1.0669  0.6328 -0.7317
 3608TIP3   OH235018   3.379   0.021  17.994  0.6418 -0.6984 -0.4195
 3608TIP3    H135019   3.394   0.001  17.901  0.8833 -1.4896 -0.2104
 3608TIP3    H235020   3.448  -0.026  18.040 -0.4075 -1.5705  0.2924
 3609TIP3   OH235021   2.833   4.548  20.003 -0.2157 -0.3907  0.3483
 3609TIP3    H135022   2.869   4.627  19.965 -1.1753 -0.2013 -0.1919
 3609TIP3    H235023   2.849   4.557  20.097  0.6164 -0.0595  0.1815
 3610TIP3   OH235024   0.494   0.228  19.150 -0.1394  0.0505 -0.5768
 3610TIP3    H135025   0.528   0.145  19.184 -1.5490 -1.1624 -1.9788
 3610TIP3    H235026   0.562   0.258  19.089  0.2173 -0.2295 -0.3263
 3611TIP3   OH235027   7.330   4.310  18.238  0.3489 -0.2880 -0.5223
 3611TIP3    H135028   7.385   4.275  18.168  0.8281  1.5641 -1.1280
 3611TIP3    H235029   7.345   4.251  18.312  0.2038 -1.9983 -1.8079
 3612TIP3   OH235030   1.275   3.842  18.875 -0.0592 -0.0831 -0.6143
 3612TIP3    H135031   1.358   3.794  18.881 -2.1049 -4.0741 -0.9850
 3612TIP3    H235032   1.260   3.853  18.781  0.1247  0.9114 -0.5440
 3613TIP3   OH235033   3.315   7.275  19.423  0.3227  0.2424  0.1499
 3613TIP3    H135034   3.264   7.352  19.449 -0.4661 -1.0967  3.0047
 3613TIP3    H235035   3.262   7.200  19.452  0.7969 -1.4890 -2.9924
 3614TIP3   OH235036   4.502   4.134  17.824  0.4952 -1.2769 -0.0637
 3614TIP3    H135037   4.594   4.110  17.818  0.9001 -0.0812  0.7850
 3614TIP3    H235038   4.503   4.228  17.846 -0.9248 -1.1789 -0.2780
 3615TIP3   OH235039   5.308   3.342  19.686 -0.0602  0.6017  0.1850
 3615TIP3    H135040   5.394   3.366  19.720  1.3806 -1.5056 -1.7058
 3615TIP3    H235041   5.301   3.389  19.603 -0.8629  0.9712  0.4561
 3616TIP3   OH235042   0.060   3.682  18.548 -0.0625 -0.8157 -0.3329
 3616TIP3    H135043   0.002   3.705  18.621 -1.8561  0.0971 -1.9377
 3616TIP3    H235044   0.149   3.696  18.583 -0.8855  1.7131  1.0432
 3617TIP3   OH235045   6.182   0.181  17.236 -0.1885 -0.0858  0.6254
 3617TIP3    H135046   6.090   0.169  17.259 -0.3303  1.1331  0.7422
 3617TIP3    H235047   6.184   0.264  17.189  1.0576  0.7149  1.9921
 3618TIP3   OH235048   7.239   4.622  18.421 -0.2089  0.6663 -0.0043
 3618TIP3    H135049   7.278   4.625  18.334  0.6036 -1.8621  0.1815
 3618TIP3    H235050   7.296   4.677  18.475  0.2881  0.8715 -0.7237
 3619TIP3   OH235051   3.670   6.575  18.517 -0.2746 -0.6358  0.3836
 3619TIP3    H135052   3.712   6.660  18.530  0.1363 -0.6158 -0.9460
 3619TIP3    H235053   3.633   6.553  18.603  0.0696  0.6321  0.8748
 3620TIP3   OH235054   2.306   2.457  17.832 -0.1726 -0.7984 -0.5389
 3620TIP3    H135055   2.276   2.371  17.801  0.3777 -0.8791 -0.8534
 3620TIP3    H235056   2.281   2.460  17.924 -2.2982 -0.3645 -1.0602
 3621TIP3   OH235057   7.460   5.839  18.012 -0.6008 -0.2997 -0.9473
 3621TIP3    H135058   7.432   5.750  18.035 -0.0683 -0.5226 -1.1452
 3621TIP3    H235059   7.422   5.855  17.925 -1.4651  0.0219 -0.5234
 3622TIP3   OH235060   4.673   5.522  17.856 -0.1352  0.3606  0.3645
 3622TIP3    H135061   4.680   5.567  17.940 -2.5582  0.7633  0.4463
 3622TIP3    H235062   4.592   5.471  17.863  0.4110 -0.7853 -1.1896
 3623TIP3   OH235063   1.365   0.845  18.770  0.5125 -0.1902 -0.1117
 3623TIP3    H135064   1.440   0.900  18.789  1.0762 -0.9501 -0.1015
 3623TIP3    H235065   1.402   0.764  18.736 -0.2332 -1.1022  1.1583
 3624TIP3   OH235066   6.217   2.791  18.326  0.6785 -0.3189 -0.2837
 3624TIP3    H135067   6.241   2.767  18.236  0.6258 -2.1756  0.1411
 3624TIP3    H235068   6.135   2.744  18.342 -0.6196  1.8946 -0.0299
 3625TIP3   OH235069   0.081   6.351  18.412 -0.4921 -0.5319 -0.1960
 3625TIP3    H135070   0.093   6.444  18.396  0.8515 -1.1296 -3.4066
 3625TIP3    H235071   0.120   6.336  18.498  1.0801  1.5427 -0.4689
 3626TIP3   OH235072   2.986   2.087  18.100  0.0567  0.1302 -0.7661
 3626TIP3    H135073   3.043   2.124  18.033 -1.5602  0.8781 -1.8155
 3626TIP3    H235074   2.951   2.164  18.146  0.6131 -0.3514  0.4678
 3627TIP3   OH235075   1.653   6.149  18.695 -0.6299 -0.1007 -0.3567
 3627TIP3    H135076   1.615   6.084  18.636 -0.7530 -0.5913  0.2574
 3627TIP3    H235077   1.583   6.170  18.756 -0.0220 -0.8157  0.6244
 3628TIP3   OH235078   0.713   0.416  19.376  0.5501 -0.6056 -0.4139
 3628TIP3    H135079   0.793   0.370  19.400  0.3819 -1.0539 -0.6961
 3628TIP3    H235080   0.713   0.417  19.280  1.0382  0.8504 -0.4351
 3629TIP3   OH235081   2.173   2.152  18.259  0.3064 -0.5162  0.4541
 3629TIP3    H135082   2.082   2.122  18.263 -0.2683  0.7809 -1.3736
 3629TIP3    H235083   2.224   2.081  18.296 -1.4356 -1.4143  1.2025
 3630TIP3   OH235084   6.891   6.389  19.243 -0.5691  0.2016 -0.2381
 3630TIP3    H135085   6.947   6.337  19.185  0.1411 -1.2149  1.6212
 3630TIP3    H235086   6.830   6.326  19.281 -1.0647  1.0984  0.4987
 3631TIP3   OH235087   3.036   7.082  17.383 -0.3438 -0.2800  0.5299
 3631TIP3    H135088   3.027   7.140  17.458  0.9340  1.0245 -0.2664
 3631TIP3    H235089   3.121   7.039  17.396 -0.8881 -1.3553  0.6712
 3632TIP3   OH235090   4.746   6.182  19.206  0.3607 -0.7167 -0.0845
 3632TIP3    H135091   4.824   6.126  19.210  1.8038  1.2527  0.7034
 3632TIP3    H235092   4.766   6.246  19.137 -1.3232 -1.2061 -1.0859
 3633TIP3   OH235093   7.628   1.338  18.878 -0.3387 -0.4497  0.0215
 3633TIP3    H135094   7.610   1.334  18.784 -0.6527  0.2934  0.0395
 3633TIP3    H235095   7.588   1.259  18.914 -1.0298 -0.2806 -0.3499
 3634TIP3   OH235096   1.779   5.759  19.313  0.1033 -0.8793 -0.1626
 3634TIP3    H135097   1.852   5.747  19.251 -1.1041 -0.5448 -1.7254
 3634TIP3    H235098   1.818   5.741  19.399  2.0616 -0.5453 -0.9115
 3635TIP3   OH235099   0.529   6.187  18.164  0.5387  0.3488 -0.2807
 3635TIP3    H135100   0.527   6.093  18.182  2.2581  0.4336  0.6261
 3635TIP3    H235101   0.506   6.195  18.071  0.7191 -1.0032 -0.4567
 3636TIP3   OH235102   1.650   2.998  19.338  0.2522 -0.5718  0.1166
 3636TIP3    H135103   1.649   3.034  19.249  0.9715 -0.1855  0.2590
 3636TIP3    H235104   1.647   3.074  19.395 -1.7038 -0.8527  0.4620
 3637TIP3   OH235105   1.764   5.365  19.934 -0.4784 -0.1117  0.1524
 3637TIP3    H135106   1.711   5.346  19.857  0.6321 -0.9287 -0.4425
 3637TIP3    H235107   1.715   5.325  20.007 -1.4875  0.5930 -0.1106
 3638TIP3   OH235108   5.665   3.122  19.125 -0.0872 -1.0088 -0.0590
 3638TIP3    H135109   5.731   3.057  19.150  0.3587 -0.7112 -0.4353
 3638TIP3    H235110   5.581   3.079  19.141  0.1790 -2.4289 -2.1544
 3639TIP3   OH235111   5.581   5.138  17.758 -0.0313 -0.4810  0.3796
 3639TIP3    H135112   5.543   5.051  17.745  1.6186 -1.3657  1.1718
 3639TIP3    H235113   5.637   5.152  17.682  0.1125 -0.3385  0.5129
 3640TIP3   OH235114   2.594   7.350  19.559  0.8072 -0.0440 -0.4298
 3640TIP3    H135115   2.631   7.263  19.576 -0.8781 -0.5140  1.0976
 3640TIP3    H235116   2.566   7.346  19.467  1.4187 -0.8475 -0.5947
 3641TIP3   OH235117   3.858   0.417  19.305  0.3425  0.0183 -0.7083
 3641TIP3    H135118   3.803   0.485  19.266  1.0026  0.1453 -1.4363
 3641TIP3    H235119   3.849   0.431  19.400  0.5805  1.2340 -0.8382
 3642TIP3   OH235120   3.386   1.971  19.099 -0.1271 -0.6515 -0.6457
 3642TIP3    H135121   3.351   2.017  19.175 -1.8869 -2.4622 -0.2684
 3642TIP3    H235122   3.477   1.953  19.121 -0.5382 -0.9364  0.9493
 3643TIP3   OH235123   1.101   6.201  17.611 -0.2575  0.1999  0.1723
 3643TIP3    H135124   1.029   6.191  17.548  0.0758  0.5835 -0.2769
 3643TIP3    H235125   1.129   6.292  17.600  1.9176 -0.5877 -1.4346
 3644TIP3   OH235126   6.067   6.124  19.268  0.3362  0.8880  0.7098
 3644TIP3    H135127   6.102   6.046  19.226 -1.9954 -0.4003  0.9760
 3644TIP3    H235128   6.059   6.188  19.196 -0.9577 -0.3238 -0.2734
 3645TIP3   OH235129   0.808   6.769  17.450  0.5423 -0.2871  0.9270
 3645TIP3    H135130   0.736   6.734  17.398 -0.3465  1.6379  0.7426
 3645TIP3    H235131   0.870   6.803  17.386 -0.2053  1.4147  1.0305
 3646TIP3   OH235132   1.210   4.353  17.586  0.1683 -0.3887  0.2011
 3646TIP3    H135133   1.234   4.430  17.534 -0.0942 -0.3044  0.2075
 3646TIP3    H235134   1.124   4.328  17.555 -0.1291 -0.1500  0.8074
 3647TIP3   OH235135   6.208   5.970  17.866 -0.2167  0.3517 -0.1841
 3647TIP3    H135136   6.261   5.894  17.890 -2.7408 -1.4212  0.1867
 3647TIP3    H235137   6.203   5.967  17.770 -1.8016 -1.1135 -0.0954
 3648TIP3   OH235138   1.448   5.753  18.352 -0.5328  0.5794 -0.2120
 3648TIP3    H135139   1.434   5.688  18.284 -0.0514 -1.7516  1.7647
 3648TIP3    H235140   1.542   5.773  18.347 -0.1847 -0.7121  0.6289
 3649TIP3   OH235141   2.748   5.669  19.096  0.1701  0.5627 -0.1441
 3649TIP3    H135142   2.832   5.699  19.062  0.0274  0.1437 -0.9004
 3649TIP3    H235143   2.683   5.708  19.038  0.0006 -1.5504 -1.5058
 3650TIP3   OH235144   0.668   7.063  18.534 -0.2474 -0.1369  0.0673
 3650TIP3    H135145   0.716   6.991  18.493 -0.1077  0.1846 -0.3382
 3650TIP3    H235146   0.700   7.142  18.490  0.8010  0.3498  1.5995
 3651TIP3   OH235147   3.525   1.268  19.314  0.2698  0.1896 -0.4012
 3651TIP3    H135148   3.474   1.212  19.256  1.0621  1.7231 -2.7808
 3651TIP3    H235149   3.497   1.357  19.292 -2.1585  0.9182  4.3846
 3652TIP3   OH235150   5.952   4.975  18.333  0.2521  0.4286 -0.0867
 3652TIP3    H135151   5.886   5.010  18.275 -0.2918 -0.3435  0.0447
 3652TIP3    H235152   5.995   5.052  18.371 -0.4621  0.9325 -0.2866
 3653TIP3   OH235153   3.755   5.991  18.460 -0.0902  0.2764 -0.1460
 3653TIP3    H135154   3.747   6.005  18.365 -0.5122  2.0331  0.1165
 3653TIP3    H235155   3.679   6.036  18.497  0.1366 -0.2958  1.0594
 3654TIP3   OH235156   2.037   1.207  18.872 -0.1253 -0.1439 -0.5283
 3654TIP3    H135157   1.995   1.148  18.934  2.0840 -0.4408  0.7855
 3654TIP3    H235158   2.016   1.295  18.903  0.1616 -0.2913  0.1058
 3655TIP3   OH235159   6.991   5.812  18.924  0.2680  0.3210 -0.2220
 3655TIP3    H135160   7.011   5.888  18.869  0.8417  1.1990  1.1327
 3655TIP3    H235161   6.984   5.739  18.863  0.3777  1.3360 -1.4966
 3656TIP3   OH235162   0.232   5.689  19.549 -0.1964 -0.7562  0.0873
 3656TIP3    H135163   0.309   5.688  19.605  0.5756  1.6405 -0.7682
 3656TIP3    H235164   0.220   5.598  19.521  0.6469 -1.6287  2.3892
 3657TIP3   OH235165   7.469   7.010  17.323 -0.1159  0.0021 -0.1705
 3657TIP3    H135166   7.543   6.949  17.318 -2.1733 -2.7012  0.1070
 3657TIP3    H235167   7.446   7.026  17.232 -0.0770 -0.2960 -0.2355
 3658TIP3   OH235168   0.597   2.449  18.997 -0.3732  0.1234  0.4360
 3658TIP3    H135169   0.619   2.371  19.048  0.2318  0.6008  0.9276
 3658TIP3    H235170   0.672   2.507  19.010 -1.1158  1.0572  0.6249
 3659TIP3   OH235171   1.668   0.677  18.293  0.1742  0.3073  0.1159
 3659TIP3    H135172   1.693   0.644  18.207  1.0965  0.4991  0.3039
 3659TIP3    H235173   1.649   0.599  18.344 -0.6877  0.2004 -0.3431
 3660TIP3   OH235174   0.316   3.129  18.549  0.4457  0.4439 -0.3288
 3660TIP3    H135175   0.375   3.124  18.474 -0.0544 -0.1670 -0.6928
 3660TIP3    H235176   0.265   3.208  18.534  1.3160  1.1084  0.1083
 3661TIP3   OH235177   2.567   2.125  18.511 -0.1836 -0.4415 -0.3040
 3661TIP3    H135178   2.591   2.082  18.593 -1.4838  0.8719  0.8319
 3661TIP3    H235179   2.645   2.174  18.485  0.4072 -1.2854 -0.1375
 3662TIP3   OH235180   7.407   1.675  17.675  0.2034  0.4309 -0.0376
 3662TIP3    H135181   7.437   1.608  17.613 -0.4434 -0.2577  0.3802
 3662TIP3    H235182   7.459   1.752  17.653  2.5208 -0.7827  0.8747
 3663TIP3   OH235183   6.438   4.595  17.492 -0.1586 -0.2703  0.0546
 3663TIP3    H135184   6.528   4.597  17.461 -0.0796 -1.8142  0.1054
 3663TIP3    H235185   6.395   4.528  17.438 -0.5618 -1.4934  1.7969
 3664TIP3   OH235186   3.661   2.558  17.881 -0.1281  0.2590 -0.1772
 3664TIP3    H135187   3.700   2.603  17.806  2.9652 -2.6544 -0.5875
 3664TIP3    H235188   3.723   2.573  17.952 -2.1280  1.5056  1.4105
 3665TIP3   OH235189   6.169   6.824  18.249  0.5145  0.0457 -0.0227
 3665TIP3    H135190   6.231   6.753  18.229  0.9881 -0.0164  1.5633
 3665TIP3    H235191   6.150   6.813  18.342 -0.7362  0.9865 -0.1549
 3666TIP3   OH235192   0.225   1.301  18.504 -0.0710 -0.1118  0.9496
 3666TIP3    H135193   0.179   1.227  18.542 -1.4128  0.1996 -0.0114
 3666TIP3    H235194   0.240   1.276  18.413  0.2381  0.4427  0.8409
 3667TIP3   OH235195   0.646   0.967  19.353 -0.2330  0.2760 -0.0437
 3667TIP3    H135196   0.692   0.884  19.342  0.7657  0.7721  0.2779
 3667TIP3    H235197   0.631   0.974  19.448 -1.4915 -0.1429 -0.1956
 3668TIP3   OH235198   1.755   3.562  18.185  0.2717 -0.7103  0.4294
 3668TIP3    H135199   1.768   3.612  18.265  2.6974  0.8811 -0.8444
 3668TIP3    H235200   1.677   3.601  18.145  1.8696  1.9508 -0.3320
 3669TIP3   OH235201   5.234   0.025  18.271  0.3467 -0.2183  0.1052
 3669TIP3    H135202   5.197   0.038  18.359  0.5179 -0.3979  0.2017
 3669TIP3    H235203   5.313  -0.027  18.286  0.4601 -0.1142 -0.1408
 3670TIP3   OH235204   1.333   7.422  17.717 -0.1939 -0.0926  0.2885
 3670TIP3    H135205   1.246   7.395  17.686 -0.3414  0.3145  0.3515
 3670TIP3    H235206   1.393   7.362  17.672 -0.3203  1.0744 -1.5320
 3671TIP3   OH235207   5.529   6.850  17.825 -0.0932 -0.8914  0.3529
 3671TIP3    H135208   5.604   6.851  17.765  0.4683  1.5647  0.9573
 3671TIP3    H235209   5.456   6.883  17.772 -0.0795 -0.6725  0.4683
 3672TIP3   OH235210   2.350   6.618  19.676 -0.8437 -0.3153 -0.1112
 3672TIP3    H135211   2.426   6.633  19.732 -0.6078  0.0634 -0.5268
 3672TIP3    H235212   2.356   6.685  19.608 -0.6886 -1.2464 -1.0534
 3673TIP3   OH235213   2.781   2.269  19.780 -0.3723  0.0234 -0.1465
 3673TIP3    H135214   2.698   2.287  19.735 -0.5942 -0.0406  0.2306
 3673TIP3    H235215   2.755   2.254  19.871  0.2442  1.8301  0.3640
 3674TIP3   OH235216   2.532   4.613  18.170  0.0125  1.1397  0.5757
 3674TIP3    H135217   2.611   4.560  18.178 -0.1497  0.8248  0.1720
 3674TIP3    H235218   2.463   4.549  18.148 -0.3284  1.4229  0.8052
 3675TIP3   OH235219   1.595   4.528  18.509 -0.0941  0.7940 -0.2107
 3675TIP3    H135220   1.667   4.564  18.456 -0.9281 -0.1859 -2.1333
 3675TIP3    H235221   1.637   4.462  18.563  0.4931  0.2587 -1.2760
 3676TIP3   OH235222   7.098   0.493  19.678 -0.2078  0.0587  0.2756
 3676TIP3    H135223   7.161   0.426  19.704 -1.3295 -0.0896  2.8826
 3676TIP3    H235224   7.037   0.446  19.620  0.3422 -0.5541  0.1782
 3677TIP3   OH235225   1.719   2.242  18.872  0.4351 -0.3901 -0.0539
 3677TIP3    H135226   1.663   2.187  18.816  1.8016 -0.7208 -1.1552
 3677TIP3    H235227   1.695   2.331  18.849 -1.6665 -0.4470  1.6033
 3678TIP3   OH235228   5.281   0.608  18.370 -0.3065 -0.1463  0.1024
 3678TIP3    H135229   5.281   0.532  18.312 -0.5006 -0.1349  0.0869
 3678TIP3    H235230   5.206   0.595  18.427  0.1951 -0.4206  0.7030
 3679TIP3   OH235231   3.085   4.913  19.595  0.2728  0.1361  0.1734
 3679TIP3    H135232   3.090   4.976  19.524 -0.2576  0.6926  0.6222
 3679TIP3    H235233   3.033   4.956  19.662 -0.0868 -0.7686  0.4967
 3680TIP3   OH235234   1.667   1.133  19.243  0.1589 -0.5059  0.0262
 3680TIP3    H135235   1.615   1.087  19.309  0.7254  1.6904  2.1202
 3680TIP3    H235236   1.627   1.220  19.237  0.3929 -0.4887 -2.2869
 3681TIP3   OH235237   6.876   6.338  18.412  0.4580  0.2391 -0.4878
 3681TIP3    H135238   6.948   6.349  18.475  0.2045 -0.3925 -0.0841
 3681TIP3    H235239   6.801   6.381  18.454  0.7305  1.4316 -1.1723
 3682TIP3   OH235240   4.924   6.662  17.851 -0.3309 -0.5647  0.0094
 3682TIP3    H135241   4.988   6.597  17.881  1.1728  1.0536  0.4563
 3682TIP3    H235242   4.941   6.672  17.758 -1.2472 -1.5013 -0.2809
 3683TIP3   OH235243   5.139   1.223  18.169 -0.2325 -0.6802 -0.5474
 3683TIP3    H135244   5.194   1.145  18.166 -0.8005 -1.1500  0.5393
 3683TIP3    H235245   5.166   1.275  18.094  2.4401 -0.3785  0.5204
 3684TIP3   OH235246   3.533   5.855  18.230 -0.5334  0.2431  0.1906
 3684TIP3    H135247   3.547   5.762  18.217 -2.0868  0.1469 -1.1798
 3684TIP3    H235248   3.494   5.862  18.317 -1.6934 -0.5638 -0.2363
 3685TIP3   OH235249   6.548   4.318  17.633 -0.1877  0.4001 -0.0777
 3685TIP3    H135250   6.473   4.300  17.576 -0.1121  1.0500 -0.3958
 3685TIP3    H235251   6.624   4.294  17.581 -0.1520  0.2301  0.0525
 3686TIP3   OH235252   0.400   4.286  17.653 -0.4275 -0.5348  0.0735
 3686TIP3    H135253   0.368   4.201  17.681 -0.3162 -0.8877 -0.8256
 3686TIP3    H235254   0.481   4.299  17.702  0.7175 -1.9426 -1.3574
 3687TIP3   OH235255   1.607   6.554  18.891 -0.1745 -0.1224 -0.2891
 3687TIP3    H135256   1.577   6.639  18.858  0.9976  1.0400  1.4662
 3687TIP3    H235257   1.640   6.509  18.813 -0.0888  1.3637 -1.1652
 3688TIP3   OH235258   7.175   5.342  17.849  0.2565 -0.5482 -0.6350
 3688TIP3    H135259   7.268   5.360  17.862 -0.0800  0.0255  1.4567
 3688TIP3    H235260   7.161   5.258  17.891 -0.4765  0.2466  0.8092
 3689TIP3   OH235261   5.793   3.596  19.696  0.3429  0.2120  0.5597
 3689TIP3    H135262   5.860   3.589  19.628 -0.0727 -4.0272  0.3095
 3689TIP3    H235263   5.843   3.609  19.777  1.3840 -1.1204  0.1687
 3690TIP3   OH235264   5.099   3.041  19.324  0.0657 -0.0971  0.0346
 3690TIP3    H135265   5.173   3.048  19.384  0.6371  1.4202 -0.7714
 3690TIP3    H235266   5.121   3.102  19.253 -2.1478  0.7274 -0.0191
 3691TIP3   OH235267   0.114   4.864  17.188  0.3404  0.1306  0.3699
 3691TIP3    H135268   0.169   4.804  17.137 -0.6799 -1.4575  1.0961
 3691TIP3    H235269   0.045   4.809  17.224 -1.9900  2.1119 -0.8020
 3692TIP3   OH235270   1.536   5.883  19.430 -0.1248  0.2637  0.4649
 3692TIP3    H135271   1.605   5.836  19.383  0.4337  0.5290  0.9921
 3692TIP3    H235272   1.583   5.930  19.499 -0.7071  1.2537  0.2183
 3693TIP3   OH235273   4.329   1.235  18.176 -0.2722 -0.1485  0.0278
 3693TIP3    H135274   4.255   1.245  18.236 -0.4219  2.0081 -0.4318
 3693TIP3    H235275   4.369   1.152  18.201 -1.4112 -0.1918  1.8878
 3694TIP3   OH235276   2.216   6.327  17.101 -0.1350  0.0486 -0.1206
 3694TIP3    H135277   2.183   6.239  17.083  1.5098 -0.7129  0.3827
 3694TIP3    H235278   2.141   6.373  17.138 -0.1327 -2.3655  3.4308
 3695TIP3   OH235279   7.472   6.356  19.417 -0.2061 -0.0665 -0.0035
 3695TIP3    H135280   7.462   6.399  19.503 -2.0817 -1.0548  0.3181
 3695TIP3    H235281   7.430   6.271  19.428 -1.1618  0.0827 -2.1259
 3696TIP3   OH235282   2.420   5.627  18.704  0.4483 -0.3669  0.1587
 3696TIP3    H135283   2.407   5.721  18.713 -0.5994 -0.4187 -0.6017
 3696TIP3    H235284   2.417   5.611  18.610  0.8009 -1.1389  0.2665
 3697TIP3   OH235285   6.271   1.481  18.248  0.4319 -0.2927  0.1550
 3697TIP3    H135286   6.337   1.542  18.214 -2.5960  3.1009 -0.2109
 3697TIP3    H235287   6.244   1.519  18.331 -1.8484 -0.9016 -0.2570
 3698TIP3   OH235288   0.796   5.174  18.839 -0.1645  0.4387 -0.0366
 3698TIP3    H135289   0.740   5.232  18.788 -1.3529  0.4904  1.2843
 3698TIP3    H235290   0.815   5.101  18.780 -1.4750  0.5095 -0.5634
 3699TIP3   OH235291   1.699   7.406  17.629  0.1320  0.1430  0.1411
 3699TIP3    H135292   1.789   7.430  17.608  0.9054 -1.1049  1.7603
 3699TIP3    H235293   1.704   7.314  17.655 -1.6569 -0.0176  0.0725
 3700TIP3   OH235294   5.245   3.305  17.762  0.3173 -0.6314 -0.0074
 3700TIP3    H135295   5.201   3.282  17.844 -0.7530  0.6082 -0.2000
 3700TIP3    H235296   5.200   3.253  17.695 -1.8962  1.5856 -0.3995
 3701TIP3   OH235297   3.755   6.291  17.908 -0.2301 -0.2269  0.0228
 3701TIP3    H135298   3.686   6.292  17.974 -0.0273  1.5477  0.2667
 3701TIP3    H235299   3.811   6.365  17.931  1.8304 -1.6579 -0.1130
 3702TIP3   OH235300   6.673   0.986  19.785  0.0565  0.4218 -0.5027
 3702TIP3    H135301   6.590   0.948  19.815 -0.7767  2.0398 -0.6321
 3702TIP3    H235302   6.739   0.921  19.807 -1.4010 -1.5439 -1.6566
 3703TIP3   OH235303   0.298   0.073  18.289  0.8073  0.2738 -0.2498
 3703TIP3    H135304   0.278   0.128  18.213  0.3051  0.2930 -0.1117
 3703TIP3    H235305   0.377   0.026  18.265  0.5305  0.1202 -0.8745
 3704TIP3   OH235306   0.565   5.064  19.731  0.0788  0.3833 -0.4351
 3704TIP3    H135307   0.521   5.146  19.713 -0.6694  0.2380  0.6627
 3704TIP3    H235308   0.494   5.000  19.742  0.6017 -0.1174  0.0998
 3705TIP3   OH235309   6.363   2.968  18.733 -0.1467 -0.3989  0.7233
 3705TIP3    H135310   6.356   2.897  18.797  0.7232  0.0786  1.3790
 3705TIP3    H235311   6.328   2.931  18.652 -1.2475 -1.0279  1.4609
 3706TIP3   OH235312   4.886   3.890  18.618 -0.5493 -0.5118  0.0488
 3706TIP3    H135313   4.901   3.938  18.537 -0.9666 -0.7430 -0.1700
 3706TIP3    H235314   4.876   3.799  18.590 -2.9378 -0.3158  0.0839
 3707TIP3   OH235315   1.497   5.528  18.150 -0.3334  0.4735 -0.3890
 3707TIP3    H135316   1.560   5.540  18.079 -0.9550 -0.1143 -1.0558
 3707TIP3    H235317   1.515   5.439  18.182 -0.5598  0.4497 -0.3270
 3708TIP3   OH235318   0.410   2.193  17.802 -0.6025  0.0625 -0.7047
 3708TIP3    H135319   0.346   2.134  17.842 -0.9484  1.0477  0.2446
 3708TIP3    H235320   0.483   2.136  17.778  0.3016 -0.4469  2.7392
 3709TIP3   OH235321   4.895   2.189  18.927 -0.6119 -0.6970  0.4755
 3709TIP3    H135322   4.876   2.152  19.014 -0.2333  1.6572  1.6417
 3709TIP3    H235323   4.843   2.269  18.923  0.9323  0.3126 -0.6000
 3710TIP3   OH235324   3.986   0.896  18.702 -0.4126  0.2241  0.3593
 3710TIP3    H135325   3.905   0.946  18.710 -1.1183 -1.1250  2.5325
 3710TIP3    H235326   3.958   0.805  18.701  1.0449 -0.2551  0.5755
 3711TIP3   OH235327   3.875   4.299  17.644 -0.5922  0.7016 -0.3128
 3711TIP3    H135328   3.813   4.324  17.712 -1.8382 -0.2255 -1.0580
 3711TIP3    H235329   3.957   4.343  17.668 -1.5109  1.9103  0.7226
 3712TIP3   OH235330   3.566   3.144  19.819 -0.1316  0.6323  0.2273
 3712TIP3    H135331   3.526   3.230  19.827 -0.2606  0.4861  1.3351
 3712TIP3    H235332   3.496   3.083  19.845  0.2973  0.2740  0.5546
 3713TIP3   OH235333   1.653   1.695  18.604 -0.1277  0.3828 -0.3102
 3713TIP3    H135334   1.594   1.621  18.593 -0.2648  0.3359  0.6970
 3713TIP3    H235335   1.741   1.657  18.603 -0.1818  0.2548 -0.1717
 3714TIP3   OH235336   3.069   6.203  17.576 -0.2256  0.0959 -0.0426
 3714TIP3    H135337   3.001   6.168  17.517  0.3428  0.2308 -0.7902
 3714TIP3    H235338   3.128   6.129  17.591 -1.2986 -0.4603  1.8008
 3715TIP3   OH235339   1.035   7.251  16.502  0.0671  0.3805  0.3851
 3715TIP3    H135340   1.105   7.213  16.555  3.1715  1.2609 -2.7664
 3715TIP3    H235341   1.022   7.339  16.539  0.5807  0.2044  0.9970
 3716TIP3   OH235342   2.075   2.760  18.937  0.5124 -0.1208  0.3624
 3716TIP3    H135343   2.129   2.826  18.981  1.7779 -1.5019  0.9768
 3716TIP3    H235344   2.018   2.726  19.006  0.4366 -0.2342  0.2437
 3717TIP3   OH235345   7.663   2.319  19.816 -0.1896 -0.3731 -0.1407
 3717TIP3    H135346   7.747   2.335  19.775 -0.8126  0.3642 -1.1819
 3717TIP3    H235347   7.677   2.242  19.872  1.0115 -0.5976 -0.7343
 3718TIP3   OH235348   0.592   4.682  19.154 -0.3150 -0.1815 -0.0175
 3718TIP3    H135349   0.660   4.699  19.089  0.0160  0.8535  0.5656
 3718TIP3    H235350   0.511   4.673  19.103 -0.0082  0.2832 -0.5961
 3719TIP3   OH235351   4.491   1.375  17.287  0.7175  0.3056 -0.5288
 3719TIP3    H135352   4.574   1.341  17.321 -0.2318 -1.3924  0.2624
 3719TIP3    H235353   4.473   1.452  17.340  1.2889  0.0773  0.0195
 3720TIP3   OH235354   1.756   0.982  17.616 -0.3314 -0.3011  0.3957
 3720TIP3    H135355   1.794   0.927  17.685  1.8749  0.9495  0.2770
 3720TIP3    H235356   1.773   0.934  17.535 -0.8940 -0.7127  0.5156
 3721TIP3   OH235357   6.988   4.669  18.479  0.7087  0.8941  0.2319
 3721TIP3    H135358   7.075   4.634  18.461  0.7600  1.4717 -0.7672
 3721TIP3    H235359   6.991   4.758  18.443 -0.6255  0.5486 -0.8289
 3722TIP3   OH235360   6.519   2.011  19.236 -0.1672  0.3514  0.1471
 3722TIP3    H135361   6.454   2.059  19.185  1.0085 -1.6014 -3.5208
 3722TIP3    H235362   6.603   2.033  19.195  0.8502 -1.4935  1.1360
 3723TIP3   OH235363   0.516   7.013  19.233  0.1415  0.2351  0.4663
 3723TIP3    H135364   0.585   6.975  19.178 -0.5629 -0.4355  0.0225
 3723TIP3    H235365   0.544   6.996  19.323  0.6363  0.1200  0.2917
 3724TIP3   OH235366   2.925   1.922  17.895  0.3359  0.0562  0.3202
 3724TIP3    H135367   2.932   1.978  17.818 -0.5979  0.4875  0.5342
 3724TIP3    H235368   2.934   1.983  17.969 -1.7146  0.1158  0.5690
 3725TIP3   OH235369   5.312   3.463  19.149 -0.6121 -0.4014 -0.4335
 3725TIP3    H135370   5.399   3.432  19.126 -0.6816  0.6030 -2.1677
 3725TIP3    H235371   5.328   3.542  19.201 -0.4883 -0.5956 -0.1735
 3726TIP3   OH235372   1.328   5.941  17.280  0.2629 -0.1488  0.0625
 3726TIP3    H135373   1.249   5.983  17.247 -0.8253 -1.5358  0.8038
 3726TIP3    H235374   1.329   5.855  17.237  0.3576 -0.8530  1.4287
 3727TIP3   OH235375   5.693   1.004  18.467  0.4171 -0.1716 -0.0529
 3727TIP3    H135376   5.782   1.036  18.454  0.2631  0.3542  0.1609
 3727TIP3    H235377   5.640   1.084  18.477  0.3258 -0.4453  2.4935
 3728TIP3   OH235378   6.895   5.837  17.774 -0.2580  0.0657 -0.0896
 3728TIP3    H135379   6.976   5.884  17.758 -1.1653  1.4615 -0.7567
 3728TIP3    H235380   6.906   5.798  17.860  0.5125  1.5746  0.5279
 3729TIP3   OH235381   0.219   0.672  18.784 -0.3728  0.0144  0.0551
 3729TIP3    H135382   0.210   0.619  18.863 -2.3154  2.1441  1.4100
 3729TIP3    H235383   0.242   0.610  18.715  1.3260 -1.9496  2.2319
 3730TIP3   OH235384   0.545   2.418  18.473 -0.0523  0.1043 -0.5733
 3730TIP3    H135385   0.493   2.338  18.475 -1.6225  1.0613 -1.1161
 3730TIP3    H235386   0.542   2.447  18.382 -0.9685  1.6489 -0.0975
 3731TIP3   OH235387   4.911   5.018  19.288 -0.3868  0.2262  0.2349
 3731TIP3    H135388   4.996   4.989  19.254 -0.8564 -0.1450 -0.6528
 3731TIP3    H235389   4.916   5.000  19.382  0.1836 -0.6290  0.0547
 3732TIP3   OH235390   0.081   2.078  19.531 -0.1766  0.3719  0.4614
 3732TIP3    H135391   0.063   2.170  19.553  0.6086  1.5324 -2.9623
 3732TIP3    H235392   0.176   2.075  19.519  0.0635 -1.4448  2.3380
 3733TIP3   OH235393   3.576   7.267  19.319  0.2784  0.0889 -0.0364
 3733TIP3    H135394   3.490   7.255  19.358 -0.2587  1.9517 -0.5803
 3733TIP3    H235395   3.636   7.223  19.379 -0.9970 -1.0034  0.4873
 3734TIP3   OH235396   4.569   5.953  19.100  0.2470 -0.6379  0.5006
 3734TIP3    H135397   4.618   5.968  19.019 -1.6106 -0.2504 -0.5987
 3734TIP3    H235398   4.612   6.009  19.164  1.1347 -0.1757 -0.4657
 3735TIP3   OH235399   6.025   3.290  19.551  0.2994 -0.2062 -0.0112
 3735TIP3    H135400   5.940   3.333  19.563  0.0875 -0.6459  0.0777
 3735TIP3    H235401   6.009   3.198  19.572  1.4416  0.1538  2.8799
 3736TIP3   OH235402   5.657   1.564  18.757  0.0527  0.5247  0.4281
 3736TIP3    H135403   5.624   1.612  18.681 -0.7432  2.5195  1.9262
 3736TIP3    H235404   5.752   1.569  18.748 -0.0145  0.0275 -0.8147
 3737TIP3   OH235405   3.075   5.080  19.315  0.0348 -0.3609 -0.4145
 3737TIP3    H135406   2.982   5.068  19.296 -0.6451 -1.0498  2.7193
 3737TIP3    H235407   3.082   5.172  19.341  0.9609  0.5976 -3.6009
 3738TIP3   OH235408   0.519   3.482  18.804  0.0501 -0.3161  0.1439
 3738TIP3    H135409   0.556   3.570  18.813 -1.6954  0.5346 -0.4956
 3738TIP3    H235410   0.492   3.458  18.893 -1.8699  0.9529 -0.0424
 3739TIP3   OH235411   3.317   6.080  18.715  0.5766 -0.3333 -0.0663
 3739TIP3    H135412   3.292   6.084  18.808  0.1344 -0.1934 -0.1893
 3739TIP3    H235413   3.264   6.009  18.679  0.3576 -0.0405 -0.3294
 3740TIP3   OH235414   2.552   5.467  17.523  0.2797  0.0140 -0.5863
 3740TIP3    H135415   2.472   5.517  17.534  0.6185  0.2530  1.0400
 3740TIP3    H235416   2.524   5.385  17.483 -0.4308  1.0106 -2.2159
 3741TIP3   OH235417   2.855   1.132  18.670 -0.1164 -0.2323  0.4964
 3741TIP3    H135418   2.854   1.053  18.615  1.7919  0.5730 -0.8396
 3741TIP3    H235419   2.843   1.100  18.759  2.0925 -2.2674  0.1687
 3742TIP3   OH235420   4.658   2.321  18.840 -0.0143 -0.0691 -0.6747
 3742TIP3    H135421   4.636   2.239  18.884 -0.2640  0.8739  1.0765
 3742TIP3    H235422   4.621   2.312  18.752 -1.7513 -1.0945  0.0972
 3743TIP3   OH235423   3.783   2.137  20.090 -0.3256  0.1938  0.1885
 3743TIP3    H135424   3.859   2.136  20.032 -0.9249 -1.1891 -0.6042
 3743TIP3    H235425   3.812   2.092  20.169  0.3495  1.6803  0.8396
 3744TIP3   OH235426   3.950   6.366  18.626  0.3616 -0.0525 -0.0477
 3744TIP3    H135427   4.015   6.412  18.679  1.7630 -0.2129 -1.5535
 3744TIP3    H235428   3.873   6.360  18.683  1.1093  1.5458  1.2267
 3745TIP3   OH235429   2.665   3.719  19.589  0.2701  0.1781  0.5523
 3745TIP3    H135430   2.619   3.793  19.550  1.2892 -0.2379 -1.5977
 3745TIP3    H235431   2.711   3.678  19.515  1.4186 -1.3443  2.0389
 3746TIP3   OH235432   0.061   6.148  17.724  0.6849  0.3178  0.4380
 3746TIP3    H135433  -0.023   6.183  17.754  0.8342  1.1087 -0.0333
 3746TIP3    H235434   0.051   6.141  17.629  0.9744 -0.0975  0.4357
 3747TIP3   OH235435   1.532   0.565  18.965  0.2413  0.2913 -0.2212
 3747TIP3    H135436   1.580   0.544  19.045 -0.1995 -0.8262 -0.2309
 3747TIP3    H235437   1.477   0.488  18.950 -1.3322  1.4120 -0.3726
 3748TIP3   OH235438   5.972   1.098  17.157  0.2800 -0.5477  0.2468
 3748TIP3    H135439   6.013   1.037  17.096 -0.6232 -1.5391  0.6096
 3748TIP3    H235440   6.039   1.111  17.226 -0.1765 -2.6130  1.1393
 3749TIP3   OH235441   4.888   5.085  18.216 -0.6850  0.0819  0.1262
 3749TIP3    H135442   4.915   5.052  18.131 -0.0274  1.1309 -0.0915
 3749TIP3    H235443   4.968   5.083  18.269 -1.2541 -1.2921  0.9749
 3750TIP3   OH235444   6.448   6.013  19.392  0.6804  0.6830 -0.2839
 3750TIP3    H135445   6.522   5.974  19.438 -0.9956 -0.5556  1.4793
 3750TIP3    H235446   6.446   5.967  19.308  0.5612 -0.9500  0.5692
 3751TIP3   OH235447   4.163   0.706  17.255  0.5071 -0.1231  0.0730
 3751TIP3    H135448   4.188   0.779  17.198  1.1992  0.9596  1.6827
 3751TIP3    H235449   4.222   0.635  17.230  0.4595  0.1617 -0.8883
 3752TIP3   OH235450   3.695   3.527  18.334  0.2648  0.2614  0.3613
 3752TIP3    H135451   3.725   3.548  18.422 -0.6639  0.3700  0.6617
 3752TIP3    H235452   3.691   3.431  18.332 -1.0046  0.2722  0.9123
 3753TIP3   OH235453   6.442   0.876  19.869  0.0816 -0.1615  0.1792
 3753TIP3    H135454   6.346   0.879  19.866 -0.0194 -1.9773  0.3880
 3753TIP3    H235455   6.463   0.783  19.876  1.8587  0.2252  0.5665
 3754TIP3   OH235456   2.014   3.116  18.440  0.2512 -0.1374  0.1360
 3754TIP3    H135457   1.984   3.086  18.354  1.1822 -0.5781 -0.0429
 3754TIP3    H235458   1.951   3.077  18.502 -0.5120  0.3110 -0.3452
 3755TIP3   OH235459   7.366   1.628  18.607  0.0336  0.1628 -0.4961
 3755TIP3    H135460   7.296   1.614  18.543  0.0046  0.4852 -0.5347
 3755TIP3    H235461   7.354   1.718  18.637  1.8070  1.0395 -2.2015
 3756TIP3   OH235462   0.559   6.334  18.906 -0.6106  0.2350  0.0409
 3756TIP3    H135463   0.514   6.335  18.821 -1.5228  1.3871  0.5254
 3756TIP3    H235464   0.646   6.371  18.887  0.1770 -1.9295 -0.8768
 3757TIP3   OH235465   5.539   2.654  19.662  0.5192  0.3972  0.3515
 3757TIP3    H135466   5.574   2.579  19.710 -1.4427 -1.1975 -0.5427
 3757TIP3    H235467   5.504   2.616  19.581  0.4736  2.4693 -0.6701
 3758TIP3   OH235468   1.516   3.993  19.565  0.1993 -0.1012  0.8633
 3758TIP3    H135469   1.565   3.970  19.486  1.9931  0.2726  1.8072
 3758TIP3    H235470   1.472   3.912  19.590  1.3742 -0.8269  0.6702
 3759TIP3   OH235471   4.315   3.955  18.427 -0.1759 -0.1613  0.1202
 3759TIP3    H135472   4.364   3.939  18.346  1.4255  0.9118  0.8228
 3759TIP3    H235473   4.287   4.047  18.420 -0.7112 -0.2968  0.4372
 3760TIP3   OH235474   4.277   7.048  19.437  0.0203  0.3344  0.0891
 3760TIP3    H135475   4.344   7.092  19.386 -0.3781  0.8178 -0.0173
 3760TIP3    H235476   4.300   7.067  19.528 -0.3083  0.9903  0.0353
 3761TIP3   OH235477   5.741   3.517  18.923 -0.0981  0.6725  0.5993
 3761TIP3    H135478   5.653   3.479  18.929 -0.2075  0.4977 -1.2926
 3761TIP3    H235479   5.785   3.488  19.003 -0.8205 -1.7991  0.1955
 3762TIP3   OH235480   0.031   7.168  19.827  0.4032 -0.2738  0.1914
 3762TIP3    H135481  -0.045   7.214  19.862 -0.1732 -0.4950 -0.7195
 3762TIP3    H235482   0.104   7.228  19.840 -0.1011  0.3491  0.2226
 3763TIP3   OH235483   6.097   2.603  19.073 -0.2429 -0.0607  0.1745
 3763TIP3    H135484   6.092   2.540  19.146 -0.2897  2.8843  2.9314
 3763TIP3    H235485   6.017   2.586  19.023 -0.3145 -2.0927  0.8630
 3764TIP3   OH235486   3.325   0.725  17.765 -0.2975  0.2995 -0.3650
 3764TIP3    H135487   3.369   0.756  17.685 -0.1944  1.3392  0.0703
 3764TIP3    H235488   3.395   0.718  17.829 -0.5413  0.5443 -0.0675
 3765TIP3   OH235489   2.311   6.462  18.384  0.2590 -0.7103  0.4165
 3765TIP3    H135490   2.267   6.532  18.335 -0.6643  0.6573  3.0066
 3765TIP3    H235491   2.274   6.381  18.348  0.3820  0.1437 -1.7733
 3766TIP3   OH235492   1.319   1.449  18.755  0.3628  0.1922  0.5290
 3766TIP3    H135493   1.316   1.513  18.826 -2.1021  0.7998 -0.0242
 3766TIP3    H235494   1.229   1.444  18.724  0.9778 -1.6764 -1.1395
 3767TIP3   OH235495   1.880   0.971  19.233  0.1708 -0.2500  0.0655
 3767TIP3    H135496   1.817   1.035  19.267 -0.4637 -0.6476 -0.3629
 3767TIP3    H235497   1.869   0.974  19.138  0.2370 -0.8995  0.0376
 3768TIP3   OH235498   4.409   6.806  19.363  0.4147 -0.5617  0.8874
 3768TIP3    H135499   4.357   6.878  19.399 -0.1851  0.0126 -1.0069
 3768TIP3    H235500   4.403   6.737  19.428 -0.9506  0.2616  1.6747
 3769TIP3   OH235501   6.308   4.871  19.377  0.6629  0.3308 -0.5054
 3769TIP3    H135502   6.250   4.941  19.405  0.0900  0.1789 -1.2763
 3769TIP3    H235503   6.280   4.795  19.428  1.7824  0.8132  0.8944
 3770TIP3   OH235504   1.745   7.371  19.982 -0.0092  0.2303  0.3510
 3770TIP3    H135505   1.774   7.376  20.073  0.7578  1.0903  0.0673
 3770TIP3    H235506   1.824   7.384  19.930 -0.7046  1.5014 -0.4431
 3771TIP3   OH235507   3.069   2.641  17.761  0.2340  0.3127  0.0433
 3771TIP3    H135508   3.090   2.547  17.754 -1.0900 -0.0367  0.4601
 3771TIP3    H235509   3.095   2.678  17.677 -2.2352 -1.0768 -1.4637
 3772TIP3   OH235510   5.352   3.651  18.206 -0.2527 -0.3522  0.1494
 3772TIP3    H135511   5.357   3.572  18.259 -0.9521 -0.6504 -0.2223
 3772TIP3    H235512   5.429   3.702  18.232 -1.3831  0.2579  2.6632
 3773TIP3   OH235513   4.251   0.581  18.090  0.1825 -0.0052 -0.3470
 3773TIP3    H135514   4.243   0.525  18.012  1.2140 -1.4532  0.5339
 3773TIP3    H235515   4.345   0.583  18.109  0.0439  1.1075  0.3332
 3774TIP3   OH235516   7.042   5.726  17.082  0.0393 -0.1905  0.3404
 3774TIP3    H135517   6.988   5.647  17.082 -0.9317  0.4531  0.2656
 3774TIP3    H235518   7.069   5.737  17.173  1.0565 -1.1627  0.1839
 3775TIP3   OH235519   1.160   2.394  19.718 -0.0291  0.2852 -0.5913
 3775TIP3    H135520   1.123   2.310  19.747 -0.0673  1.2750  2.5564
 3775TIP3    H235521   1.169   2.384  19.623 -0.6844 -2.9991 -0.4351
 3776TIP3   OH235522   5.768   0.775  18.621 -0.3803  0.4857  0.0152
 3776TIP3    H135523   5.771   0.706  18.556 -2.3517  0.2069  0.1766
 3776TIP3    H235524   5.745   0.854  18.572  2.9860  1.3995 -0.3717
 3777TIP3   OH235525   1.641   3.649  18.639  0.5386 -0.2159 -0.4177
 3777TIP3    H135526   1.721   3.613  18.601 -0.2435 -0.5679 -1.8086
 3777TIP3    H235527   1.572   3.621  18.580 -0.6874 -0.2930  0.9810
 3778TIP3   OH235528   2.572   3.200  17.692  0.2101  0.1437 -0.0488
 3778TIP3    H135529   2.597   3.251  17.615  0.5284 -1.3741 -0.9892
 3778TIP3    H235530   2.624   3.236  17.763  0.1296  1.3796 -0.5925
 3779TIP3   OH235531   4.908   4.267  17.907  0.5331 -0.0077 -0.0914
 3779TIP3    H135532   4.880   4.338  17.850 -2.0466  0.8978  2.0944
 3779TIP3    H235533   4.864   4.190  17.873 -1.8087  0.7111  1.1048
 3780TIP3   OH235534   1.026   3.256  17.828  0.5726  0.3166 -0.0119
 3780TIP3    H135535   1.117   3.241  17.854  0.9743 -1.2280 -2.0887
 3780TIP3    H235536   1.031   3.324  17.761  0.0478  0.9587  0.5778
 3781TIP3   OH235537   3.228   4.621  18.087  0.2242  0.1780  0.2473
 3781TIP3    H135538   3.227   4.530  18.059  0.4099  0.9058 -2.4160
 3781TIP3    H235539   3.140   4.637  18.120  0.4081 -1.1115  1.4813
 3782TIP3   OH235540   6.547   1.410  18.997 -0.3669 -0.1279  0.8521
 3782TIP3    H135541   6.537   1.406  19.092 -0.3568 -0.2563  0.8491
 3782TIP3    H235542   6.635   1.376  18.981 -0.3094  0.0446  0.8095
 3783TIP3   OH235543   2.455   6.014  17.038 -0.5333  0.2026 -0.7509
 3783TIP3    H135544   2.504   5.983  16.962  1.3966 -1.1192  0.9436
 3783TIP3    H235545   2.426   5.934  17.083 -0.5989  0.9263  0.5418
 3784TIP3   OH235546   3.905   7.021  18.761  0.1648  0.9806 -0.2814
 3784TIP3    H135547   3.994   7.016  18.796  0.7000 -0.0422 -1.6939
 3784TIP3    H235548   3.902   7.105  18.715  0.6134  0.7401 -0.7578
 3785TIP3   OH235549   7.265   3.973  19.436 -0.5903 -0.0401 -0.2804
 3785TIP3    H135550   7.223   3.905  19.488 -1.8745  0.6601 -0.3535
 3785TIP3    H235551   7.212   4.051  19.451  0.5347  0.8261 -0.6105
 3786TIP3   OH235552   0.969   5.043  19.160  0.0006 -0.4276  0.2426
 3786TIP3    H135553   0.908   4.970  19.170 -0.7881  0.2246  0.3277
 3786TIP3    H235554   0.966   5.089  19.244 -1.5647  1.2190 -0.6367
 3787TIP3   OH235555   1.118   3.875  18.617  0.0103  0.1432  0.3215
 3787TIP3    H135556   1.162   3.834  18.542 -1.2173 -2.1781  0.7919
 3787TIP3    H235557   1.049   3.929  18.577 -0.2053 -0.5423 -0.2514
 3788TIP3   OH235558   3.839   4.457  17.947  0.5271 -0.0676 -0.0094
 3788TIP3    H135559   3.868   4.491  18.032 -3.0060  0.7685  1.0455
 3788TIP3    H235560   3.855   4.363  17.952  2.1117  0.2001  0.7543
 3789TIP3   OH235561   2.300   2.128  19.174 -0.1217  0.3351  0.1647
 3789TIP3    H135562   2.247   2.209  19.178 -0.8685 -0.0528 -1.1894
 3789TIP3    H235563   2.285   2.094  19.086 -0.0150 -1.4293  0.7870
 3790TIP3   OH235564   0.974   4.673  19.927 -0.3040  0.7186  0.1247
 3790TIP3    H135565   0.901   4.631  19.973 -0.5801 -1.2307 -1.9264
 3790TIP3    H235566   0.942   4.760  19.905 -1.3321  0.5233  0.7838
 3791TIP3   OH235567   5.765   0.423  19.277 -1.0933  0.0589  0.0095
 3791TIP3    H135568   5.723   0.338  19.265  0.0616 -0.8877  2.0974
 3791TIP3    H235569   5.787   0.426  19.370 -0.3354  2.2949 -0.1842
 3792TIP3   OH235570   2.016   1.296  17.762 -0.2622 -0.0052  0.3543
 3792TIP3    H135571   2.008   1.338  17.677  0.9114  1.8531  1.1108
 3792TIP3    H235572   1.932   1.314  17.806  0.5478  2.5709  1.0405
 3793TIP3   OH235573   5.751   6.111  18.280  0.3774  0.6100 -0.3728
 3793TIP3    H135574   5.774   6.020  18.265  0.9684  0.6855  0.0246
 3793TIP3    H235575   5.657   6.109  18.299  0.6137 -0.0790  0.8364
 3794TIP3   OH235576   5.472   5.079  18.687  0.3900  0.9744  0.9711
 3794TIP3    H135577   5.540   5.110  18.627  0.0643 -2.4820 -1.4908
 3794TIP3    H235578   5.404   5.043  18.630 -1.4688  0.3127  3.4084
 3795TIP3   OH235579   4.745   1.424  19.633 -0.0701  0.6555  0.1808
 3795TIP3    H135580   4.700   1.352  19.589  0.1706  0.8719 -0.4269
 3795TIP3    H235581   4.837   1.412  19.612  0.0304  0.8503  0.5009
 3796TIP3   OH235582   1.429   6.461  19.073  0.2407 -0.4784 -0.7723
 3796TIP3    H135583   1.508   6.477  19.022 -0.6075 -0.0157 -1.9694
 3796TIP3    H235584   1.396   6.548  19.094 -0.2118 -0.6715 -0.6781
 3797TIP3   OH235585   7.463   5.698  17.503  0.3285 -0.3541  0.0949
 3797TIP3    H135586   7.436   5.770  17.446  1.6756  0.3029  0.2538
 3797TIP3    H235587   7.513   5.640  17.446  2.8334  0.9667  0.7840
 3798TIP3   OH235588   2.901   5.014  19.760  0.1156  0.3447 -0.1105
 3798TIP3    H135589   2.806   5.014  19.765  0.0942  0.0234 -0.4530
 3798TIP3    H235590   2.927   5.103  19.784 -0.1950  0.0609  1.3635
 3799TIP3   OH235591   3.824   5.486  19.394 -0.0653 -0.4386 -0.0717
 3799TIP3    H135592   3.807   5.546  19.322  3.0788  2.2779  1.1555
 3799TIP3    H235593   3.903   5.438  19.367  0.0941 -0.6973  0.8138
 3800TIP3   OH235594   7.258   0.418  17.208  0.2588  0.4830 -0.0748
 3800TIP3    H135595   7.172   0.428  17.168  0.0908  1.2371  0.4486
 3800TIP3    H235596   7.247   0.348  17.273 -0.1411  1.0427  0.4682
 3801TIP3   OH235597   0.627   3.646  19.718 -0.4138 -0.1173  0.2852
 3801TIP3    H135598   0.711   3.602  19.731 -0.1673  0.5505  1.0735
 3801TIP3    H235599   0.640   3.734  19.753 -1.4071  0.0401  0.3092
 3802TIP3   OH235600   2.099   1.656  19.757 -0.0262 -0.0531 -0.7281
 3802TIP3    H135601   2.168   1.717  19.733  0.7319 -0.6507 -0.1331
 3802TIP3    H235602   2.040   1.707  19.812  0.2716  0.3077 -0.7370
 3803TIP3   OH235603   4.478   3.823  19.154  0.2350 -0.5794  0.0833
 3803TIP3    H135604   4.517   3.911  19.152 -0.1888 -0.3269  1.5090
 3803TIP3    H235605   4.428   3.821  19.236  0.0841 -2.0920 -0.0163
 3804TIP3   OH235606   1.508   3.486  17.853 -0.0241 -0.2691 -0.0156
 3804TIP3    H135607   1.457   3.431  17.794  1.1293 -0.7181 -0.6375
 3804TIP3    H235608   1.543   3.555  17.797 -2.1343  1.6669  0.9018
 3805TIP3   OH235609   3.678   5.089  19.517 -0.3846  0.0317 -0.3633
 3805TIP3    H135610   3.699   5.093  19.610 -1.6824  1.1100 -0.0989
 3805TIP3    H235611   3.679   4.995  19.496  0.9155 -0.1662  0.4718
 3806TIP3   OH235612   5.870   2.567  18.560  0.3205  0.6910 -0.1811
 3806TIP3    H135613   5.881   2.474  18.581  1.4986  1.0665  1.0167
 3806TIP3    H235614   5.790   2.592  18.605 -0.9989 -0.0949 -1.9316
 3807TIP3   OH235615   4.411   5.678  18.028 -0.1773 -0.1455  0.0489
 3807TIP3    H135616   4.341   5.657  18.089 -2.0832  2.0034 -1.2203
 3807TIP3    H235617   4.367   5.724  17.956  2.4838  0.8965 -1.0455
 3808TIP3   OH235618   5.533   3.824  17.960 -0.1316 -0.0938  0.0490
 3808TIP3    H135619   5.591   3.856  17.890  0.1395 -1.8216 -0.5806
 3808TIP3    H235620   5.540   3.889  18.029  0.6282  0.9980 -1.0169
 3809TIP3   OH235621   2.510   5.378  18.176 -0.1710 -0.6796  0.8072
 3809TIP3    H135622   2.508   5.283  18.186  0.8924 -0.9389 -1.0410
 3809TIP3    H235623   2.584   5.395  18.118 -0.0590  1.3338  1.4479
 3810TIP3   OH235624   7.137   4.350  18.628  0.0478  0.1154  0.2017
 3810TIP3    H135625   7.207   4.301  18.671  0.2897 -1.0896 -1.4410
 3810TIP3    H235626   7.175   4.435  18.609  0.8415 -0.2787 -0.0191
 3811TIP3   OH235627   6.185   0.924  18.351 -0.1537 -0.0571 -0.1327
 3811TIP3    H135628   6.261   0.906  18.407 -0.9013  0.1507  0.9910
 3811TIP3    H235629   6.218   0.982  18.283  0.4402  1.1578  1.1248
 3812TIP3   OH235630   2.548   7.047  16.915  0.4519 -0.3205  0.0933
 3812TIP3    H135631   2.466   7.067  16.870 -0.3870 -1.1298  1.2024
 3812TIP3    H235632   2.582   7.132  16.943  0.3387  0.0791 -0.9431
 3813TIP3   OH235633   5.649   7.520  18.850 -0.3642  0.4223 -0.2255
 3813TIP3    H135634   5.733   7.527  18.896 -1.1889  2.0786  1.1192
 3813TIP3    H235635   5.668   7.549  18.761  0.5835  0.2476 -0.0905
 3814TIP3   OH235636   5.328   1.661  18.931  0.1720 -0.0709  0.2335
 3814TIP3    H135637   5.242   1.698  18.951 -0.3288  0.4820 -2.5838
 3814TIP3    H235638   5.310   1.572  18.902  0.4256  0.3246 -1.1835
 3815TIP3   OH235639   5.830   2.681  19.333 -0.3510  0.0927 -0.5133
 3815TIP3    H135640   5.900   2.617  19.325 -0.4864 -0.3196  1.2014
 3815TIP3    H235641   5.778   2.651  19.407 -1.0815  1.5725 -0.3854
 3816TIP3   OH235642   2.674   4.937  18.743  1.2288 -0.2722  0.1329
 3816TIP3    H135643   2.646   4.936  18.835  3.0518 -0.5619  0.7200
 3816TIP3    H235644   2.710   5.024  18.730  0.4694 -0.0394 -0.4997
 3817TIP3   OH235645   1.233   2.458  18.725  0.3372 -0.0211 -0.1143
 3817TIP3    H135646   1.209   2.374  18.685 -0.9199  0.5431 -0.6186
 3817TIP3    H235647   1.305   2.490  18.671 -0.4812  0.1195 -1.1660
 3818TIP3   OH235648   0.751   1.221  19.298 -0.3694 -0.2708 -0.2486
 3818TIP3    H135649   0.695   1.144  19.294  1.8700 -2.1081  0.9070
 3818TIP3    H235650   0.838   1.189  19.274  0.7159  1.8389  0.5672
 3819TIP3   OH235651   2.264   4.569  17.874  0.3166  1.0578  0.8597
 3819TIP3    H135652   2.211   4.598  17.801  1.9519  0.4227 -0.6518
 3819TIP3    H235653   2.316   4.496  17.840  1.5967  1.1467  2.4556
 3820TIP3   OH235654   1.366   1.274  17.809 -0.3060  0.3664 -0.0792
 3820TIP3    H135655   1.397   1.342  17.749  1.8496 -0.1045  0.4180
 3820TIP3    H235656   1.289   1.313  17.852 -0.5392  1.5537 -1.4908
 3821TIP3   OH235657   4.254   3.825  17.633  0.4735 -0.4384  0.0342
 3821TIP3    H135658   4.234   3.784  17.549  0.9864 -1.2365  0.2917
 3821TIP3    H235659   4.224   3.762  17.699  0.6816 -0.1177  0.4423
 3822TIP3   OH235660   6.575   3.272  16.928  0.3094 -0.1548 -0.7660
 3822TIP3    H135661   6.633   3.338  16.891  0.1972 -0.1304 -0.8973
 3822TIP3    H235662   6.630   3.225  16.992  0.3218  0.2118 -0.5048
 3823TIP3   OH235663   7.415   0.337  18.009  0.4548 -0.0177 -0.4104
 3823TIP3    H135664   7.352   0.282  17.964 -0.5639 -0.0697  1.0343
 3823TIP3    H235665   7.499   0.293  17.994 -0.1863 -1.3774 -0.1972
 3824TIP3   OH235666   0.590   5.207  17.070 -0.3321 -0.2349  0.3547
 3824TIP3    H135667   0.677   5.216  17.031  0.2026  0.1705  1.5919
 3824TIP3    H235668   0.534   5.180  16.997  1.0530 -1.6926 -0.2438
 3825TIP3   OH235669   5.699   5.522  18.950 -0.3214 -0.2438  0.0855
 3825TIP3    H135670   5.628   5.575  18.988 -0.7528 -0.5233 -0.3192
 3825TIP3    H235671   5.654   5.448  18.909  0.0825  0.3669 -1.5211
 3826TIP3   OH235672   2.469   2.636  19.486 -0.6175  0.2336 -0.3883
 3826TIP3    H135673   2.377   2.622  19.466 -0.9874  0.7221  0.8461
 3826TIP3    H235674   2.469   2.710  19.547  0.3993 -1.0639  1.2759
 3827TIP3   OH235675   2.804   2.423  17.828  0.0650  0.5398 -0.3857
 3827TIP3    H135676   2.891   2.423  17.868 -0.0209  0.1720 -0.1940
 3827TIP3    H235677   2.762   2.501  17.864  0.1437  0.4515 -0.0913
 3828TIP3   OH235678   3.829   6.056  19.631  0.2295 -0.0320  0.0890
 3828TIP3    H135679   3.911   6.024  19.593 -0.0610  0.0860 -0.6700
 3828TIP3    H235680   3.857   6.113  19.703  0.7998 -0.3430  0.1242
 3829TIP3   OH235681   1.902   5.259  19.063  0.0678 -0.2949 -0.2825
 3829TIP3    H135682   1.932   5.315  18.992 -0.7345  1.4928  0.7083
 3829TIP3    H235683   1.821   5.300  19.094 -0.3329 -1.7775  0.7831
 3830TIP3   OH235684   5.376   4.581  19.295  0.8954 -0.0327 -0.0163
 3830TIP3    H135685   5.409   4.518  19.359  0.1921 -0.0691  0.3199
 3830TIP3    H235686   5.425   4.562  19.215  2.0019  0.2091  0.5806
 3831TIP3   OH235687   6.948   5.587  18.790 -0.3694 -0.2279 -0.1847
 3831TIP3    H135688   6.961   5.555  18.701  1.2198  1.3686 -0.5811
 3831TIP3    H235689   6.894   5.520  18.832 -0.4747 -1.4085 -2.0936
 3832TIP3   OH235690   7.419   1.801  19.230 -0.2822  0.1794  0.0656
 3832TIP3    H135691   7.371   1.745  19.292 -0.2972  0.0181 -0.0889
 3832TIP3    H235692   7.494   1.748  19.203  0.2195  0.5921  0.6257
 3833TIP3   OH235693   2.591   0.378  17.491  0.0683 -0.1022 -0.2037
 3833TIP3    H135694   2.651   0.449  17.512  0.5166 -0.2395 -0.9700
 3833TIP3    H235695   2.536   0.369  17.569  0.5584  0.5141  0.2254
 3834TIP3   OH235696   7.465   6.854  17.586 -0.2503  1.0349 -0.1239
 3834TIP3    H135697   7.529   6.849  17.656 -1.4617  1.5560  1.0546
 3834TIP3    H235698   7.516   6.841  17.506  1.1500  0.4143  0.8395
 3835TIP3   OH235699   6.577   2.796  18.001  0.7365 -0.1797 -0.1921
 3835TIP3    H135700   6.663   2.755  17.991  0.7977  0.0162 -0.4782
 3835TIP3    H235701   6.556   2.830  17.914 -0.5728 -2.0872 -0.6939
 3836TIP3   OH235702   1.514   7.388  19.146 -0.5819  0.0577 -0.1526
 3836TIP3    H135703   1.518   7.440  19.225 -0.0222  1.6202 -1.1600
 3836TIP3    H235704   1.572   7.313  19.163  0.5570  1.0526  0.4422
 3837TIP3   OH235705   7.352   1.144  18.636  0.9227 -0.4409  0.4817
 3837TIP3    H135706   7.371   1.071  18.695  3.2699  1.0312  1.6903
 3837TIP3    H235707   7.358   1.222  18.691  3.0162  0.9977 -1.5988
 3838TIP3   OH235708   4.130   1.348  17.132  0.0916 -0.2431  0.4905
 3838TIP3    H135709   4.076   1.273  17.155  0.9259 -0.9908  0.0719
 3838TIP3    H235710   4.130   1.403  17.210  0.5532 -1.3383  1.2870
 3839TIP3   OH235711   5.048   5.676  18.068 -0.1955 -0.6048 -0.0405
 3839TIP3    H135712   5.126   5.714  18.027  1.1454 -0.0847  2.7377
 3839TIP3    H235713   5.069   5.582  18.075  0.2252 -0.4691  0.6836
 3840TIP3   OH235714   3.176   7.394  18.774  0.1770 -0.2860 -0.3357
 3840TIP3    H135715   3.247   7.373  18.713 -0.1725  0.4524 -1.0097
 3840TIP3    H235716   3.208   7.363  18.859  0.6743 -1.3160 -0.8798
 3841TIP3   OH235717   5.754   5.842  18.550 -0.0858 -0.1793 -0.1549
 3841TIP3    H135718   5.708   5.916  18.590  0.2200 -0.2424  0.3226
 3841TIP3    H235719   5.688   5.798  18.497 -0.1036  0.8290 -0.9924
 3842TIP3   OH235720   5.355   4.048  17.740  0.0973  0.4161  0.1248
 3842TIP3    H135721   5.423   3.983  17.722 -0.7774 -0.1468 -1.4177
 3842TIP3    H235722   5.383   4.092  17.820  1.0250 -1.4446  0.8710
 3843TIP3   OH235723   4.978   3.034  18.777  0.3014  0.2231 -0.0614
 3843TIP3    H135724   4.959   2.993  18.693 -0.4209  0.1984  0.1029
 3843TIP3    H235725   5.055   3.089  18.761 -0.3871  0.9657 -0.9821
 3844TIP3   OH235726   4.731   2.737  17.991 -0.4634  0.0174  0.7736
 3844TIP3    H135727   4.780   2.750  18.072 -0.4595  0.2452  0.7352
 3844TIP3    H235728   4.696   2.823  17.970  1.7989  0.5993 -0.9435
 3845TIP3   OH235729   6.039   3.576  19.559 -0.0714  0.7410  0.1353
 3845TIP3    H135730   6.096   3.618  19.623 -0.5173  2.1561 -0.3677
 3845TIP3    H235731   6.100   3.533  19.498  0.3436 -1.3969  1.9378
 3846TIP3   OH235732   6.288   1.821  19.781  0.0589  0.1757 -0.2261
 3846TIP3    H135733   6.271   1.911  19.756 -0.5342  0.4506  1.0838
 3846TIP3    H235734   6.228   1.804  19.854  0.7166 -1.0139  0.0768
 3847TIP3   OH235735   1.583   2.550  19.003  0.4334  0.1031 -0.6660
 3847TIP3    H135736   1.622   2.592  19.080 -0.2881 -0.1194 -0.1597
 3847TIP3    H235737   1.578   2.620  18.937 -0.6155  0.7991  0.1159
 3848TIP3   OH235738   5.321   6.801  19.283 -0.3487 -0.2824  0.2634
 3848TIP3    H135739   5.294   6.814  19.192 -2.2730 -0.1435  0.8133
 3848TIP3    H235740   5.279   6.872  19.331  1.0919 -0.0344  1.2056
 3849TIP3   OH235741   4.490   4.399  19.013  0.1473  0.0549  0.1271
 3849TIP3    H135742   4.398   4.396  19.042  0.0006  0.0604 -0.3364
 3849TIP3    H235743   4.534   4.451  19.081 -0.3611  0.7772 -0.0856
 3850TIP3   OH235744   6.228   3.440  19.407 -0.5451 -0.4131 -0.2821
 3850TIP3    H135745   6.169   3.365  19.405 -0.3351 -0.7050  1.8187
 3850TIP3    H235746   6.221   3.479  19.320 -2.3242 -1.5841 -0.7095
 3851TIP3   OH235747   4.830   3.417  18.257  0.6622  0.6816  0.1995
 3851TIP3    H135748   4.759   3.445  18.199 -0.7141 -2.0026  0.4101
 3851TIP3    H235749   4.792   3.419  18.345  0.8764 -0.6131  0.3418
 3852TIP3   OH235750   3.761   7.144  19.113 -0.3456 -0.2015 -0.0463
 3852TIP3    H135751   3.688   7.160  19.173  0.6691 -0.7515  1.4019
 3852TIP3    H235752   3.729   7.079  19.051 -1.8682  1.3681 -0.9834
 3853TIP3   OH235753   1.099   6.067  17.226  0.5684  0.3650 -0.2437
 3853TIP3    H135754   1.027   6.009  17.203  0.6001  0.1343  0.2426
 3853TIP3    H235755   1.061   6.155  17.220 -0.0278  0.2013  0.9682
 3854TIP3   OH235756   3.730   6.509  19.099 -0.2398  0.1743  0.3720
 3854TIP3    H135757   3.668   6.578  19.074 -0.8466 -0.1552  0.9352
 3854TIP3    H235758   3.706   6.487  19.189 -0.9599 -1.7098 -0.2257
 3855TIP3   OH235759   0.077   5.959  17.116 -0.5569 -0.1353 -0.0652
 3855TIP3    H135760   0.152   5.973  17.173 -1.7283  0.4489  1.4051
 3855TIP3    H235761   0.113   5.914  17.039  1.5626  1.6462 -0.2079
 3856TIP3   OH235762   5.702   4.281  18.749 -0.2436 -0.1786  0.4177
 3856TIP3    H135763   5.681   4.193  18.720  0.2785 -0.0153 -0.4876
 3856TIP3    H235764   5.640   4.338  18.703 -0.4530 -0.0515  0.8494
 3857TIP3   OH235765   2.356   6.185  17.786  0.3423  0.3003  0.5496
 3857TIP3    H135766   2.289   6.137  17.835 -1.5403  0.1403 -1.9389
 3857TIP3    H235767   2.305   6.238  17.724  2.5403  1.1805 -0.5870
 3858TIP3   OH235768   1.966   2.489  18.866  0.3482  0.3927  0.2962
 3858TIP3    H135769   2.052   2.447  18.866  0.8845  1.3874  1.6866
 3858TIP3    H235770   1.985   2.581  18.886 -1.0196  0.6732  0.3957
 3859TIP3   OH235771   6.260   4.671  18.921  0.4349 -0.2202 -0.0343
 3859TIP3    H135772   6.166   4.691  18.925  0.9272  2.2648  0.6908
 3859TIP3    H235773   6.282   4.676  18.828  0.2818  1.6747 -0.0027
 3860TIP3   OH235774   1.450   1.286  18.349  0.0656 -0.0537 -0.7356
 3860TIP3    H135775   1.487   1.254  18.266  1.3193 -0.7809  0.0793
 3860TIP3    H235776   1.473   1.219  18.413  0.6869  1.3557  0.5596
 3861TIP3   OH235777   7.532   2.086  17.328  0.0546  0.1139 -0.4573
 3861TIP3    H135778   7.492   2.081  17.241 -2.0109  1.2849  0.3631
 3861TIP3    H235779   7.503   2.170  17.363  2.5646  0.6188  0.5829
 3862TIP3   OH235780   5.842   2.284  17.452  0.4325 -0.3065 -0.0963
 3862TIP3    H135781   5.908   2.312  17.389  0.0105  0.7006 -0.1178
 3862TIP3    H235782   5.760   2.282  17.402  0.2567 -0.4337  0.1905
 3863TIP3   OH235783   2.650   7.288  16.993  0.3952 -0.3915 -0.6315
 3863TIP3    H135784   2.609   7.358  17.043 -0.5750 -2.5428  1.7754
 3863TIP3    H235785   2.737   7.278  17.031  1.3675  0.7958 -2.3756
 3864TIP3   OH235786   7.392   6.204  19.626  0.2915 -0.0544 -0.3368
 3864TIP3    H135787   7.419   6.112  19.615 -0.3139 -0.0111 -2.6298
 3864TIP3    H235788   7.297   6.203  19.614  0.1221  0.7496  0.7637
 3865TIP3   OH235789   6.849   7.277  18.600 -0.0938  0.0702 -0.8905
 3865TIP3    H135790   6.908   7.201  18.606  0.2454  0.4409  1.5730
 3865TIP3    H235791   6.905   7.352  18.618 -0.9650  0.5976 -0.2923
 3866TIP3   OH235792   2.442   3.594  19.291 -0.4108 -0.1619 -0.1131
 3866TIP3    H135793   2.371   3.619  19.350 -0.0559 -0.7784  0.5954
 3866TIP3    H235794   2.469   3.507  19.321  0.2627 -0.1846 -0.7379
 3867TIP3   OH235795   1.980   4.389  18.496  0.1365  0.0456 -0.4520
 3867TIP3    H135796   1.910   4.438  18.540 -0.2367 -0.8726  0.0036
 3867TIP3    H235797   2.023   4.341  18.567 -0.0261 -0.9195 -0.9897
 3868TIP3   OH235798   2.741   6.300  18.736 -0.5113  0.9411  0.4376
 3868TIP3    H135799   2.736   6.343  18.821 -0.4013 -0.0848  0.9788
 3868TIP3    H235800   2.772   6.211  18.755 -1.0071  0.5176 -0.6033
 3869TIP3   OH235801   2.846   0.691  19.476 -0.5262  0.0847 -0.0259
 3869TIP3    H135802   2.814   0.725  19.392 -1.3350  1.6088  0.8439
 3869TIP3    H235803   2.865   0.770  19.527 -0.4941 -0.8127  1.3771
 3870TIP3   OH235804   1.060   1.466  18.629  0.1229  0.2071 -0.0677
 3870TIP3    H135805   1.060   1.441  18.537 -0.2854  0.6838 -0.2041
 3870TIP3    H235806   1.032   1.558  18.629 -2.7033 -0.5351  0.7189
 3871TIP3   OH235807   6.869   4.293  18.625 -0.1538 -0.4693 -0.5092
 3871TIP3    H135808   6.816   4.300  18.704 -0.4089 -1.8911 -0.5116
 3871TIP3    H235809   6.954   4.330  18.649 -0.3380 -0.5637  0.3282
 3872TIP3   OH235810   2.516   3.332  19.315  0.2843 -0.4293  0.3552
 3872TIP3    H135811   2.484   3.243  19.306 -0.1339 -0.2267 -0.2617
 3872TIP3    H235812   2.539   3.340  19.408  1.2200 -1.4592  0.2315
 3873TIP3   OH235813   2.801   6.090  18.241 -0.3414 -0.1549 -0.0183
 3873TIP3    H135814   2.875   6.058  18.190 -0.7034 -0.2251 -0.5080
 3873TIP3    H235815   2.841   6.136  18.315  0.1838 -0.6756  0.0281
 3874TIP3   OH235816   2.224   6.069  17.983  0.4412 -0.4234  0.3889
 3874TIP3    H135817   2.271   6.111  18.055 -0.2097  2.1597 -0.5822
 3874TIP3    H235818   2.132   6.072  18.010  0.4540 -2.4209  0.8107
 3875TIP3   OH235819   5.450   5.958  17.158  0.1247  0.0700  0.2947
 3875TIP3    H135820   5.392   6.034  17.152  0.1014 -0.0244 -0.6962
 3875TIP3    H235821   5.400   5.895  17.210 -0.9186 -0.2344 -1.0487
 3876TIP3   OH235822   2.093   3.084  18.821 -0.2316 -0.0254  0.2425
 3876TIP3    H135823   2.036   3.014  18.854  0.3648 -0.8314 -0.3932
 3876TIP3    H235824   2.032   3.149  18.787 -0.7896 -0.5933  0.1252
 3877TIP3   OH235825   3.618   7.461  18.760  0.2923 -0.4209  0.1477
 3877TIP3    H135826   3.634   7.548  18.797 -0.3318  0.5194 -1.6937
 3877TIP3    H235827   3.705   7.424  18.745  0.5618  0.1236  0.3677
 3878TIP3   OH235828   7.023   0.084  18.723  0.0674 -0.5012 -0.7006
 3878TIP3    H135829   7.038   0.047  18.810 -0.5346  0.5090 -0.1391
 3878TIP3    H235830   6.980   0.168  18.741  2.0656  0.8483 -1.8685
 3879TIP3   OH235831   7.100   4.845  17.922  0.5496 -0.4133 -0.0785
 3879TIP3    H135832   7.111   4.933  17.887 -1.7533  1.5320  3.4907
 3879TIP3    H235833   7.186   4.823  17.958  0.9127  0.8695 -0.1128
 3880TIP3   OH235834   4.773   6.046  19.850 -0.3120 -0.5321 -0.1846
 3880TIP3    H135835   4.843   5.985  19.827  0.0525  0.1888 -1.0459
 3880TIP3    H235836   4.724   6.058  19.769 -1.8605 -1.5273  0.5541
 3881TIP3   OH235837   3.018   4.007  17.367 -0.1415  0.1002  0.0541
 3881TIP3    H135838   3.075   3.939  17.402  1.3797  0.0610 -2.3124
 3881TIP3    H235839   2.982   3.969  17.287 -0.1586  1.6556 -0.7101
 3882TIP3   OH235840   4.936   0.313  17.906 -0.0067  0.0556 -0.0308
 3882TIP3    H135841   4.842   0.322  17.892  0.1837 -0.1536 -1.6044
 3882TIP3    H235842   4.943   0.255  17.982 -1.1462 -0.7706 -0.5230
 3883TIP3   OH235843   4.565   6.532  17.951  0.1593  0.5441 -0.1003
 3883TIP3    H135844   4.554   6.570  17.864 -0.9016 -0.9103 -0.6446
 3883TIP3    H235845   4.477   6.503  17.975  0.0032  2.6337  2.3272
 3884TIP3   OH235846   5.571   1.161  17.670  0.2751  0.1224 -0.0322
 3884TIP3    H135847   5.602   1.071  17.671  0.3814  0.1615  0.5706
 3884TIP3    H235848   5.514   1.166  17.594 -0.9818 -0.8850  0.7930
 3885TIP3   OH235849   5.266   0.724  19.667 -0.2546  0.4147  0.2971
 3885TIP3    H135850   5.333   0.731  19.735  1.2751  1.5432 -1.2411
 3885TIP3    H235851   5.236   0.814  19.654 -1.2410  0.0759  0.1511
 3886TIP3   OH235852   2.550   1.998  20.037  0.7089  0.2692 -0.3742
 3886TIP3    H135853   2.578   1.907  20.032  1.4142  0.5044 -0.8093
 3886TIP3    H235854   2.630   2.049  20.028  0.4653  0.9326  0.9466
 3887TIP3   OH235855   7.269   2.262  18.966  0.1395 -0.4666 -0.6803
 3887TIP3    H135856   7.289   2.312  18.887  0.6733  0.6471  0.1282
 3887TIP3    H235857   7.181   2.290  18.990  0.6091  0.4629  0.0216
 3888TIP3   OH235858   2.383   2.976  17.359 -0.1914  0.1705 -0.3517
 3888TIP3    H135859   2.331   3.050  17.328 -0.8062  0.9182  2.2074
 3888TIP3    H235860   2.473   3.009  17.363 -0.1007  0.0594 -1.2400
 3889TIP3   OH235861   2.363   1.871  17.487 -0.0262  0.1418 -0.4571
 3889TIP3    H135862   2.293   1.808  17.504 -0.5167  1.0073  0.8621
 3889TIP3    H235863   2.404   1.840  17.406 -0.1540 -1.9633  0.2250
 3890TIP3   OH235864   4.689   6.787  17.949 -0.1145 -0.9609 -0.3730
 3890TIP3    H135865   4.768   6.751  17.910  0.5527 -1.0891  1.0441
 3890TIP3    H235866   4.664   6.723  18.016 -0.4682 -0.1134  0.3234
 3891TIP3   OH235867   2.002   5.080  18.119 -0.0439  0.6653 -0.1572
 3891TIP3    H135868   2.092   5.063  18.144  0.2780  2.5369  0.1020
 3891TIP3    H235869   2.007   5.154  18.059 -1.4400  1.0608  0.1676
 3892TIP3   OH235870   6.213   2.116  19.760  0.1494  0.0954  0.3334
 3892TIP3    H135871   6.149   2.165  19.812 -1.2561 -0.3714 -0.8990
 3892TIP3    H235872   6.275   2.182  19.731  0.5481  0.4839  1.9471
 3893TIP3   OH235873   1.221   2.661  19.147  0.1966 -0.3694 -0.0589
 3893TIP3    H135874   1.184   2.707  19.223  2.4354  1.3928  0.0693
 3893TIP3    H235875   1.262   2.730  19.095  0.2010 -1.7652 -2.0147
 3894TIP3   OH235876   5.545   6.722  17.189 -0.4648 -0.4851 -0.4484
 3894TIP3    H135877   5.481   6.733  17.260  1.6361 -1.1914  1.6675
 3894TIP3    H235878   5.579   6.810  17.175  1.7566 -0.7963  2.1594
 3895TIP3   OH235879   6.703   3.489  17.409 -0.0136 -0.5417  0.3743
 3895TIP3    H135880   6.729   3.577  17.381  0.5037 -0.7393  0.2200
 3895TIP3    H235881   6.752   3.430  17.352  0.0364 -0.9367  0.8155
 3896TIP3   OH235882   4.210   5.403  17.783 -0.1029 -0.1670 -0.1467
 3896TIP3    H135883   4.218   5.373  17.693  1.0907 -0.4762  0.0518
 3896TIP3    H235884   4.299   5.403  17.817 -0.1273  2.6672  0.1807
 3897TIP3   OH235885   1.538   6.611  19.533 -0.3452  0.1031 -0.1336
 3897TIP3    H135886   1.599   6.588  19.463 -1.0932 -1.0198 -0.4517
 3897TIP3    H235887   1.508   6.699  19.511  0.6573  0.4160 -0.3173
 3898TIP3   OH235888   5.211   6.279  18.794 -0.4577 -0.3270  0.2226
 3898TIP3    H135889   5.283   6.234  18.838 -0.6638 -1.7713 -0.8590
 3898TIP3    H235890   5.235   6.372  18.798  0.8230 -0.6590  0.9866
 3899TIP3   OH235891   1.697   7.172  17.045 -0.1316  0.3439  0.8169
 3899TIP3    H135892   1.736   7.150  16.960  1.9456  2.1648  1.2109
 3899TIP3    H235893   1.609   7.202  17.023 -0.2879 -0.9598 -0.4820
 3900TIP3   OH235894   3.682   4.564  19.042 -0.2292  0.2102  0.6830
 3900TIP3    H135895   3.601   4.516  19.057 -0.1529  0.5771  2.4400
 3900TIP3    H235896   3.666   4.650  19.080  0.1317  1.1470 -1.1756
 3901TIP3   OH235897   0.655   3.579  17.648 -0.1967  0.5644  0.1051
 3901TIP3    H135898   0.656   3.675  17.639  1.3460  0.5500 -0.0961
 3901TIP3    H235899   0.746   3.553  17.636 -0.3593 -0.8111  1.5296
 3902TIP3   OH235900   3.554   4.450  17.917  0.0577  0.1292 -0.1387
 3902TIP3    H135901   3.643   4.456  17.953  0.4503 -1.2810 -0.8042
 3902TIP3    H235902   3.566   4.458  17.822 -0.3746 -1.1747 -0.3255
 3903TIP3   OH235903   3.739   0.700  17.905 -0.5031  0.2667 -0.2541
 3903TIP3    H135904   3.723   0.606  17.913 -1.9198 -0.0010 -4.1870
 3903TIP3    H235905   3.834   0.708  17.916 -0.3565 -1.5963  0.2529
 3904TIP3   OH235906   2.901   6.646  18.925 -0.2587  0.3060  0.5369
 3904TIP3    H135907   2.903   6.741  18.936 -1.8338  0.8498 -2.6425
 3904TIP3    H235908   2.977   6.626  18.872 -1.1024  0.1520 -0.6426
 3905TIP3   OH235909   4.613   0.521  19.794  0.1295 -0.2186 -0.1480
 3905TIP3    H135910   4.662   0.440  19.812  0.4759  0.0931  0.3343
 3905TIP3    H235911   4.552   0.496  19.726  0.0109 -0.9810  0.2175
 3906TIP3   OH235912   6.795   0.325  17.773  0.2463 -0.6513  0.0780
 3906TIP3    H135913   6.738   0.390  17.733  0.2479 -1.0142 -0.5283
 3906TIP3    H235914   6.793   0.251  17.712  2.7597 -0.0195 -0.8746
 3907TIP3   OH235915   1.302   1.174  19.112  0.5482 -0.4824  0.4400
 3907TIP3    H135916   1.298   1.262  19.150  0.0665 -0.4091  0.2208
 3907TIP3    H235917   1.350   1.186  19.030 -0.5779 -0.2022 -0.1944
 3908TIP3   OH235918   0.726   7.584  18.977 -0.2155 -0.3237 -0.0619
 3908TIP3    H135919   0.700   7.504  18.931  0.6335  0.1523 -1.4134
 3908TIP3    H235920   0.651   7.604  19.033 -0.0253 -2.6714  1.1799
 3909TIP3   OH235921   5.662   7.525  18.514  0.3491 -0.1554 -0.6804
 3909TIP3    H135922   5.697   7.446  18.555 -1.0279 -1.1746 -1.3957
 3909TIP3    H235923   5.655   7.502  18.421  0.4013  0.9943 -0.9835
 3910TIP3   OH235924   3.717   6.415  18.848 -0.4873 -0.0625 -0.2301
 3910TIP3    H135925   3.716   6.441  18.940  0.1026 -0.7239 -0.0318
 3910TIP3    H235926   3.632   6.445  18.814 -1.1136 -0.6585  0.7628
 3911TIP3   OH235927   6.669   0.553  17.681  0.2643  0.3091 -0.3805
 3911TIP3    H135928   6.725   0.630  17.677  0.2206  0.7963  3.6696
 3911TIP3    H235929   6.592   0.582  17.730 -0.6747 -1.8137 -0.4970
 3912TIP3   OH235930   0.574   5.220  17.693  0.3481  0.0750 -0.3650
 3912TIP3    H135931   0.515   5.280  17.649  1.3490  1.4666  0.1108
 3912TIP3    H235932   0.584   5.257  17.781  0.7083 -0.9924  0.0562
 3913TIP3   OH235933   4.627   6.676  19.186  0.1772 -0.2130 -0.0920
 3913TIP3    H135934   4.547   6.729  19.185  1.5202  1.8834 -0.5764
 3913TIP3    H235935   4.609   6.609  19.252 -1.7457  0.5673  0.2544
 3914TIP3   OH235936   2.217   2.647  19.381  0.0855  0.2647 -0.3315
 3914TIP3    H135937   2.156   2.720  19.394  1.4791  1.6907 -1.4344
 3914TIP3    H235938   2.199   2.617  19.292 -0.9908 -1.2772  0.3741
 3915TIP3   OH235939   7.067   2.711  19.371  0.8815 -0.6017 -0.1908
 3915TIP3    H135940   7.102   2.798  19.389 -0.8095  0.1547 -0.4127
 3915TIP3    H235941   6.985   2.727  19.325  1.5156 -2.3445 -2.0842
 3916TIP3   OH235942   1.573   0.917  17.326  0.1639 -0.4391  0.5590
 3916TIP3    H135943   1.662   0.902  17.359  0.2457  1.9534  1.6466
 3916TIP3    H235944   1.584   0.974  17.251 -0.3588 -2.1378 -0.8814
 3917TIP3   OH235945   4.984   7.299  19.109  0.1248 -0.2933  0.1126
 3917TIP3    H135946   5.061   7.279  19.162 -0.4714 -1.0569  0.7147
 3917TIP3    H235947   4.916   7.241  19.143 -0.6176  0.1100 -0.6545
 3918TIP3   OH235948   7.531   0.061  18.163 -0.3210  0.0127 -0.0661
 3918TIP3    H135949   7.439   0.081  18.182 -0.5277 -0.6995 -0.2631
 3918TIP3    H235950   7.527  -0.013  18.103  0.3856 -0.3293  0.2942
 3919TIP3   OH235951   2.296   2.636  18.174  0.1641  0.3525 -0.4302
 3919TIP3    H135952   2.233   2.693  18.217  0.4518  0.3591 -0.0019
 3919TIP3    H235953   2.250   2.553  18.162  0.3195  0.1000  0.6096
 3920TIP3   OH235954   3.666   4.584  18.770  0.1130  0.0098  0.5281
 3920TIP3    H135955   3.686   4.496  18.741  0.0709  0.2913 -0.3657
 3920TIP3    H235956   3.672   4.579  18.866  0.7255 -0.8037  0.4582
 3921TIP3   OH235957   4.498   6.224  18.925  0.2971  0.0825  0.0621
 3921TIP3    H135958   4.565   6.158  18.909  0.9783  0.7330  0.1473
 3921TIP3    H235959   4.422   6.195  18.874 -0.0550 -1.6956  1.4953
 3922TIP3   OH235960   6.376   2.618  19.249  0.5322 -0.3105  0.2763
 3922TIP3    H135961   6.391   2.682  19.318 -0.4297 -0.7667  0.9325
 3922TIP3    H235962   6.387   2.667  19.167 -1.0559  0.9404  0.7486
 3923TIP3   OH235963   2.270   2.088  19.935 -0.6294 -0.0662  0.6557
 3923TIP3    H135964   2.337   2.077  20.002 -0.6329 -1.9565  0.4280
 3923TIP3    H235965   2.216   2.009  19.943 -0.6837 -0.3073 -1.4864
 3924TIP3   OH235966   0.016   3.860  17.948  0.2438  0.3396  0.0493
 3924TIP3    H135967  -0.078   3.866  17.963  0.0356  0.2853 -1.1539
 3924TIP3    H235968   0.039   3.770  17.974 -0.4664 -0.4104 -1.7712
 3925TIP3   OH235969   2.115   2.318  19.194 -0.4708  0.0510 -0.3860
 3925TIP3    H135970   2.097   2.325  19.288  0.0892 -1.4127 -0.1430
 3925TIP3    H235971   2.030   2.331  19.153 -0.5841  1.5506  0.2635
 3926TIP3   OH235972   2.393   7.547  19.435  0.3656  0.3840  0.5984
 3926TIP3    H135973   2.422   7.563  19.345  2.1364 -0.1660  1.0376
 3926TIP3    H235974   2.320   7.486  19.426  2.4464 -2.1588 -0.3920
 3927TIP3   OH235975   0.600   3.129  19.503  0.2699  0.2832  0.0976
 3927TIP3    H135976   0.628   3.214  19.471  3.1704  0.1562  1.9615
 3927TIP3    H235977   0.572   3.145  19.593  2.1974 -0.8656  0.9619
 3928TIP3   OH235978   3.754   2.382  18.407 -0.1813 -0.6448  0.1499
 3928TIP3    H135979   3.700   2.461  18.413 -1.3261 -1.3600 -0.4218
 3928TIP3    H235980   3.737   2.348  18.320  0.6542 -1.2866  0.2240
 3929TIP3   OH235981   2.360   7.191  20.066 -0.3862 -0.1298  0.3331
 3929TIP3    H135982   2.270   7.220  20.076 -0.5567 -0.5290  0.0029
 3929TIP3    H235983   2.413   7.258  20.109 -0.9562 -0.8908  2.3230
 3930TIP3   OH235984   7.383   2.505  17.629 -0.5621  0.1360  0.6647
 3930TIP3    H135985   7.369   2.491  17.535  1.8775  1.6862 -0.0322
 3930TIP3    H235986   7.471   2.472  17.645  0.0739  2.1787  1.8055
 3931TIP3   OH235987   6.433   0.647  18.325  0.0445  0.6125  0.3494
 3931TIP3    H135988   6.512   0.595  18.336  0.2088  0.3764 -1.5149
 3931TIP3    H235989   6.428   0.702  18.403  2.2775  0.9259  0.3172
 3932TIP3   OH235990   0.525   6.030  19.018  0.4270 -0.0170 -0.1549
 3932TIP3    H135991   0.540   6.046  18.925  1.2938 -0.4141 -0.0933
 3932TIP3    H235992   0.570   6.103  19.062  0.1640  0.0767 -0.0426
 3933TIP3   OH235993   0.239   0.221  19.067  0.3256  0.1692  0.1088
 3933TIP3    H135994   0.193   0.201  19.148 -0.0651  0.9647  0.0904
 3933TIP3    H235995   0.330   0.236  19.094  0.4096 -0.5698  0.2551
 3934TIP3   OH235996   0.891   4.944  16.854  0.2077  0.0247 -0.1140
 3934TIP3    H135997   0.969   4.942  16.911  0.4462  0.5488 -0.4191
 3934TIP3    H235998   0.858   4.854  16.856  1.3859 -0.4425 -0.7502
 3935TIP3   OH235999   3.173   2.554  18.235 -0.6371 -0.0842 -0.8103
 3935TIP3    H136000   3.109   2.620  18.208 -1.5685 -0.4985  0.3356
 3935TIP3    H236001   3.258   2.594  18.214 -1.1407  1.7814  0.4573
 3936TIP3   OH236002   0.057   0.185  18.884 -0.2497  0.4616  0.4240
 3936TIP3    H136003   0.117   0.179  18.957 -0.5656  0.7907  0.7120
 3936TIP3    H236004   0.111   0.214  18.810 -0.0375  0.6348  0.6497
 3937TIP3   OH236005   6.905   7.562  17.838  0.4841  0.3074 -0.3657
 3937TIP3    H136006   6.939   7.596  17.755 -2.1532  1.9533 -0.8897
 3937TIP3    H236007   6.836   7.502  17.813 -0.7765  1.3005  0.6111
 3938TIP3   OH236008   0.223   2.693  17.746  0.3114  0.1114 -0.1301
 3938TIP3    H136009   0.301   2.695  17.691 -0.7453  0.3657 -1.6803
 3938TIP3    H236010   0.204   2.600  17.757  0.8828  0.0458  0.3509
 3939TIP3   OH236011   0.678   3.010  18.542 -0.2436 -0.4035  0.8190
 3939TIP3    H136012   0.653   3.074  18.609 -0.0919 -1.4888  1.9347
 3939TIP3    H236013   0.658   2.925  18.581  0.6985 -1.0978 -0.1669
 3940TIP3   OH236014   2.308   6.780  17.701  0.3080 -0.3998  0.0625
 3940TIP3    H136015   2.264   6.812  17.780  1.0726  0.6059  0.0871
 3940TIP3    H236016   2.344   6.695  17.727  0.7651  0.0343  0.8802
 3941TIP3   OH236017   2.228   1.411  17.913 -0.1289  0.2195 -0.5959
 3941TIP3    H136018   2.278   1.444  17.839 -0.3693 -1.2479 -1.4520
 3941TIP3    H236019   2.163   1.352  17.874  1.0609 -2.2291  0.9069
 3942TIP3   OH236020   3.927   1.330  18.977  0.2518  0.4503 -0.6010
 3942TIP3    H136021   3.978   1.263  18.931 -0.0704 -0.3768  0.2135
 3942TIP3    H236022   3.838   1.318  18.946 -0.4834 -1.8213  1.9893
 3943TIP3   OH236023   2.604   0.143  18.014  0.0625 -0.2313 -0.1346
 3943TIP3    H136024   2.693   0.151  18.046 -0.1445  0.5407  0.2645
 3943TIP3    H236025   2.583   0.050  18.026  0.3694 -0.1757  0.9640
 3944TIP3   OH236026   2.488   3.911  19.471  0.0849 -0.0272  0.2653
 3944TIP3    H136027   2.494   3.943  19.381 -0.3398 -2.7455 -0.8294
 3944TIP3    H236028   2.394   3.910  19.490  0.0860 -0.6273  0.2608
 3945TIP3   OH236029   3.000   5.055  17.068  0.2125  0.5179 -0.1325
 3945TIP3    H136030   2.972   4.963  17.068 -1.5416  1.0174  0.3479
 3945TIP3    H236031   3.090   5.052  17.035  0.6653 -1.4984  1.0903
 3946TIP3   OH236032   0.390   4.190  18.279  0.4630 -0.4570 -0.0618
 3946TIP3    H136033   0.365   4.281  18.293  0.7915 -0.5181  1.0602
 3946TIP3    H236034   0.308   4.140  18.288  0.3919 -0.3296 -0.0043
 3947TIP3   OH236035   5.250   0.102  18.016 -0.1714 -0.7304  0.2387
 3947TIP3    H136036   5.243   0.078  18.108  2.5167  1.0175  1.0158
 3947TIP3    H236037   5.197   0.036  17.970  0.5526 -3.3044  2.7735
 3948TIP3   OH236038   4.067   3.133  17.990  0.3019  0.1574  0.2298
 3948TIP3    H136039   4.105   3.076  18.057 -1.4257  0.2902  1.3912
 3948TIP3    H236040   4.093   3.221  18.017 -0.0751  0.1815  0.5221
 3949TIP3   OH236041   4.044   5.022  18.209  0.2515  0.1294 -0.5327
 3949TIP3    H136042   4.023   4.974  18.129  1.2446 -0.0011 -0.7306
 3949TIP3    H236043   4.006   5.109  18.195 -0.4608 -0.2032 -0.7046
 3950TIP3   OH236044   3.640   6.204  19.422 -0.0668 -0.0580 -0.0770
 3950TIP3    H136045   3.702   6.188  19.494  0.9927 -0.9181 -1.1241
 3950TIP3    H236046   3.683   6.166  19.346 -1.4666  0.2385 -1.0445
 3951TIP3   OH236047   0.007   6.101  17.463 -0.3856  0.2208  0.3222
 3951TIP3    H136048  -0.005   6.031  17.398 -0.7382 -0.1875  0.8144
 3951TIP3    H236049   0.013   6.181  17.411 -2.7012  0.1649 -0.1591
 3952TIP3   OH236050   5.839   3.826  18.524  0.1644  0.2235  0.1612
 3952TIP3    H136051   5.837   3.873  18.441  3.5743  0.8476  0.3002
 3952TIP3    H236052   5.835   3.734  18.500 -1.6979  0.4199 -0.4381
 3953TIP3   OH236053   4.330   6.294  17.638 -0.0051  1.1225  0.1059
 3953TIP3    H136054   4.239   6.276  17.660  0.6236 -2.2438  0.5038
 3953TIP3    H236055   4.346   6.246  17.557  1.8425  0.0225  1.0378
 3954TIP3   OH236056   4.812   0.145  19.282  0.4510  0.2935  0.4081
 3954TIP3    H136057   4.764   0.101  19.353  1.7287  2.6044  2.8512
 3954TIP3    H236058   4.768   0.229  19.273  0.3211  0.0473 -1.6411
 3955TIP3   OH236059   1.125   5.779  20.141 -0.0997 -0.2270 -0.3528
 3955TIP3    H136060   1.141   5.816  20.054 -0.5228 -0.7779 -0.6739
 3955TIP3    H236061   1.057   5.835  20.179  0.3432  0.2338 -0.2241
 3956TIP3   OH236062   0.812   1.725  18.288 -0.5964 -0.4518  0.6562
 3956TIP3    H136063   0.766   1.788  18.232  0.2575  0.5078  1.0028
 3956TIP3    H236064   0.791   1.753  18.377  0.8789  0.2064  0.8273
 3957TIP3   OH236065   0.061   0.302  19.273 -0.6394 -0.0418 -0.5655
 3957TIP3    H136066   0.084   0.394  19.287 -0.6543 -0.2480  1.0471
 3957TIP3    H236067  -0.018   0.288  19.326 -1.1204 -0.7872 -1.4448
 3958TIP3   OH236068   7.574   7.315  17.125  0.8484  0.5125  0.0971
 3958TIP3    H136069   7.578   7.239  17.067  1.3722  1.2230 -0.8259
 3958TIP3    H236070   7.614   7.385  17.075 -0.6752  1.7021  0.4586
 3959TIP3   OH236071   7.627   4.499  19.252 -0.1148  0.1948 -0.1001
 3959TIP3    H136072   7.625   4.542  19.166  0.8917 -1.1638 -0.8339
 3959TIP3    H236073   7.634   4.406  19.232 -2.0273 -0.3395  1.4645
 3960TIP3   OH236074   1.751   0.024  19.226  0.1113  0.4831  0.8122
 3960TIP3    H136075   1.719   0.039  19.137  0.7403  0.2610  0.5425
 3960TIP3    H236076   1.846   0.026  19.218  0.1975 -0.5991  1.2827
 3961TIP3   OH236077   0.793   0.422  18.778 -0.4916 -0.0545  0.5736
 3961TIP3    H136078   0.863   0.460  18.724 -1.9536  2.9807  0.6154
 3961TIP3    H236079   0.760   0.349  18.726  3.1560 -2.2105  0.9372
 3962TIP3   OH236080   6.989   5.312  19.055 -0.3282 -0.1498 -0.9106
 3962TIP3    H136081   7.043   5.372  19.106 -1.7251  0.8250 -0.5358
 3962TIP3    H236082   7.026   5.315  18.967  0.7651 -0.1912 -0.4640
 3963TIP3   OH236083   4.590   6.089  17.738 -0.0092  0.2693  0.1466
 3963TIP3    H136084   4.554   6.040  17.664  1.5575 -0.5222 -0.1340
 3963TIP3    H236085   4.589   6.027  17.811 -1.0645  0.8850  0.6758
 3964TIP3   OH236086   6.032   4.452  18.033 -0.1360  0.2041 -0.2790
 3964TIP3    H136087   6.050   4.364  18.064  0.4627  0.3352 -0.2488
 3964TIP3    H236088   5.977   4.491  18.101  1.1637  0.4894  0.6400
 3965TIP3   OH236089   7.473   5.927  19.038  0.1477  0.0946  0.2074
 3965TIP3    H136090   7.553   5.979  19.030 -0.0299  0.3136 -0.1710
 3965TIP3    H236091   7.451   5.903  18.948  0.5085 -1.0764  0.4117
 3966TIP3   OH236092   5.982   3.111  16.852 -0.4784 -0.4641  0.2173
 3966TIP3    H136093   5.990   3.024  16.891 -1.1763  0.3335  2.2590
 3966TIP3    H236094   6.059   3.120  16.796  1.0993 -1.3557  2.1483
 3967TIP3   OH236095   3.149   4.373  18.014  0.1288 -0.1299 -0.1009
 3967TIP3    H136096   3.090   4.404  17.945 -1.2411 -0.3440  0.9221
 3967TIP3    H236097   3.140   4.277  18.011 -1.1923 -0.0810  1.3897
 3968TIP3   OH236098   7.371   5.947  17.710  0.2462 -0.3585 -0.0293
 3968TIP3    H136099   7.410   5.900  17.636 -0.5527  0.5716 -1.0627
 3968TIP3    H236100   7.288   5.901  17.726 -1.4511  1.6902 -2.2465
 3969TIP3   OH236101   6.066   2.305  17.758 -0.6155  0.6697  0.6251
 3969TIP3    H136102   5.972   2.292  17.746 -0.2320 -1.2254 -0.9037
 3969TIP3    H236103   6.092   2.235  17.818 -0.0897  0.7466  0.4879
 3970TIP3   OH236104   6.954   1.350  19.865  0.2189 -0.6622  0.7377
 3970TIP3    H136105   7.014   1.405  19.814 -0.0703 -0.5416  0.5282
 3970TIP3    H236106   6.937   1.274  19.809 -2.0749  0.6234 -0.4379
 3971TIP3   OH236107   2.764   4.273  19.586  0.3373  0.0590 -0.0606
 3971TIP3    H136108   2.753   4.193  19.639  2.3126 -0.1834  0.0459
 3971TIP3    H236109   2.767   4.242  19.496  1.8502 -0.1102  0.0251
 3972TIP3   OH236110   4.901   7.235  19.465 -0.3889  0.3630  0.2673
 3972TIP3    H136111   4.974   7.226  19.527 -0.1776 -1.3778 -0.1782
 3972TIP3    H236112   4.878   7.328  19.468 -0.5503  0.3351  3.1473
 3973TIP3   OH236113   6.551   6.034  17.906 -0.4346  0.4160  0.1940
 3973TIP3    H136114   6.489   6.106  17.896 -0.0174  0.5914 -1.2426
 3973TIP3    H236115   6.502   5.968  17.955 -2.5987 -0.4044 -2.8128
 3974TIP3   OH236116   2.971   4.465  19.233 -0.2799  0.2244 -0.0136
 3974TIP3    H136117   3.003   4.379  19.263 -0.5170 -0.3024 -1.2025
 3974TIP3    H236118   2.890   4.478  19.282 -1.3647 -1.2385 -1.2847
 3975TIP3   OH236119   2.367   1.700  19.493 -0.0908  0.2270 -0.7785
 3975TIP3    H136120   2.413   1.657  19.420 -0.8679  0.5756 -1.4882
 3975TIP3    H236121   2.367   1.793  19.470  1.2304  0.5988  0.5589
 3976TIP3   OH236122   6.590   1.577  19.384  0.2264 -0.0132  0.0498
 3976TIP3    H136123   6.553   1.496  19.348  0.0125 -0.0003  0.2363
 3976TIP3    H236124   6.514   1.623  19.420  0.4820 -0.1828  0.8176
 3977TIP3   OH236125   2.775   6.393  17.836  0.5035  0.2058 -0.2783
 3977TIP3    H136126   2.718   6.335  17.786 -0.4414  1.0025 -0.1626
 3977TIP3    H236127   2.857   6.395  17.787  0.3673 -0.7806 -0.5715
 3978TIP3   OH236128   0.515   5.743  18.645 -0.7257  0.4789  0.6295
 3978TIP3    H136129   0.608   5.723  18.632 -0.7413  0.2649  0.8413
 3978TIP3    H236130   0.510   5.838  18.636 -0.5118  0.4782  0.4646
 3979TIP3   OH236131   5.728   0.674  17.133  0.2308  0.3293  0.4848
 3979TIP3    H136132   5.737   0.760  17.175  0.7338 -0.7633  2.7028
 3979TIP3    H236133   5.810   0.630  17.151 -0.5070 -1.0906  0.4636
 3980TIP3   OH236134   4.623   0.390  17.711 -0.2919 -0.4993  0.0306
 3980TIP3    H136135   4.642   0.346  17.794 -1.4222 -0.3363  0.4032
 3980TIP3    H236136   4.530   0.373  17.696 -0.3322  0.2925 -0.7077
 3981TIP3   OH236137   4.911   1.329  18.636  0.4276 -0.2996 -0.3737
 3981TIP3    H136138   4.882   1.416  18.661  0.6742  0.1376 -1.5844
 3981TIP3    H236139   4.846   1.270  18.675  1.4010  0.2330  2.2645
 3982TIP3   OH236140   5.540   6.304  18.511  0.4103 -0.2408  0.3024
 3982TIP3    H136141   5.565   6.212  18.511  2.2357  0.2120  1.1508
 3982TIP3    H236142   5.484   6.314  18.434 -0.3965 -2.1868  0.5810
 3983TIP3   OH236143   4.669   0.665  17.684  0.1771 -0.4642  0.3326
 3983TIP3    H136144   4.676   0.575  17.715  0.2122  0.3544  2.9533
 3983TIP3    H236145   4.759   0.698  17.687  0.2773 -0.4852 -1.2883
 3984TIP3   OH236146   0.834   1.627  19.549 -0.2709  0.4586 -0.0435
 3984TIP3    H136147   0.903   1.659  19.490  0.8279 -0.6608  0.5852
 3984TIP3    H236148   0.765   1.596  19.490 -0.7076  2.4710 -0.6779
 3985TIP3   OH236149   7.320   2.177  19.242  0.0452 -0.5137 -0.0709
 3985TIP3    H136150   7.283   2.194  19.155  0.0387  3.2065  0.4716
 3985TIP3    H236151   7.243   2.169  19.299  0.0661 -1.0321 -0.1111
 3986TIP3   OH236152   3.946   5.877  18.131  0.0910 -0.0690  0.0307
 3986TIP3    H136153   3.957   5.807  18.196  1.0636 -0.9487 -1.0392
 3986TIP3    H236154   3.869   5.925  18.161  1.0890  0.1960  2.4097
 3987TIP3   OH236155   3.294   4.791  17.815 -0.0895  0.3793 -0.0634
 3987TIP3    H136156   3.343   4.869  17.842  4.5591 -2.3677  0.5580
 3987TIP3    H236157   3.262   4.753  17.897 -1.2543  0.8815 -0.2568
 3988TIP3   OH236158   1.175   0.638  19.023 -0.2337 -0.0114 -0.2096
 3988TIP3    H136159   1.197   0.612  18.933  1.8594  0.5275  0.1184
 3988TIP3    H236160   1.175   0.734  19.021  0.1395  0.0039  0.4440
 3989TIP3   OH236161   0.010   4.287  18.197  0.6402  0.8218  0.3816
 3989TIP3    H136162   0.003   4.349  18.270  1.0803  0.8406  0.4104
 3989TIP3    H236163   0.032   4.204  18.239  0.5997  0.7679  0.2962
 3990TIP3   OH236164   7.484   7.095  19.648  0.1783 -0.3527  0.3259
 3990TIP3    H136165   7.488   7.161  19.718  0.1159 -2.1262  2.0841
 3990TIP3    H236166   7.556   7.035  19.666 -0.2165 -1.2074 -0.7827
 3991TIP3   OH236167   0.461   2.502  18.724  0.0989 -0.4207  0.0813
 3991TIP3    H136168   0.492   2.473  18.638 -0.3059 -1.7282  0.3534
 3991TIP3    H236169   0.507   2.447  18.787  0.1558  0.3100  0.6983
 3992TIP3   OH236170   6.611   0.048  17.957  0.4570 -0.1910  0.9099
 3992TIP3    H136171   6.579  -0.032  17.916 -0.3883  0.9998 -0.9348
 3992TIP3    H236172   6.698   0.061  17.920  0.5940 -0.2565  1.2083
 3993TIP3   OH236173   5.857   0.047  18.568  0.0452 -0.0367 -0.0925
 3993TIP3    H136174   5.925   0.006  18.621 -0.2005 -0.0490  0.2133
 3993TIP3    H236175   5.781  -0.011  18.577 -0.0358  0.0283 -0.3539
 3994TIP3   OH236176   6.828   6.182  18.176 -0.3486 -0.2629 -0.1983
 3994TIP3    H136177   6.831   6.086  18.175  0.0076 -0.2677  0.6665
 3994TIP3    H236178   6.871   6.206  18.258  0.1142  0.6647 -0.7095
 3995TIP3   OH236179   0.786   6.908  18.328 -0.6325  0.2482 -0.1711
 3995TIP3    H136180   0.846   6.955  18.270  0.6558 -0.3419  0.6296
 3995TIP3    H236181   0.843   6.850  18.379 -1.7274  0.6664  1.6100
 3996TIP3   OH236182   7.564   6.908  18.942  0.0058  0.1401  0.4155
 3996TIP3    H136183   7.525   6.859  18.871 -0.7694  1.9821 -0.4915
 3996TIP3    H236184   7.626   6.967  18.899  2.1437 -1.0980  1.6195
 3997TIP3   OH236185   4.960   5.355  19.246  0.2046  0.0401  0.0010
 3997TIP3    H136186   5.003   5.330  19.328 -0.6886  0.8654  0.7371
 3997TIP3    H236187   4.946   5.272  19.200  1.1468 -0.3870  0.4576
 3998TIP3   OH236188   3.390   5.191  18.565 -0.0540 -0.2890 -0.1206
 3998TIP3    H136189   3.437   5.248  18.627  1.4519 -0.4159 -1.0856
 3998TIP3    H236190   3.376   5.246  18.488  0.7844 -0.9727 -0.7890
 3999TIP3   OH236191   0.018   1.710  17.439  0.0095 -0.2074 -0.3689
 3999TIP3    H136192  -0.043   1.712  17.366  1.4415  1.1021 -1.5940
 3999TIP3    H236193   0.053   1.620  17.439  1.4157  0.2734 -2.5875
 4000TIP3   OH236194   4.887   0.609  19.349  0.1130  0.1950 -0.1332
 4000TIP3    H136195   4.975   0.585  19.378  0.1409 -0.3170 -0.6237
 4000TIP3    H236196   4.865   0.687  19.400  1.4157  1.1707 -1.0256
 4001TIP3   OH236197   7.257   2.435  17.866  0.8122  0.3066  0.3279
 4001TIP3    H136198   7.282   2.466  17.779  0.4485 -0.2821  0.0046
 4001TIP3    H236199   7.230   2.344  17.852  1.2165  0.0528  1.1350
 4002TIP3   OH236200   5.147   5.953  17.336  0.7432 -0.4223  0.1541
 4002TIP3    H136201   5.214   5.885  17.333  1.2347  0.0882 -1.3923
 4002TIP3    H236202   5.189   6.029  17.296 -0.9750 -0.2845 -1.5354
 4003TIP3   OH236203   5.738   0.271  17.511  0.4497 -0.0938  0.3585
 4003TIP3    H136204   5.646   0.268  17.484  0.2452  1.0011  0.8828
 4003TIP3    H236205   5.750   0.190  17.561 -0.3521 -0.0533  0.6339
 4004TIP3   OH236206   0.502   5.076  19.391 -0.7563 -0.1818 -0.3271
 4004TIP3    H136207   0.521   5.095  19.299  0.2188 -0.0095 -0.1053
 4004TIP3    H236208   0.429   5.134  19.412  0.2082  1.1591 -0.5049
 4005TIP3   OH236209   0.716   3.247  18.210  0.1796  0.3687  0.2070
 4005TIP3    H136210   0.796   3.283  18.172  0.5987 -0.7246  0.0219
 4005TIP3    H236211   0.681   3.189  18.142 -0.8039  0.8814  0.2661
 4006TIP3   OH236212   0.426   7.300  18.204 -0.2973 -0.0891  0.0448
 4006TIP3    H136213   0.402   7.368  18.142  2.6848  0.3664 -0.7629
 4006TIP3    H236214   0.412   7.340  18.290 -2.5003 -0.0061 -0.2917
 4007TIP3   OH236215   5.501   2.500  19.432 -0.1388 -0.4761  0.1070
 4007TIP3    H136216   5.428   2.526  19.375  1.7828 -0.9466 -2.7789
 4007TIP3    H236217   5.572   2.479  19.372  1.4591 -3.0684  2.6308
 4008TIP3   OH236218   4.118   6.761  18.514  0.2319  0.2854 -0.6742
 4008TIP3    H136219   4.181   6.735  18.447  0.5833  1.1058 -0.6757
 4008TIP3    H236220   4.167   6.758  18.596  0.5292  1.7022 -0.7691
 4009TIP3   OH236221   2.631   7.636  19.871  0.8298 -0.5430  0.0759
 4009TIP3    H136222   2.663   7.578  19.940  1.5506  0.8646  0.9770
 4009TIP3    H236223   2.542   7.606  19.853  0.1614 -0.2291  2.4810
 4010TIP3   OH236224   3.506   1.775  17.512 -0.2660  0.3207  0.5472
 4010TIP3    H136225   3.442   1.721  17.559 -1.0043 -0.3164 -1.0954
 4010TIP3    H236226   3.488   1.758  17.420  1.4247  1.1569  0.0162
 4011TIP3   OH236227   6.940   2.209  17.694 -0.3693  0.5820 -0.2945
 4011TIP3    H136228   6.845   2.205  17.680 -0.1639  1.3499 -2.0980
 4011TIP3    H236229   6.949   2.250  17.780 -1.6704 -0.8305  0.5632
 4012TIP3   OH236230   5.063   6.990  17.499 -0.2320 -0.4766  0.1540
 4012TIP3    H136231   5.013   7.051  17.553  2.5727 -0.5464  3.0730
 4012TIP3    H236232   5.092   7.043  17.424  2.1030  1.9730  2.5810
 4013TIP3   OH236233   6.285   5.919  17.162  0.0265 -0.0069 -0.1923
 4013TIP3    H136234   6.189   5.917  17.158  0.0481 -1.7528 -0.4615
 4013TIP3    H236235   6.311   5.828  17.153  1.7288  0.4432 -0.0687
 4014TIP3   OH236236   4.213   0.265  17.337 -0.3498 -0.3545  0.0283
 4014TIP3    H136237   4.244   0.182  17.374  0.5264 -0.3993 -0.7588
 4014TIP3    H236238   4.207   0.248  17.243  3.9106  1.5626 -0.8428
 4015TIP3   OH236239   2.051   6.833  18.823  0.0828 -0.3674  0.2439
 4015TIP3    H136240   2.067   6.845  18.730 -1.2049 -1.3131 -0.1417
 4015TIP3    H236241   1.990   6.903  18.847 -0.1638 -0.5589  0.1877
 4016TIP3   OH236242   5.833   3.840  16.611  0.2862  0.0395  0.2743
 4016TIP3    H136243   5.817   3.748  16.588  0.0732  0.1208  0.0906
 4016TIP3    H236244   5.920   3.840  16.651  0.6683 -0.0984 -0.5409
 4017TIP3   OH236245   6.020   4.232  18.412 -0.4564  0.4611 -0.0237
 4017TIP3    H136246   6.032   4.213  18.505  0.8489  1.2971  0.0069
 4017TIP3    H236247   5.989   4.323  18.409 -1.9708 -0.0384 -0.3602
 4018TIP3   OH236248   4.739   5.667  18.393  0.1540 -0.1164 -0.2581
 4018TIP3    H136249   4.653   5.705  18.414  0.2932 -0.0936  0.2754
 4018TIP3    H236250   4.719   5.590  18.340 -0.2109 -0.2513  0.0693
 4019TIP3   OH236251   1.188   1.782  19.604 -0.2821 -0.0823  0.0303
 4019TIP3    H136252   1.275   1.790  19.564 -0.1045  0.0040  0.4219
 4019TIP3    H236253   1.130   1.760  19.532 -0.1903  1.3194 -0.5095
 4020TIP3   OH236254   0.869   0.520  17.765 -0.8548  0.4966  0.1004
 4020TIP3    H136255   0.925   0.448  17.736 -1.0379 -0.1196  1.2217
 4020TIP3    H236256   0.927   0.596  17.766 -0.7589  0.4627 -1.4917
 4021TIP3   OH236257   0.931   7.301  16.954 -0.3432  0.0267  0.0860
 4021TIP3    H136258   0.889   7.386  16.969 -1.5241 -0.7957  1.7729
 4021TIP3    H236259   0.860   7.238  16.959  0.5630 -1.1160 -0.8387
 4022TIP3   OH236260   5.308   0.359  18.559  0.1074  0.6329  0.0674
 4022TIP3    H136261   5.373   0.380  18.626  0.5472  0.3478 -0.2602
 4022TIP3    H236262   5.254   0.290  18.599  2.0742 -1.5798 -0.8102
 4023TIP3   OH236263   4.632   5.318  18.680  0.3689  0.2509  0.1292
 4023TIP3    H136264   4.547   5.326  18.638 -0.1030 -0.0023  1.0136
 4023TIP3    H236265   4.686   5.270  18.617 -1.7521 -4.7713  1.6591
 4024TIP3   OH236266   4.659   0.763  18.676 -0.1259 -0.1130  0.3619
 4024TIP3    H136267   4.669   0.709  18.598  1.9254 -0.4979  0.8331
 4024TIP3    H236268   4.564   0.775  18.685 -0.4436 -0.5544 -1.8230
 4025TIP3   OH236269   2.451   6.060  18.307  0.3418 -0.3844 -0.6725
 4025TIP3    H136270   2.363   6.059  18.344  1.0272 -2.5132  1.1127
 4025TIP3    H236271   2.465   5.970  18.275  1.4581  0.2300 -2.0404
 4026TIP3   OH236272   6.981   2.474  19.489  0.2199 -0.4099 -0.5556
 4026TIP3    H136273   6.922   2.412  19.446 -0.4956 -1.4512  1.7487
 4026TIP3    H236274   6.989   2.547  19.427 -2.5698 -0.7558 -1.4722
 4027TIP3   OH236275   7.185   1.685  17.828 -0.3205 -0.1425 -0.6022
 4027TIP3    H136276   7.258   1.658  17.773 -1.0051 -2.4946 -0.4804
 4027TIP3    H236277   7.156   1.768  17.791  1.2112 -0.1057 -1.8110
 4028TIP3   OH236278   0.709   4.783  17.768  0.2413 -0.0481 -0.3575
 4028TIP3    H136279   0.693   4.857  17.710  0.0861  0.0110 -0.2398
 4028TIP3    H236280   0.804   4.778  17.777  0.2312  2.2225  2.3181
 4029TIP3   OH236281   6.145   3.121  18.968  0.2032 -0.1659  0.2950
 4029TIP3    H136282   6.072   3.166  18.927 -1.2506 -1.1755  1.6460
 4029TIP3    H236283   6.204   3.100  18.896 -0.6207  1.0664 -0.7675
 4030TIP3   OH236284   3.313   6.325  18.517 -0.8417 -0.7143 -0.3187
 4030TIP3    H136285   3.342   6.333  18.608 -2.9084 -1.2321  0.4619
 4030TIP3    H236286   3.304   6.415  18.486  0.2013 -0.5394 -0.1312
 4031TIP3   OH236287   4.415   3.797  16.880 -0.3584  0.1033 -0.5904
 4031TIP3    H136288   4.383   3.882  16.850 -1.4265 -0.1739 -0.2872
 4031TIP3    H236289   4.388   3.736  16.811  1.2998  0.1374 -1.3076
 4032TIP3   OH236290   1.314   6.433  19.591 -0.8316 -0.4033 -0.5945
 4032TIP3    H136291   1.249   6.429  19.522  0.4861  1.2526 -2.0162
 4032TIP3    H236292   1.378   6.497  19.561  0.1029 -0.0202  1.9123
 4033TIP3   OH236293   7.164   0.953  19.007 -0.3355 -0.4499 -0.2600
 4033TIP3    H136294   7.240   0.913  19.050 -0.6518 -0.7743  0.0024
 4033TIP3    H236295   7.092   0.894  19.027 -0.6016 -0.2932 -0.7528
 4034TIP3   OH236296   6.460   3.416  17.565 -0.1760 -0.2907  0.1449
 4034TIP3    H136297   6.400   3.482  17.530 -1.6280  0.1177  3.0964
 4034TIP3    H236298   6.543   3.434  17.522 -0.9919  2.2898 -0.5347
 4035TIP3   OH236299   5.536   0.695  19.416 -0.2061  0.2701 -0.0273
 4035TIP3    H136300   5.601   0.734  19.357 -0.5211  0.0645 -0.5124
 4035TIP3    H236301   5.455   0.744  19.397  0.4495  2.6979  2.7420
 4036TIP3   OH236302   1.972   7.445  17.628  0.5168  0.4563 -0.0121
 4036TIP3    H136303   2.049   7.471  17.578  0.1878  2.9832  0.6413
 4036TIP3    H236304   1.950   7.522  17.681 -1.2316 -0.8921  1.3797
 4037TIP3   OH236305   0.658   5.483  17.956 -0.6198  0.1136 -0.5701
 4037TIP3    H136306   0.613   5.563  17.926  0.8797  0.6471 -1.5101
 4037TIP3    H236307   0.594   5.440  18.013 -1.5169  1.9120 -0.1354
 4038TIP3   OH236308   5.955   3.191  19.274  0.3305  0.1842 -0.6319
 4038TIP3    H136309   6.028   3.207  19.334  0.3956 -0.0785 -0.6411
 4038TIP3    H236310   5.944   3.096  19.274  1.0866  0.0736 -1.9349
 4039TIP3   OH236311   7.135   5.335  17.552 -0.5256  0.1376 -0.2486
 4039TIP3    H136312   7.137   5.337  17.647  1.6815 -1.1025 -0.1971
 4039TIP3    H236313   7.147   5.426  17.525  0.1727  0.3381  0.6917
 4040TIP3   OH236314   2.209   6.860  19.062 -0.3845 -0.4817  0.2220
 4040TIP3    H136315   2.152   6.858  18.985 -0.6528 -0.0098  0.4048
 4040TIP3    H236316   2.168   6.798  19.123 -1.4107  0.7315  0.8276
 4041TIP3   OH236317   6.675   4.184  17.835 -0.3835 -0.0635  0.1300
 4041TIP3    H136318   6.649   4.241  17.908  1.8682 -0.2073  1.1338
 4041TIP3    H236319   6.618   4.210  17.763 -0.9459  1.9121  1.2050
 4042TIP3   OH236320   5.239   6.726  18.303  0.3987 -0.1447 -0.4934
 4042TIP3    H136321   5.160   6.713  18.355  0.2610 -1.8346 -1.0451
 4042TIP3    H236322   5.218   6.689  18.217  1.2402  0.8915 -1.1733
 4043TIP3   OH236323   6.107   1.613  18.434  0.9201 -0.3264  0.5184
 4043TIP3    H136324   6.148   1.607  18.520  2.2066  0.3618 -0.0266
 4043TIP3    H236325   6.013   1.606  18.452  1.2487 -2.0070  1.7834
 4044TIP3   OH236326   1.343   1.723  17.302 -0.2561  0.3611 -0.4022
 4044TIP3    H136327   1.424   1.699  17.348 -0.2488 -0.4630 -0.8380
 4044TIP3    H236328   1.303   1.640  17.278 -0.8135  0.7746 -0.9290
 4045TIP3   OH236329   1.207   4.595  17.405 -0.3802 -0.4089  0.5420
 4045TIP3    H136330   1.120   4.560  17.383 -0.3871  0.0423 -0.1917
 4045TIP3    H236331   1.255   4.592  17.322  0.1644 -0.2503  0.8492
 4046TIP3   OH236332   2.720   4.130  19.317  0.5272 -0.3086  0.4655
 4046TIP3    H136333   2.718   4.165  19.228 -0.3252 -0.6007  0.3571
 4046TIP3    H236334   2.636   4.086  19.327  1.4444 -2.0914  0.6951
 4047TIP3   OH236335   0.751   7.270  19.675 -0.4622 -0.0872  0.5509
 4047TIP3    H136336   0.766   7.180  19.647  0.6126  0.5181 -0.9355
 4047TIP3    H236337   0.838   7.302  19.699 -0.6615  0.8687  0.0379
 4048TIP3   OH236338   2.899   4.223  19.005 -0.4031 -0.1738 -0.2725
 4048TIP3    H136339   2.945   4.148  19.041 -0.1669  0.1793  0.1657
 4048TIP3    H236340   2.968   4.282  18.975 -0.5442  0.5410  0.7598
 4049TIP3   OH236341   4.817   5.306  18.376 -0.0699 -0.3102  0.7410
 4049TIP3    H136342   4.783   5.371  18.314  0.3962  0.2003  1.0160
 4049TIP3    H236343   4.826   5.226  18.324  0.0116  0.0270  0.2303
 4050TIP3   OH236344   3.932   1.428  18.208 -0.5151  0.0385  0.1812
 4050TIP3    H136345   3.980   1.396  18.284 -0.7270 -1.1179 -0.1508
 4050TIP3    H236346   3.977   1.390  18.133  0.3802  2.0787 -0.3669
 4051TIP3   OH236347   1.103   1.156  18.451 -0.4172  0.1704  0.0420
 4051TIP3    H136348   1.149   1.167  18.534 -0.0721 -0.5520 -0.0449
 4051TIP3    H236349   1.105   1.242  18.410  1.1320  0.0751 -0.1078
 4052TIP3   OH236350   5.206   6.083  17.858  0.5755 -0.4877 -0.2629
 4052TIP3    H136351   5.129   6.131  17.889  2.2302  0.4321  2.9490
 4052TIP3    H236352   5.232   6.127  17.778 -0.0315  1.7257  0.6824
 4053TIP3   OH236353   1.602   2.443  18.705  0.0026  1.0874 -1.1146
 4053TIP3    H136354   1.568   2.532  18.709 -2.9896  0.0335 -0.5384
 4053TIP3    H236355   1.555   2.403  18.631  0.1474 -0.4127 -0.4337
 4054TIP3   OH236356   2.200   0.019  18.673  0.0460  0.7446 -0.3924
 4054TIP3    H136357   2.124  -0.003  18.619  0.6785  1.8866 -1.8096
 4054TIP3    H236358   2.275   0.004  18.616  0.9588 -0.6120  1.0676
 4055TIP3   OH236359   6.479   5.080  19.247  0.7827 -0.0834 -0.6246
 4055TIP3    H136360   6.420   5.047  19.315  1.6798  1.2259  0.8312
 4055TIP3    H236361   6.452   5.033  19.168  0.9796 -3.1159  0.9812
 4056TIP3   OH236362   4.792   0.669  17.077  0.3013 -0.4479 -0.1135
 4056TIP3    H136363   4.858   0.727  17.039  0.2706 -0.5897 -0.3868
 4056TIP3    H236364   4.808   0.584  17.036 -1.0042 -0.1424 -1.3367
 4057TIP3   OH236365   1.135   6.900  18.014  0.2913  0.2674  0.1448
 4057TIP3    H136366   1.158   6.824  18.067  1.6160 -0.6141 -1.5686
 4057TIP3    H236367   1.042   6.890  17.995  0.6715 -1.5959 -0.9729
 4058TIP3   OH236368   4.419   1.967  17.910  0.4316 -0.4047 -0.5852
 4058TIP3    H136369   4.375   1.956  17.994 -0.0272  0.8379 -0.6353
 4058TIP3    H236370   4.480   2.039  17.924 -0.1004  0.2471 -1.4633
 4059TIP3   OH236371   1.799   5.069  17.372  0.2889 -0.9186 -0.1984
 4059TIP3    H136372   1.727   5.128  17.350  1.9351  1.3250  0.1245
 4059TIP3    H236373   1.774   5.029  17.455 -0.7265 -0.4238 -0.2577
 4060TIP3   OH236374   6.096   0.635  18.608 -0.1247 -0.9399  0.2540
 4060TIP3    H136375   6.033   0.589  18.663  1.1339 -0.8322  1.8589
 4060TIP3    H236376   6.109   0.577  18.533 -1.0986 -1.5930  0.5710
 4061TIP3   OH236377   3.668   5.855  19.117 -0.1834  0.6137 -0.4793
 4061TIP3    H136378   3.713   5.836  19.035 -0.5604  0.6297 -0.6909
 4061TIP3    H236379   3.594   5.794  19.119  1.2545 -1.2012  1.0601
 4062TIP3   OH236380   7.121   5.888  19.454  0.7055  0.2190  0.7001
 4062TIP3    H136381   7.075   5.952  19.509 -0.6087  0.6412 -0.7892
 4062TIP3    H236382   7.073   5.806  19.467  0.4468  0.2995  0.2726
 4063TIP3   OH236383   6.041   2.044  18.929 -0.0298 -0.2224  0.1732
 4063TIP3    H136384   5.946   2.041  18.935 -0.2890  2.2626 -1.4620
 4063TIP3    H236385   6.060   2.013  18.840  0.7598 -1.0701  0.6155
 4064TIP3   OH236386   2.610   6.899  19.908 -0.8143  0.8379 -0.1832
 4064TIP3    H136387   2.593   6.915  20.001  1.2241  0.8379  0.2323
 4064TIP3    H236388   2.674   6.966  19.884 -1.9358  1.3904 -1.8525
 4065TIP3   OH236389   3.390   5.289  17.827  0.6273  0.2956  0.1767
 4065TIP3    H136390   3.455   5.230  17.788  0.4237  0.5084 -0.4990
 4065TIP3    H236391   3.359   5.343  17.754 -0.5261  0.0033  0.4335
 4066TIP3   OH236392   2.016   6.328  18.780  0.5429 -0.0084  0.5208
 4066TIP3    H136393   1.987   6.410  18.821 -0.9037  0.1113 -0.6349
 4066TIP3    H236394   1.990   6.337  18.688  1.7243 -1.1529  0.0479
 4067TIP3   OH236395   7.351   5.349  19.401 -0.3284 -0.0182 -0.0962
 4067TIP3    H136396   7.275   5.340  19.459  0.0517 -0.8122  0.2922
 4067TIP3    H236397   7.322   5.313  19.317 -0.3756 -0.3373  0.0567
 4068TIP3   OH236398   6.479   1.464  18.498  0.5003 -0.3246  0.1623
 4068TIP3    H136399   6.483   1.393  18.434 -1.7768 -0.8854  0.5542
 4068TIP3    H236400   6.505   1.423  18.580 -0.3919 -0.6275  0.3063
 4069TIP3   OH236401   3.286   1.102  19.216 -0.3327 -0.1073  0.4529
 4069TIP3    H136402   3.295   1.153  19.135  0.7788  0.6091  1.0044
 4069TIP3    H236403   3.213   1.143  19.262 -0.5135 -0.0696  0.1335
 4070TIP3   OH236404   2.629   5.242  16.972 -0.3539  0.0618  0.0959
 4070TIP3    H136405   2.550   5.191  16.955  0.0717 -1.3740  2.0675
 4070TIP3    H236406   2.681   5.187  17.030  1.4659  1.5694 -0.0104
 4071TIP3   OH236407   2.030   0.895  18.709  0.1911  0.0192 -0.0357
 4071TIP3    H136408   2.117   0.889  18.749 -0.0203  1.9638  0.8778
 4071TIP3    H236409   2.047   0.920  18.618  0.5924 -0.5563 -0.1240
 4072TIP3   OH236410   2.665   5.955  16.833 -1.0621 -0.0433  0.6658
 4072TIP3    H136411   2.675   5.981  16.742  0.1035  1.5845  1.2109
 4072TIP3    H236412   2.626   5.868  16.829  0.3351 -0.6468 -1.4128
 4073TIP3   OH236413   5.655   6.790  17.465  0.4903 -0.1129  0.1498
 4073TIP3    H136414   5.610   6.868  17.432  0.1965 -0.0920  0.5911
 4073TIP3    H236415   5.748   6.811  17.456  0.4329 -0.3786 -1.3003
 4074TIP3   OH236416   5.821   1.601  18.490 -0.2246  0.2046 -0.1557
 4074TIP3    H136417   5.775   1.523  18.459 -0.7591 -0.2043  1.5633
 4074TIP3    H236418   5.780   1.674  18.442 -0.8588 -0.4034 -0.5518
 4075TIP3   OH236419   4.736   3.014  17.985 -0.0907 -0.2113 -0.5181
 4075TIP3    H136420   4.808   3.060  18.027 -0.0927 -0.2026 -0.5242
 4075TIP3    H236421   4.671   3.002  18.055 -0.2933  0.2198 -0.6297
 4076TIP3   OH236422   4.532   4.338  17.622 -0.1774  0.5518  0.4236
 4076TIP3    H136423   4.533   4.326  17.527 -1.7009  1.0381  0.3197
 4076TIP3    H236424   4.469   4.273  17.653  2.4620 -1.6800  1.4724
 4077TIP3   OH236425   5.914   3.787  18.095 -0.0622 -0.3027 -0.1602
 4077TIP3    H136426   5.965   3.732  18.155 -1.9795 -0.9299  0.9961
 4077TIP3    H236427   5.916   3.874  18.134 -2.3938 -0.9633  1.7077
 4078TIP3   OH236428   0.942   2.177  19.342 -0.1851 -0.2820  0.1987
 4078TIP3    H136429   0.972   2.197  19.253 -2.7091 -0.9833 -0.8831
 4078TIP3    H236430   0.912   2.261  19.377 -0.8423 -0.3031 -0.3045
 4079TIP3   OH236431   4.288   2.261  16.755  0.0656  0.2519 -0.3186
 4079TIP3    H136432   4.346   2.186  16.744  1.0513  1.0099 -0.5352
 4079TIP3    H236433   4.209   2.225  16.794  0.7253 -0.8141  0.0889
 4080TIP3   OH236434   1.344   6.724  18.810  0.1872  0.5399  0.4328
 4080TIP3    H136435   1.297   6.790  18.862  1.8035  1.5057  0.7309
 4080TIP3    H236436   1.410   6.774  18.762  1.0751 -0.7911  0.2228
 4081TIP3   OH236437   7.560   3.780  16.921 -0.9002 -0.1520  0.4411
 4081TIP3    H136438   7.583   3.866  16.885 -1.6588  0.1931  0.7603
 4081TIP3    H236439   7.507   3.739  16.853  1.9265 -1.6530 -1.0400
 4082TIP3   OH236440   0.669   5.418  18.719  0.2765 -0.4517 -0.1550
 4082TIP3    H136441   0.724   5.487  18.682  0.2108 -0.3910 -0.1377
 4082TIP3    H236442   0.611   5.463  18.780  1.3060 -0.7274  1.0638
 4083TIP3   OH236443   1.579   5.684  17.864  0.4589 -0.4013  0.4372
 4083TIP3    H136444   1.516   5.612  17.869 -1.9538  1.4458 -1.0151
 4083TIP3    H236445   1.606   5.687  17.772  1.0683  0.1226  0.6218
 4084TIP3   OH236446   0.266   5.784  18.448  0.2902 -0.3362  0.0743
 4084TIP3    H136447   0.269   5.709  18.508 -1.0946  0.3932  1.0970
 4084TIP3    H236448   0.178   5.781  18.411  0.4122  0.4844 -0.2977
 4085TIP3   OH236449   4.166   2.913  19.658 -0.2221 -0.2583 -0.6634
 4085TIP3    H136450   4.238   2.856  19.631 -0.3190 -0.4303 -0.5602
 4085TIP3    H236451   4.178   2.993  19.606  0.5478  0.0588 -0.0259
 4086TIP3   OH236452   7.110   3.296  18.082 -0.1451  0.0753  0.3849
 4086TIP3    H136453   7.034   3.288  18.139 -0.1725 -1.8331  0.1461
 4086TIP3    H236454   7.184   3.265  18.136  0.2001  0.3802  0.0953
 4087TIP3   OH236455   3.463   0.901  19.334  0.1747 -0.9593 -1.0934
 4087TIP3    H136456   3.378   0.931  19.301 -0.1467  0.3507  0.7787
 4087TIP3    H236457   3.503   0.979  19.372  2.1609 -1.6062 -1.7648
 4088TIP3   OH236458   0.744   4.438  19.749  0.1792 -0.3899  0.8672
 4088TIP3    H136459   0.735   4.429  19.844  2.9799  1.6478  1.4471
 4088TIP3    H236460   0.746   4.532  19.734  1.2507 -0.6657 -1.0329
 4089TIP3   OH236461   0.821   0.476  17.358  0.1701  0.1380 -0.4095
 4089TIP3    H136462   0.914   0.454  17.354  0.1521  0.1427 -0.9937
 4089TIP3    H236463   0.785   0.443  17.276 -0.2310  0.6541 -0.4464
 4090TIP3   OH236464   4.263   4.052  16.858  0.1911  0.6196 -0.0653
 4090TIP3    H136465   4.196   3.999  16.900 -1.0766  1.5824 -0.7812
 4090TIP3    H236466   4.235   4.143  16.873  0.7451  1.0208 -1.2674
 4091TIP3   OH236467   6.512   0.371  19.250 -0.3994 -0.4939  0.0828
 4091TIP3    H136468   6.428   0.362  19.203 -0.0567 -1.8626 -0.3077
 4091TIP3    H236469   6.573   0.403  19.183 -0.3700 -0.4804  0.1171
 4092TIP3   OH236470   6.609   7.134  17.688  0.8461  0.0591 -0.3114
 4092TIP3    H136471   6.655   7.111  17.607  1.4856  1.6589 -0.4334
 4092TIP3    H236472   6.575   7.221  17.672 -0.5430 -0.3070  0.5285
 4093TIP3   OH236473   1.234   6.619  17.285 -0.2621 -0.0324  0.0632
 4093TIP3    H136474   1.316   6.619  17.236 -0.3937 -0.7935 -0.1683
 4093TIP3    H236475   1.259   6.633  17.376  0.0662  0.3785 -0.0878
 4094TIP3   OH236476   3.706   4.353  17.379 -0.1888 -0.7713 -0.7397
 4094TIP3    H136477   3.771   4.402  17.329 -1.1064  2.1419  0.6501
 4094TIP3    H236478   3.637   4.334  17.316  0.2038 -0.2440 -1.3479
 4095TIP3   OH236479   6.388   4.338  17.363  0.0799 -0.0479  0.5291
 4095TIP3    H136480   6.423   4.311  17.278  2.1318  0.4553  1.1742
 4095TIP3    H236481   6.298   4.304  17.364 -0.0683  0.1133 -1.9096
 4096TIP3   OH236482   4.239   2.722  20.177  0.4525 -0.2767  0.4816
 4096TIP3    H136483   4.251   2.663  20.251 -0.1458 -2.3801 -0.9966
 4096TIP3    H236484   4.188   2.671  20.114  0.8705  1.4518 -1.3569
 4097TIP3   OH236485   1.241   5.815  19.496  0.3034 -0.2798 -0.5861
 4097TIP3    H136486   1.202   5.843  19.413 -1.4028 -1.3911 -0.2203
 4097TIP3    H236487   1.329   5.785  19.473  0.3046  0.5669 -1.7759
 4098TIP3   OH236488   1.608   7.108  18.716  0.1751 -0.2014  0.7214
 4098TIP3    H136489   1.565   7.184  18.756 -0.6081 -0.4784  0.4347
 4098TIP3    H236490   1.699   7.114  18.745  0.0323  0.6149  1.0420
 4099TIP3   OH236491   6.668   1.123  18.112  0.5895 -0.1187 -0.2793
 4099TIP3    H136492   6.613   1.099  18.038 -1.0762  2.9801 -0.2047
 4099TIP3    H236493   6.663   1.048  18.171 -1.2088 -1.0671 -1.5473
 4100TIP3   OH236494   0.883   6.991  19.615 -0.3959 -0.3157  0.9115
 4100TIP3    H136495   0.913   6.944  19.693  0.8373 -0.9697  0.0789
 4100TIP3    H236496   0.956   7.049  19.592 -0.5613 -0.4589 -0.0086
 4101TIP3   OH236497   5.670   0.914  17.650 -0.3586  0.1724  0.2669
 4101TIP3    H136498   5.717   0.937  17.730 -0.8046 -0.4678  0.7163
 4101TIP3    H236499   5.739   0.895  17.586 -0.0067  0.0543  0.6814
 4102TIP3   OH236500   3.859   4.992  17.095 -0.6487 -0.0080  0.2246
 4102TIP3    H136501   3.881   5.084  17.110 -3.2392  0.8282 -0.5911
 4102TIP3    H236502   3.909   4.968  17.018  1.0337  0.2867  1.1721
 4103TIP3   OH236503   0.630   1.807  18.896  0.2035 -0.3242 -0.4032
 4103TIP3    H136504   0.721   1.835  18.881  0.3353 -1.3426 -1.6626
 4103TIP3    H236505   0.594   1.874  18.955  1.9543 -0.2575  0.6766
 4104TIP3   OH236506   5.587   0.054  18.160  0.5970 -0.2414 -0.0624
 4104TIP3    H136507   5.518   0.079  18.099 -1.0532 -1.8988  1.0497
 4104TIP3    H236508   5.543   0.043  18.244  1.7498 -3.3742  0.2742
 4105TIP3   OH236509   3.822   2.313  18.672  0.1680  0.8764  0.4360
 4105TIP3    H136510   3.739   2.331  18.715  0.0611 -0.4040  0.8063
 4105TIP3    H236511   3.806   2.331  18.580 -1.3578 -1.7654  0.0585
 4106TIP3   OH236512   3.459   5.521  17.284  0.4507 -0.1191  0.0644
 4106TIP3    H136513   3.518   5.587  17.320  0.8578  1.1007 -2.6194
 4106TIP3    H236514   3.374   5.565  17.281 -0.7402 -1.7708  3.6407
 4107TIP3   OH236515   1.039   1.200  19.162 -0.4300 -0.5338 -0.3303
 4107TIP3    H136516   1.036   1.293  19.187 -0.5716 -0.4610 -0.6072
 4107TIP3    H236517   1.129   1.186  19.134 -0.5060 -0.3757 -0.6653
 4108TIP3   OH236518   5.700   4.526  17.094 -0.2689 -0.6140  0.0159
 4108TIP3    H136519   5.634   4.461  17.116 -1.3900 -0.7235 -3.1777
 4108TIP3    H236520   5.651   4.608  17.083  0.7860  0.2846  1.7004
 4109TIP3   OH236521   1.732   1.479  18.900  0.4844  0.2204  0.2317
 4109TIP3    H136522   1.769   1.446  18.818 -0.2746 -1.2970  0.4638
 4109TIP3    H236523   1.751   1.411  18.964 -1.7054 -0.1469  0.5846
 4110TIP3   OH236524   4.144   3.663  17.803 -0.1246 -0.3267 -0.3013
 4110TIP3    H136525   4.071   3.686  17.861  1.0901 -0.2281  1.2656
 4110TIP3    H236526   4.104   3.609  17.735 -1.3963 -1.6968  1.4323
 4111TIP3   OH236527   2.803   1.101  17.661  0.3830  0.0687  0.3332
 4111TIP3    H136528   2.863   1.123  17.732  0.4209  2.1569 -0.2530
 4111TIP3    H236529   2.803   1.179  17.605 -1.2881 -0.6757 -0.8026
 4112TIP3   OH236530   3.583   5.241  18.811 -0.2448 -0.4056 -0.2542
 4112TIP3    H136531   3.563   5.160  18.764  0.3215  0.2321 -1.6817
 4112TIP3    H236532   3.509   5.253  18.871 -1.0864 -1.2020 -1.0931
 4113TIP3   OH236533   5.897   1.742  18.708  0.0734  0.1996 -0.4326
 4113TIP3    H136534   5.859   1.699  18.631 -1.5197  0.9471 -0.1014
 4113TIP3    H236535   5.868   1.833  18.701  2.4383  1.0057 -0.5155
 4114TIP3   OH236536   1.301   0.419  18.455  0.2717 -0.4724 -0.3860
 4114TIP3    H136537   1.268   0.487  18.396 -2.0820 -0.5086  0.7744
 4114TIP3    H236538   1.234   0.413  18.524  1.8597 -1.9425  1.1062
 4115TIP3   OH236539   1.023   3.579  18.447  0.5768 -0.5851  0.2933
 4115TIP3    H136540   0.953   3.631  18.408  1.0487  0.1801  0.4534
 4115TIP3    H236541   1.034   3.505  18.386  0.3160 -0.1794 -0.2580
 4116TIP3   OH236542   0.202   3.093  18.075  0.5217  0.6625 -0.0231
 4116TIP3    H136543   0.244   3.110  17.991  1.0702  1.1750  0.3425
 4116TIP3    H236544   0.235   3.162  18.132 -2.5855  2.5823 -0.3037
 4117TIP3   OH236545   4.441   6.192  18.435  0.0603  0.1433  0.1271
 4117TIP3    H136546   4.455   6.112  18.386 -0.7092 -0.4896  0.9067
 4117TIP3    H236547   4.477   6.173  18.522 -3.9230 -1.0123  1.7482
 4118TIP3   OH236548   3.769   2.466  19.599  0.2086 -0.1217 -0.0063
 4118TIP3    H136549   3.790   2.517  19.521  0.3243  0.8570  0.6450
 4118TIP3    H236550   3.724   2.388  19.566  1.5490 -0.4520 -1.1539
 4119TIP3   OH236551   2.633   4.808  18.484  0.0545  0.0970  0.7187
 4119TIP3    H136552   2.713   4.818  18.431 -0.2069 -0.8924  0.1159
 4119TIP3    H236553   2.655   4.849  18.568  0.5465  1.5158 -0.0675
 4120TIP3   OH236554   6.827   1.597  18.596 -0.5368  0.0919  0.1368
 4120TIP3    H136555   6.889   1.632  18.660  0.7333  1.2442 -1.6442
 4120TIP3    H236556   6.849   1.504  18.590  0.0536  0.1980  0.5775
 4121TIP3   OH236557   3.777   4.282  18.548  0.0425 -0.4159 -0.1689
 4121TIP3    H136558   3.773   4.199  18.595 -1.1491  0.0577  0.6054
 4121TIP3    H236559   3.708   4.275  18.482 -0.5464  0.2231  0.3648
 4122TIP3   OH236560   6.618   3.701  18.065 -0.0771  0.1196  0.0068
 4122TIP3    H136561   6.690   3.747  18.021  0.8786 -0.3804  0.9937
 4122TIP3    H236562   6.660   3.626  18.108 -0.9730  0.5241  1.6704
 4123TIP3   OH236563   4.946   1.115  18.468  0.1210 -0.0481 -0.1012
 4123TIP3    H136564   4.959   1.193  18.523  0.9049 -0.3056  0.0890
 4123TIP3    H236565   4.851   1.109  18.458  0.0824  1.6341 -1.1367
 4124TIP3   OH236566   1.199   3.118  18.721  0.3780 -0.9775 -0.3144
 4124TIP3    H136567   1.286   3.083  18.743 -0.4191 -1.6788  1.9107
 4124TIP3    H236568   1.160   3.051  18.666  0.6039 -1.4452  0.0899
 4125TIP3   OH236569   6.708   2.463  18.039 -0.1355 -0.4806  0.3885
 4125TIP3    H136570   6.716   2.424  18.126  0.0319 -1.7083 -0.1514
 4125TIP3    H236571   6.613   2.472  18.025 -0.2811 -2.3795 -0.1564
 4126TIP3   OH236572   6.853   4.937  19.368 -0.0170  0.2263 -0.5501
 4126TIP3    H136573   6.802   4.860  19.396  0.4716  0.0188 -0.2160
 4126TIP3    H236574   6.791   5.010  19.374 -0.1714  0.0394  0.2340
 4127TIP3   OH236575   2.946   6.148  19.440  0.0708 -0.0478  0.1228
 4127TIP3    H136576   2.914   6.208  19.373 -3.3579  2.8840  3.8707
 4127TIP3    H236577   2.877   6.082  19.448  0.9583 -1.0037  0.0981
 4128TIP3   OH236578   2.715   5.543  19.524  0.2510  0.2260  0.5442
 4128TIP3    H136579   2.682   5.621  19.479 -0.8608 -1.2616 -1.3605
 4128TIP3    H236580   2.809   5.559  19.534  1.0796 -0.0805 -4.2545
 4129TIP3   OH236581   1.730   2.671  18.017  0.2694  0.4845 -0.0985
 4129TIP3    H136582   1.726   2.598  17.955 -1.4806  0.9181 -0.5453
 4129TIP3    H236583   1.683   2.742  17.974 -0.7398  0.9021  1.5800
 4130TIP3   OH236584   3.846   3.337  17.841  0.0485  0.3973 -1.0825
 4130TIP3    H136585   3.815   3.405  17.901  0.4708  0.3598 -0.8181
 4130TIP3    H236586   3.831   3.373  17.754  0.5593  0.9627 -0.9411
 4131TIP3   OH236587   3.481   0.433  19.813 -0.0953 -0.4021  0.0847
 4131TIP3    H136588   3.520   0.353  19.779  0.0292 -0.9853  1.5435
 4131TIP3    H236589   3.388   0.425  19.793  0.1820  0.0138 -1.5048
 4132TIP3   OH236590   2.439   3.620  17.874 -0.5501  0.0060 -0.8253
 4132TIP3    H136591   2.372   3.573  17.824 -0.1402 -2.0546  0.4411
 4132TIP3    H236592   2.405   3.709  17.881 -2.5704 -0.6622 -1.2801
 4133TIP3   OH236593   3.343   0.185  19.455 -0.0006  0.7768 -0.1610
 4133TIP3    H136594   3.424   0.207  19.503  0.9515 -0.4473 -1.1332
 4133TIP3    H236595   3.317   0.266  19.413  0.0008  1.5022  1.1928
 4134TIP3   OH236596   1.315   7.405  19.599  0.2157  0.3872  0.7266
 4134TIP3    H136597   1.299   7.414  19.505 -0.4867 -1.8259  0.5779
 4134TIP3    H236598   1.391   7.347  19.605 -0.1647 -0.0423  1.5268
 4135TIP3   OH236599   3.740   2.881  17.365  0.0699  0.3218 -0.2777
 4135TIP3    H136600   3.680   2.943  17.323 -1.4817 -0.2264  1.0223
 4135TIP3    H236601   3.745   2.807  17.304 -1.3359 -0.0163 -0.0194
 4136TIP3   OH236602   3.016   7.512  19.011 -0.1834 -0.2169 -0.0479
 4136TIP3    H136603   3.108   7.535  19.008 -0.5319  1.3819  0.6914
 4136TIP3    H236604   2.994   7.509  19.104 -1.2094  0.9102 -0.2255
 4137TIP3   OH236605   0.074   6.991  18.359  0.3986  0.4670  0.2857
 4137TIP3    H136606   0.120   6.956  18.435 -0.9292 -1.1773  0.3966
 4137TIP3    H236607  -0.016   7.004  18.389 -0.3699 -1.0291 -1.1815
 4138TIP3   OH236608   4.798   5.235  16.852 -0.3301 -0.0490  0.1117
 4138TIP3    H136609   4.716   5.186  16.845  0.2567 -1.1227  0.5112
 4138TIP3    H236610   4.859   5.173  16.893  0.2643  1.2268  1.2248
 4139TIP3   OH236611   5.947   4.591  18.600 -0.3237  0.4099 -0.0990
 4139TIP3    H136612   5.974   4.558  18.686  0.3935  1.2736  0.0246
 4139TIP3    H236613   5.951   4.686  18.609  0.2327  0.5087 -1.2249
 4140TIP3   OH236614   4.642   4.590  17.584 -0.2483  0.1132 -0.1397
 4140TIP3    H136615   4.619   4.647  17.657  0.9540 -0.1919  0.5050
 4140TIP3    H236616   4.595   4.509  17.601 -0.7254  0.3721 -0.2186
 4141TIP3   OH236617   3.422   6.010  19.489 -0.0077 -0.1255 -0.4474
 4141TIP3    H136618   3.425   6.070  19.564  0.1927 -0.9686  0.2355
 4141TIP3    H236619   3.495   6.038  19.434 -0.5490  0.9174 -0.6732
 4142TIP3   OH236620   0.867   3.783  19.431 -0.3356 -0.0084 -0.3467
 4142TIP3    H136621   0.933   3.833  19.381  1.1225  0.8341  2.2264
 4142TIP3    H236622   0.887   3.692  19.412  0.3472  0.2857 -1.1204
 4143TIP3   OH236623   4.893   2.759  18.946  0.2930  0.2179 -0.8328
 4143TIP3    H136624   4.873   2.842  18.903 -0.0674 -1.1747 -3.5722
 4143TIP3    H236625   4.833   2.755  19.020 -0.4551  1.8894 -1.3097
 4144TIP3   OH236626   1.028   0.535  18.243 -0.4235 -0.3865 -0.7393
 4144TIP3    H136627   1.004   0.527  18.335 -1.2354 -1.4121 -1.0251
 4144TIP3    H236628   1.102   0.597  18.243 -1.5748  1.0723  0.4020
 4145TIP3   OH236629   6.818   3.702  17.726  0.0841  0.0326 -0.7120
 4145TIP3    H136630   6.819   3.713  17.631 -0.4014 -1.5042 -0.9257
 4145TIP3    H236631   6.818   3.607  17.739  0.2630  0.2161  0.8318
 4146TIP3   OH236632   2.474   3.768  19.915 -0.2134 -0.5679  0.0975
 4146TIP3    H136633   2.431   3.844  19.954 -2.0642 -2.1526  1.4163
 4146TIP3    H236634   2.552   3.755  19.969 -0.2916 -0.0392  0.3467
 4147TIP3   OH236635   0.346   2.970  19.396 -0.4512 -0.0233  0.0015
 4147TIP3    H136636   0.368   3.029  19.467  0.3724  1.2970 -1.2885
 4147TIP3    H236637   0.253   2.983  19.380 -0.4703  0.2301  0.3271
 4148TIP3   OH236638   6.134   2.784  20.104  0.2549 -0.1532 -0.0423
 4148TIP3    H136639   6.229   2.773  20.108  0.6754  2.5472 -0.4521
 4148TIP3    H236640   6.121   2.879  20.105 -2.4442 -0.4367 -0.2611
 4149TIP3   OH236641   0.565   3.925  17.879  0.5789 -0.0537  0.2971
 4149TIP3    H136642   0.572   3.847  17.934 -1.5288 -0.5973 -0.1107
 4149TIP3    H236643   0.567   3.891  17.789  0.2457  0.4117  0.1094
 4150TIP3   OH236644   6.801   0.709  19.844 -0.2654 -0.2480 -0.0877
 4150TIP3    H136645   6.826   0.631  19.893  1.2022 -0.7852 -1.5917
 4150TIP3    H236646   6.707   0.700  19.830 -0.2205 -1.4452  0.2605
 4151TIP3   OH236647   5.570   1.940  17.725  0.1639  0.8092 -0.1689
 4151TIP3    H136648   5.655   1.983  17.736 -0.2097  0.9157  3.5349
 4151TIP3    H236649   5.573   1.866  17.785 -1.8316 -0.1246 -1.1127
 4152TIP3   OH236650   4.894   1.167  17.593  0.7539  0.5027 -0.6443
 4152TIP3    H136651   4.941   1.096  17.637 -0.9545 -0.4941 -0.3251
 4152TIP3    H236652   4.885   1.234  17.660 -0.8730 -0.5649  0.3059
 4153TIP3   OH236653   4.182   2.712  19.166  0.3111 -0.2349  0.6380
 4153TIP3    H136654   4.268   2.744  19.193  0.1244  1.7508 -0.9262
 4153TIP3    H236655   4.147   2.670  19.245  1.4565  1.6267  2.2352
 4154TIP3   OH236656   6.859   4.351  18.976  0.2429 -0.2774  0.1502
 4154TIP3    H136657   6.808   4.291  18.922 -0.6413 -0.7150  1.4154
 4154TIP3    H236658   6.797   4.419  19.002  0.9300  0.5253 -0.2663
 4155TIP3   OH236659   2.990   4.376  17.196  0.1712  0.0560 -0.2265
 4155TIP3    H136660   3.082   4.352  17.196  0.1869  0.1141  0.1145
 4155TIP3    H236661   2.980   4.434  17.120  1.0014  2.2996  1.2686
 4156TIP3   OH236662   2.535   5.381  19.007 -0.2895 -0.1822  0.1000
 4156TIP3    H136663   2.601   5.412  18.945  0.2310 -2.1737 -0.4077
 4156TIP3    H236664   2.515   5.458  19.060  0.9986  0.9752 -0.9981
 4157TIP3   OH236665   6.544   6.316  19.469 -0.3442 -0.4651 -0.0632
 4157TIP3    H136666   6.619   6.360  19.509 -0.3166 -1.4365  1.0008
 4157TIP3    H236667   6.583   6.243  19.421 -0.5973 -0.8858  0.3720
 4158TIP3   OH236668   3.607   1.262  19.924 -0.1668 -0.5746 -0.1421
 4158TIP3    H136669   3.560   1.186  19.958 -1.1748  0.6113  1.2407
 4158TIP3    H236670   3.604   1.251  19.829 -0.1346 -2.3295  0.0303
 4159TIP3   OH236671   5.681   3.641  18.115 -0.2922  0.1940 -1.1848
 4159TIP3    H136672   5.760   3.684  18.084 -0.1740 -1.5889 -3.7197
 4159TIP3    H236673   5.614   3.664  18.051 -0.7695 -1.4733 -1.3518
 4160TIP3   OH236674   0.006   1.864  18.294  0.2540  0.1460 -0.2135
 4160TIP3    H136675  -0.021   1.816  18.372 -1.7594  0.4574 -0.6590
 4160TIP3    H236676   0.069   1.929  18.327 -0.6465  0.3586  1.1726
 4161TIP3   OH236677   4.502   0.629  18.131 -0.5463  0.1224  0.4830
 4161TIP3    H136678   4.548   0.679  18.197  0.8328  0.5112 -0.7355
 4161TIP3    H236679   4.569   0.605  18.067 -1.9100  0.2245 -1.0582
 4162TIP3   OH236680   6.648   6.385  18.063 -0.2680 -0.3459  0.2457
 4162TIP3    H136681   6.615   6.430  18.141 -1.1084  0.1259 -0.3651
 4162TIP3    H236682   6.690   6.306  18.097 -0.9121 -0.3156  1.1508
 4163TIP3   OH236683   7.644   2.418  17.332  0.3994  0.1878  0.0757
 4163TIP3    H136684   7.596   2.394  17.252 -2.5700 -1.0275  2.0055
 4163TIP3    H236685   7.663   2.511  17.322 -3.4243  1.0752 -0.5012
 4164TIP3   OH236686   0.789   1.232  18.916  0.4562  0.3007  0.1174
 4164TIP3    H136687   0.855   1.288  18.955  0.8423 -0.2847  0.3124
 4164TIP3    H236688   0.814   1.143  18.942 -0.5689  0.0953  0.4405
 4165TIP3   OH236689   5.940   5.554  18.366 -0.2019 -0.5166 -0.1964
 4165TIP3    H136690   5.990   5.613  18.310 -0.2146 -0.4779 -0.1678
 4165TIP3    H236691   5.908   5.486  18.307  0.4045 -0.8872 -0.1100
 4166TIP3   OH236692   6.329   7.068  18.268 -0.1491  0.4140  0.0722
 4166TIP3    H136693   6.391   7.017  18.216  0.7405 -0.4497  1.8600
 4166TIP3    H236694   6.264   7.004  18.298 -0.4762  0.8306  0.2755
 4167TIP3   OH236695   1.243   5.306  17.710  0.2042  0.2456  0.0823
 4167TIP3    H136696   1.161   5.344  17.744  0.8144  1.6157  0.0971
 4167TIP3    H236697   1.220   5.275  17.622 -0.4136  0.2984  0.2168
 4168TIP3   OH236698   4.453   4.913  18.956 -0.0356  0.6036  0.5973
 4168TIP3    H136699   4.442   4.820  18.940  0.8106  0.7264 -0.8764
 4168TIP3    H236700   4.505   4.918  19.036 -0.5073 -0.1686  0.9600
 4169TIP3   OH236701   1.938   1.539  17.129  0.1460 -0.2434  0.7521
 4169TIP3    H136702   1.846   1.564  17.140  0.3355  0.5788  0.5396
 4169TIP3    H236703   1.941   1.495  17.044 -0.0549 -0.2961  0.7724
 4170TIP3   OH236704   0.080   3.122  18.891 -0.0338  0.2200  0.0885
 4170TIP3    H136705   0.095   3.199  18.835 -0.4228  0.9050  0.8968
 4170TIP3    H236706   0.068   3.050  18.829 -0.5254  0.9698 -0.7305
 4171TIP3   OH236707   1.370   0.397  17.451  0.5814 -0.0535 -0.0263
 4171TIP3    H136708   1.406   0.481  17.478 -1.7353  0.4283  1.8894
 4171TIP3    H236709   1.329   0.414  17.367  0.6287  0.6030  0.0791
 4172TIP3   OH236710   3.404   2.698  19.960 -0.3309  0.0935 -0.8169
 4172TIP3    H136711   3.491   2.695  19.921  1.1083  1.9242  1.9475
 4172TIP3    H236712   3.378   2.790  19.953 -1.4026 -0.1524 -0.2965
 4173TIP3   OH236713   3.859   7.416  19.443 -0.4438 -1.3385  0.3183
 4173TIP3    H136714   3.817   7.332  19.424  0.1192 -1.5589  0.0316
 4173TIP3    H236715   3.937   7.393  19.494  0.0025 -1.0394 -0.2239
 4174TIP3   OH236716   1.178   1.710  17.969  0.1799  0.2986  0.6333
 4174TIP3    H136717   1.134   1.751  17.894 -0.2929 -0.9208  0.2034
 4174TIP3    H236718   1.271   1.726  17.954  0.1235 -0.2617 -0.4424
 4175TIP3   OH236719   5.612   6.523  17.489  0.7219  0.0896 -0.2085
 4175TIP3    H136720   5.537   6.493  17.437 -0.3052  0.5936  0.9375
 4175TIP3    H236721   5.622   6.615  17.464 -0.4005  0.6112  1.1594
 4176TIP3   OH236722   4.493   0.064  17.917  0.2900 -0.6233 -0.3147
 4176TIP3    H136723   4.489  -0.021  17.959  0.4571 -0.4788 -0.0063
 4176TIP3    H236724   4.421   0.063  17.854 -1.4412  0.0061  1.5420
 4177TIP3   OH236725   4.675   1.938  17.450  0.1001 -0.3132 -0.2172
 4177TIP3    H136726   4.644   1.854  17.484 -1.2675  0.5790  0.8832
 4177TIP3    H236727   4.640   2.003  17.511  1.8964  1.0140 -0.5045
 4178TIP3   OH236728   5.403   5.230  17.458  0.6409 -0.0425  0.3401
 4178TIP3    H136729   5.496   5.229  17.481  0.6263 -1.0145  0.3641
 4178TIP3    H236730   5.387   5.146  17.417 -0.1035  0.3616 -0.2230
 4179TIP3   OH236731   2.975   7.508  19.495  0.4381 -0.3568  0.3877
 4179TIP3    H136732   3.005   7.598  19.485 -1.3606  0.1500 -1.1556
 4179TIP3    H236733   2.893   7.515  19.543 -0.6554 -0.9057 -1.2768
 4180TIP3   OH236734   7.316   2.753  18.957 -0.1633  0.2676 -0.2760
 4180TIP3    H136735   7.227   2.723  18.976 -0.3905  0.7706 -0.5134
 4180TIP3    H236736   7.306   2.811  18.881  0.5534 -0.7110 -1.1440
 4181TIP3   OH236737   4.114   3.415  19.068  0.0378 -0.2707 -0.6262
 4181TIP3    H136738   4.178   3.347  19.048  0.1933 -0.4636  0.4634
 4181TIP3    H236739   4.166   3.496  19.068 -0.3730  0.0723 -3.1922
 4182TIP3   OH236740   0.387   7.008  18.999  0.1248  0.2956 -0.0442
 4182TIP3    H136741   0.399   6.996  19.093 -0.8585 -1.6287 -0.1333
 4182TIP3    H236742   0.342   6.929  18.970  0.0278  1.0483 -2.0702
 4183TIP3   OH236743   4.513   2.118  18.991  0.8170  0.2590 -0.3609
 4183TIP3    H136744   4.480   2.208  18.999  1.9929  0.5413  2.1619
 4183TIP3    H236745   4.444   2.064  19.030  1.2524  0.3834  0.6231
 4184TIP3   OH236746   1.462   3.565  18.465  0.0596  0.1934 -0.1725
 4184TIP3    H136747   1.503   3.623  18.400 -0.5268 -1.1676 -1.8229
 4184TIP3    H236748   1.489   3.477  18.439  0.9414 -0.3246  2.3007
 4185TIP3   OH236749   4.453   5.390  18.461 -0.4948 -0.6341  0.1756
 4185TIP3    H136750   4.515   5.395  18.388 -0.8791 -0.9195 -0.1719
 4185TIP3    H236751   4.378   5.342  18.426 -0.1426 -1.9464  1.1337
 4186TIP3   OH236752   1.399   4.198  17.230  0.1303 -0.4107 -0.2273
 4186TIP3    H136753   1.478   4.226  17.276  0.0529 -0.5013 -0.0387
 4186TIP3    H236754   1.348   4.278  17.220 -0.1305 -0.4981  0.3881
 4187TIP3   OH236755   7.151   0.212  17.918  0.0496 -0.7475 -0.3002
 4187TIP3    H136756   7.074   0.250  17.961  1.0735  1.4572 -0.3032
 4187TIP3    H236757   7.124   0.201  17.827 -0.2111  0.1615 -0.3369
 4188TIP3   OH236758   5.592   2.196  18.809  0.3076 -0.5085 -0.5182
 4188TIP3    H136759   5.514   2.150  18.841 -0.4851  0.2168 -1.3345
 4188TIP3    H236760   5.665   2.137  18.827 -0.2155 -0.5680  1.6840
 4189TIP3   OH236761   5.943   0.525  17.244  1.1015  0.1851 -0.2186
 4189TIP3    H136762   5.969   0.440  17.280  1.2879 -0.0130 -0.7996
 4189TIP3    H236763   5.960   0.587  17.314 -0.8335 -0.4741  0.9282
 4190TIP3   OH236764   4.133   4.008  17.812  0.2478 -0.1402  0.1858
 4190TIP3    H136765   4.174   3.930  17.775  1.0870 -0.2846  1.3660
 4190TIP3    H236766   4.171   4.016  17.900 -0.0268  1.4468  0.1882
 4191TIP3   OH236767   4.556   4.030  17.435  0.0910  0.5872 -0.5473
 4191TIP3    H136768   4.626   4.091  17.458  0.2364  0.2274 -0.0071
 4191TIP3    H236769   4.535   3.986  17.517 -0.5715  0.4856 -0.7683
 4192TIP3   OH236770   1.163   4.234  18.526 -0.0181 -0.2795 -1.0293
 4192TIP3    H136771   1.192   4.282  18.448  0.0196 -1.3533 -1.6861
 4192TIP3    H236772   1.141   4.303  18.589 -0.3061  0.6142 -2.0747
 4193TIP3   OH236773   5.947   6.982  19.212  0.0368 -0.1750 -0.2820
 4193TIP3    H136774   5.982   6.896  19.232  1.9704  1.0345  2.0123
 4193TIP3    H236775   6.023   7.040  19.216 -1.2124  1.6763 -1.7010
 4194TIP3   OH236776   3.009   1.955  18.345  0.3452  0.0890  0.7598
 4194TIP3    H136777   2.923   1.914  18.350  0.8893 -1.4104 -1.1361
 4194TIP3    H236778   3.007   2.007  18.265  1.3892 -0.4639  0.3578
 4195TIP3   OH236779   0.835   0.872  18.104 -0.2790 -0.2498 -0.5539
 4195TIP3    H136780   0.801   0.791  18.066 -1.0395  0.2028 -0.8656
 4195TIP3    H236781   0.930   0.867  18.090 -0.3826 -0.8086 -1.1090
 4196TIP3   OH236782   6.930   0.365  19.033  0.0580  0.3250 -0.0674
 4196TIP3    H136783   7.011   0.414  19.052  1.2285 -1.9716  1.2778
 4196TIP3    H236784   6.944   0.279  19.072 -1.4931 -1.4814 -3.0800
 4197TIP3   OH236785   6.162   1.226  16.894  0.1569 -0.7046 -0.2511
 4197TIP3    H136786   6.248   1.263  16.916 -1.4908  1.5888  3.5302
 4197TIP3    H236787   6.156   1.146  16.947 -0.1426 -0.6390 -0.1823
 4198TIP3   OH236788   6.186   5.546  17.840  0.4390 -0.4003 -0.1704
 4198TIP3    H136789   6.236   5.480  17.888  0.0441  0.5471  1.6584
 4198TIP3    H236790   6.247   5.580  17.775  1.5563 -0.6339  0.7176
 4199TIP3   OH236791   0.173   5.267  19.183  0.0233  0.0652 -0.2193
 4199TIP3    H136792   0.104   5.303  19.127  0.3609  1.0370 -0.0338
 4199TIP3    H236793   0.220   5.206  19.126  0.4629  1.1531 -1.0637
 4200TIP3   OH236794   6.741   3.509  19.293  0.1624  0.4938 -0.0367
 4200TIP3    H136795   6.826   3.467  19.283 -0.6430 -1.1028 -0.6210
 4200TIP3    H236796   6.687   3.470  19.223 -0.9908  1.5798  0.2171
 4201TIP3   OH236797   5.955   2.616  17.919  0.0936 -0.0074  0.9025
 4201TIP3    H136798   5.935   2.656  17.834  1.1572 -1.1194  0.0830
 4201TIP3    H236799   5.905   2.534  17.918  1.1269 -0.6500  0.7662
 4202TIP3   OH236800   5.925   5.129  19.065 -0.3260 -0.1556  0.2484
 4202TIP3    H136801   5.845   5.173  19.093 -0.2212  0.8676 -0.9588
 4202TIP3    H236802   5.898   5.075  18.991 -0.2181 -1.1737  0.9410
 4203TIP3   OH236803   2.678   0.211  19.707 -0.0037  0.5615  0.1788
 4203TIP3    H136804   2.660   0.175  19.794  2.2933  0.9813  0.8981
 4203TIP3    H236805   2.599   0.192  19.656 -0.8971 -0.8493  1.9786
 4204TIP3   OH236806   7.364   4.826  18.569  0.4660  0.1629 -0.0281
 4204TIP3    H136807   7.339   4.830  18.661 -0.4182  2.3408 -0.2852
 4204TIP3    H236808   7.460   4.832  18.569  0.5484 -0.9485  0.7519
 4205TIP3   OH236809   4.240   6.105  17.284 -0.0009 -0.0922 -0.4121
 4205TIP3    H136810   4.212   6.031  17.337  0.2495  0.8526  1.1053
 4205TIP3    H236811   4.325   6.080  17.249  0.3430 -0.2986  0.5618
 4206TIP3   OH236812   1.513   4.676  18.735  0.2613  0.1274  0.1080
 4206TIP3    H136813   1.522   4.762  18.696  0.0011 -0.0240 -0.2899
 4206TIP3    H236814   1.525   4.614  18.663  1.6621 -0.2155  0.5993
 4207TIP3   OH236815   5.296   2.831  19.647  0.1135  0.8133 -0.7986
 4207TIP3    H136816   5.347   2.890  19.592 -1.9154  3.2906 -0.1945
 4207TIP3    H236817   5.361   2.782  19.697  2.0315 -0.8307 -4.4855
 4208TIP3   OH236818   6.280   3.515  17.791 -0.0194 -0.4784  0.4713
 4208TIP3    H136819   6.210   3.455  17.762 -0.3491  1.4878 -3.4758
 4208TIP3    H236820   6.359   3.480  17.749 -0.1240  1.3835 -1.4261
 4209TIP3   OH236821   3.513   5.355  18.056 -0.5806  0.1087 -0.1117
 4209TIP3    H136822   3.492   5.329  17.967  0.0314  1.2646 -0.6256
 4209TIP3    H236823   3.601   5.394  18.049 -0.8124  0.8462  0.8611
 4210TIP3   OH236824   2.228   4.578  18.703 -0.1235 -0.2991  0.3943
 4210TIP3    H136825   2.186   4.658  18.736 -2.0459 -0.9299 -0.4057
 4210TIP3    H236826   2.164   4.509  18.719  0.9218 -1.4389 -0.2183
 4211TIP3   OH236827   5.905   2.717  19.675  0.0889 -0.1894 -0.2005
 4211TIP3    H136828   5.890   2.763  19.757  2.0164  0.1598  0.0032
 4211TIP3    H236829   5.869   2.630  19.689  1.8960 -0.7203  1.7068
 4212TIP3   OH236830   1.176   5.910  17.611  0.4583 -0.0098  0.3956
 4212TIP3    H136831   1.090   5.946  17.592  0.2696  0.3080  1.7634
 4212TIP3    H236832   1.161   5.815  17.618  0.0934  0.1072  1.2513
 4213TIP3   OH236833   3.123   5.611  17.558  0.1251  0.2738 -0.0497
 4213TIP3    H136834   3.093   5.695  17.592 -1.8661 -0.0163 -0.8838
 4213TIP3    H236835   3.168   5.633  17.476  0.4353  0.6023  0.2093
 4214TIP3   OH236836   3.963   2.698  19.010 -0.2404  0.1866  0.2630
 4214TIP3    H136837   3.916   2.780  19.001 -0.7767 -0.1463 -0.0397
 4214TIP3    H236838   4.043   2.720  19.058 -0.8595  0.7070  1.0703
 4215TIP3   OH236839   3.018   1.998  19.317  0.3560 -0.1331 -0.5392
 4215TIP3    H136840   3.031   1.913  19.358 -0.9066 -0.1468 -0.1119
 4215TIP3    H236841   2.941   2.034  19.362  1.1534  1.4423 -0.3777
 4216TIP3   OH236842   0.515   7.292  17.795 -0.0147  0.2432  0.3778
 4216TIP3    H136843   0.420   7.282  17.786  0.1037 -0.5150 -0.1236
 4216TIP3    H236844   0.529   7.386  17.787 -0.4961  0.1737 -2.1293
 4217TIP3   OH236845   6.232   4.133  19.856  0.7660  0.2571 -0.1751
 4217TIP3    H136846   6.137   4.135  19.844  0.6706  1.3561  0.6458
 4217TIP3    H236847   6.248   4.191  19.930  1.9101 -1.3657  0.9198
 4218TIP3   OH236848   0.098   1.676  19.004  0.2356 -0.4271 -0.2995
 4218TIP3    H136849   0.122   1.586  18.984  1.5703 -0.0480 -0.4333
 4218TIP3    H236850   0.084   1.676  19.099  0.4681 -0.7134 -0.2647
 4219TIP3   OH236851   1.363   2.859  18.086  0.0100 -0.2142  0.4472
 4219TIP3    H136852   1.439   2.840  18.030 -1.0186  1.1153 -1.5232
 4219TIP3    H236853   1.380   2.948  18.119 -0.1892 -0.3449  0.9115
 4220TIP3   OH236854   4.013   3.856  17.386  0.0192 -0.7235  0.3702
 4220TIP3    H136855   3.936   3.816  17.427 -0.3710 -1.3083 -0.8921
 4220TIP3    H236856   4.026   3.806  17.306  0.3811  0.7915 -0.5489
 4221TIP3   OH236857   0.376   1.429  19.278 -0.5531 -0.0177  0.0697
 4221TIP3    H136858   0.381   1.334  19.268  0.5920 -0.0125  0.3900
 4221TIP3    H236859   0.289   1.446  19.313 -1.0477 -0.8789 -0.7214
 4222TIP3   OH236860   0.104   4.482  19.478  0.2767 -0.1818  0.5341
 4222TIP3    H136861   0.020   4.491  19.434  0.3751 -0.3299  0.3181
 4222TIP3    H236862   0.087   4.513  19.568  0.0928  0.1751  0.3800
 4223TIP3   OH236863   6.296   0.372  19.526  0.0074  0.2385  0.8894
 4223TIP3    H136864   6.366   0.431  19.553 -1.3500  1.5939  1.5986
 4223TIP3    H236865   6.336   0.285  19.530  1.9512  1.0381  0.2133
 4224TIP3   OH236866   6.086   1.030  18.939 -0.1089 -0.3625 -0.0044
 4224TIP3    H136867   5.992   1.011  18.941  0.2753 -2.6395 -0.5066
 4224TIP3    H236868   6.099   1.081  18.860 -0.8059 -0.8870 -0.4662
 4225TIP3   OH236869   3.634   2.250  19.478  0.6816  0.2195 -0.5351
 4225TIP3    H136870   3.683   2.183  19.431 -0.4055 -0.6681 -0.4472
 4225TIP3    H236871   3.575   2.201  19.536  0.0902  1.2465 -0.2347
 4226TIP3   OH236872   6.610   4.516  18.366 -0.3236 -0.0919 -0.2937
 4226TIP3    H136873   6.637   4.586  18.425 -0.7986  0.3321 -0.5718
 4226TIP3    H236874   6.590   4.560  18.283 -1.0197 -0.4947 -0.3513
 4227TIP3   OH236875   5.908   6.133  19.810  0.6561 -0.4215  0.2421
 4227TIP3    H136876   5.848   6.198  19.775 -1.3438 -2.3671 -0.2412
 4227TIP3    H236877   5.995   6.171  19.801 -0.4990  3.0051  1.9408
 4228TIP3   OH236878   6.519   3.830  19.209  0.1056  0.1043  0.3705
 4228TIP3    H136879   6.438   3.881  19.209  0.2203  0.3154 -0.8569
 4228TIP3    H236880   6.588   3.895  19.201  0.3024 -0.1721 -0.2434
 4229TIP3   OH236881   2.486   6.298  17.033 -0.4569 -0.1537  0.0146
 4229TIP3    H136882   2.488   6.203  17.019 -0.1537 -0.3356  1.1717
 4229TIP3    H236883   2.393   6.318  17.044 -0.5546 -0.2513 -0.5745
 4230TIP3   OH236884   3.904   0.586  18.303 -0.0701 -0.2753 -0.0617
 4230TIP3    H136885   3.886   0.538  18.223  1.3408 -1.4282  0.2775
 4230TIP3    H236886   3.886   0.524  18.374 -1.2879  0.7210  0.5392
 4231TIP3   OH236887   5.163   1.349  17.407  0.2724 -0.5996 -0.3256
 4231TIP3    H136888   5.212   1.390  17.336 -0.7843 -0.6906 -1.1221
 4231TIP3    H236889   5.193   1.258  17.407  1.4729 -0.2225  0.4315
 4232TIP3   OH236890   1.699   5.292  17.564 -0.1447  0.0356  1.0265
 4232TIP3    H136891   1.754   5.224  17.603  0.7425  0.4409  0.4986
 4232TIP3    H236892   1.639   5.244  17.507  1.1981 -0.2443 -0.2020
 4233TIP3   OH236893   0.867   3.737  18.289  0.1325  0.5836  0.2792
 4233TIP3    H136894   0.795   3.800  18.298 -1.3643 -1.0299  0.0684
 4233TIP3    H236895   0.930   3.782  18.233 -0.2531  2.3954  1.2016
 4234TIP3   OH236896   0.092   7.245  17.960  0.3792 -0.0060 -0.2895
 4234TIP3    H136897   0.124   7.303  18.029 -2.8940  1.7748 -0.0259
 4234TIP3    H236898   0.020   7.196  18.001 -0.6245 -0.0436 -1.9656
 4235TIP3   OH236899   5.901   6.937  17.335 -0.1329 -0.0196 -0.3333
 4235TIP3    H136900   5.899   6.851  17.376 -1.2176  0.8823  1.6258
 4235TIP3    H236901   5.948   6.992  17.397  0.3679  0.8628 -1.4646
 4236TIP3   OH236902   2.001   6.866  18.326 -0.4014 -0.3089 -0.4155
 4236TIP3    H136903   2.028   6.877  18.235  0.3100  1.6572 -0.0241
 4236TIP3    H236904   1.951   6.785  18.326 -0.3149 -0.4366 -2.5322
 4237TIP3   OH236905   3.707   4.033  18.673  0.1335 -0.4141 -0.2366
 4237TIP3    H136906   3.623   4.020  18.717 -0.4631  1.8454 -0.5990
 4237TIP3    H236907   3.689   4.012  18.581 -0.1018  0.2537 -0.3484
 4238TIP3   OH236908   4.254   1.153  19.038 -0.0308  0.1201 -0.1800
 4238TIP3    H136909   4.292   1.075  19.078  0.2841  0.2180 -0.2810
 4238TIP3    H236910   4.230   1.126  18.950  1.2849  0.4689 -0.6765
 4239TIP3   OH236911   4.001   7.633  18.177 -0.7370 -0.0582  0.8337
 4239TIP3    H136912   4.008   7.552  18.127  1.3898  0.6809 -0.1503
 4239TIP3    H236913   4.091   7.654  18.202 -1.1529  2.3357  0.5142
 4240TIP3   OH236914   6.917   1.335  18.596  0.0856 -0.8074  0.0428
 4240TIP3    H136915   6.961   1.252  18.578  1.2936 -0.0270 -0.7554
 4240TIP3    H236916   6.971   1.376  18.664 -0.2591 -0.4919  0.1256
 4241TIP3   OH236917   2.417   7.192  18.659 -0.4607  0.0925 -0.7285
 4241TIP3    H136918   2.348   7.127  18.674 -0.6365  0.1535 -1.2543
 4241TIP3    H236919   2.495   7.153  18.697 -0.3687 -0.8312 -1.8046
 4242TIP3   OH236920   6.780   1.778  19.329  0.4010  0.0315  0.3198
 4242TIP3    H136921   6.857   1.722  19.336 -0.0839 -0.4658  2.1827
 4242TIP3    H236922   6.706   1.718  19.336 -0.1343  0.7663  1.1598
 4243TIP3   OH236923   0.000   7.253  17.544 -0.0206  0.2468 -0.0450
 4243TIP3    H136924   0.046   7.200  17.479 -0.6678 -0.4026  0.0128
 4243TIP3    H236925  -0.010   7.338  17.502 -1.5346 -0.5064 -1.3341
 4244TIP3   OH236926   0.184   1.609  18.361  0.1842 -0.6158 -0.4441
 4244TIP3    H136927   0.132   1.557  18.299  0.6785 -0.9367 -0.5919
 4244TIP3    H236928   0.127   1.684  18.383  0.6407  0.4325 -2.5881
 4245TIP3   OH236929   0.517   2.047  18.063  0.6720  0.4950  0.0675
 4245TIP3    H136930   0.544   2.051  17.972  0.0692 -1.3745 -0.2366
 4245TIP3    H236931   0.441   2.105  18.068 -2.0897 -2.5703 -1.7771
 4246TIP3   OH236932   4.068   1.036  19.632 -0.0290 -0.3395  0.4194
 4246TIP3    H136933   3.993   1.050  19.690 -0.1934  2.1453 -0.2816
 4246TIP3    H236934   4.144   1.041  19.690 -0.2933 -0.4165  0.7788
 4247TIP3   OH236935   0.344   0.490  19.303  0.4784  0.4328  0.0898
 4247TIP3    H136936   0.400   0.507  19.227 -0.0894  1.0740 -0.1910
 4247TIP3    H236937   0.382   0.412  19.344  0.6391 -0.0761 -0.9977
 4248TIP3   OH236938   0.512   0.400  18.075  0.2211  0.2465  0.6649
 4248TIP3    H136939   0.606   0.411  18.065  0.2534 -0.6723 -0.2005
 4248TIP3    H236940   0.501   0.318  18.122 -0.1347  0.9451  1.8292
 4249TIP3   OH236941   2.642   0.761  18.903 -0.7349 -0.1406 -0.0296
 4249TIP3    H136942   2.580   0.804  18.962  0.2492  0.1059  0.8588
 4249TIP3    H236943   2.697   0.707  18.960  0.3795  0.2687 -0.6713
 4250TIP3   OH236944   0.825   4.831  19.275 -0.0335  0.5447 -0.0089
 4250TIP3    H136945   0.752   4.778  19.242  0.5394  0.0302 -0.4500
 4250TIP3    H236946   0.792   4.865  19.358 -1.0488  0.9062 -0.5380
 4251TIP3   OH236947   6.897   3.420  17.699 -0.4498  0.2678  0.6644
 4251TIP3    H136948   6.873   3.328  17.685  0.4532 -0.1267  1.6015
 4251TIP3    H236949   6.929   3.450  17.614  0.4124 -0.6614  0.6397
 4252TIP3   OH236950   5.656   4.729  18.651 -0.6705 -0.7062 -0.0660
 4252TIP3    H136951   5.721   4.661  18.666  0.3630 -0.0143 -1.2189
 4252TIP3    H236952   5.637   4.764  18.738  1.9509  0.3664  0.1490
 4253TIP3   OH236953   4.196   0.003  19.869 -1.0318  0.2556 -0.6508
 4253TIP3    H136954   4.104   0.031  19.874 -0.5768  1.5585  1.5489
 4253TIP3    H236955   4.245   0.084  19.862  0.1444 -0.0271  2.5390
 4254TIP3   OH236956   5.232   7.367  18.656  0.0116 -0.1625 -0.3712
 4254TIP3    H136957   5.266   7.442  18.705 -0.4424  1.1921 -2.0459
 4254TIP3    H236958   5.165   7.330  18.713  0.3742  0.5851  0.5735
 4255TIP3   OH236959   7.466   3.842  18.351 -0.1523  0.2530 -0.3490
 4255TIP3    H136960   7.389   3.879  18.308 -0.0623  1.2500  0.3172
 4255TIP3    H236961   7.507   3.916  18.395  0.6269 -0.4564  0.1520
 4256TIP3   OH236962   6.182   5.969  17.593 -0.1163  0.0652 -0.6035
 4256TIP3    H136963   6.112   5.918  17.553  0.1263 -0.8736  0.1256
 4256TIP3    H236964   6.258   5.954  17.537 -0.1213 -0.1539 -0.5532
 4257TIP3   OH236965   1.861   0.673  18.652  0.4998  0.1726 -0.4831
 4257TIP3    H136966   1.935   0.622  18.619  0.7709  1.8375 -2.6775
 4257TIP3    H236967   1.899   0.757  18.677 -0.1140 -0.2142  1.9952
 4258TIP3   OH236968   3.730   5.439  18.453  0.4084  0.2467  0.1854
 4258TIP3    H136969   3.772   5.486  18.525  0.7605 -0.8464  0.6992
 4258TIP3    H236970   3.784   5.361  18.439  0.8444  0.8346 -1.8323
 4259TIP3   OH236971   2.863   5.445  19.188 -0.3767  0.4478  0.3303
 4259TIP3    H136972   2.956   5.468  19.196 -0.0729 -0.6109  0.0421
 4259TIP3    H236973   2.822   5.523  19.151  0.6136  0.5333 -0.6317
 4260TIP3   OH236974   6.993   0.309  18.413  0.0661  0.3140  0.1688
 4260TIP3    H136975   7.064   0.246  18.425  0.2234  0.2463 -0.9943
 4260TIP3    H236976   6.943   0.275  18.338 -0.1004  1.3282 -0.1978
 4261TIP3   OH236977   4.536   5.956  18.346  0.1588  0.4002 -0.8881
 4261TIP3    H136978   4.631   5.963  18.347  0.2746 -0.2891  1.7136
 4261TIP3    H236979   4.519   5.862  18.352 -0.6857  0.5169 -1.2594
 4262TIP3   OH236980   0.965   4.520  17.974  0.6205 -0.3824  0.6518
 4262TIP3    H136981   0.960   4.601  17.923  0.9275 -0.3336  0.6940
 4262TIP3    H236982   0.874   4.497  17.991  0.5186  0.8619  2.0494
 4263TIP3   OH236983   5.258   6.641  19.028 -0.0764  0.0340  0.0537
 4263TIP3    H136984   5.241   6.734  19.011 -1.5871 -0.5087 -1.7854
 4263TIP3    H236985   5.194   6.617  19.094 -0.7431 -0.0358 -0.6069
 4264TIP3   OH236986   1.478   1.146  18.084 -0.3187 -0.0130  0.2718
 4264TIP3    H136987   1.450   1.146  17.992 -1.3332  1.2656  0.5438
 4264TIP3    H236988   1.426   1.076  18.125  0.1787 -0.6231 -0.1292
 4265TIP3   OH236989   2.150   3.291  18.288  0.3073 -0.2204  0.5563
 4265TIP3    H136990   2.109   3.229  18.348 -0.7471  1.3825  1.5608
 4265TIP3    H236991   2.227   3.323  18.335 -0.4048  0.8806  1.0247
 4266TIP3   OH236992   0.145   7.295  19.323  0.0731  0.1577  0.0820
 4266TIP3    H136993   0.121   7.237  19.396  0.8339 -0.8600 -0.4399
 4266TIP3    H236994   0.199   7.363  19.364 -2.0284  1.4056  0.9453
 4267TIP3   OH236995   5.108   2.033  18.898  0.5307 -0.1283 -0.1231
 4267TIP3    H136996   5.082   1.947  18.931  0.3504  0.5483  1.5682
 4267TIP3    H236997   5.034   2.090  18.919  1.6314  0.9468  1.0161
 4268TIP3   OH236998   4.640   6.654  18.228 -0.3935  0.1250 -0.1399
 4268TIP3    H136999   4.595   6.599  18.164 -0.8128  0.5694 -0.2390
 4268TIP3    H237000   4.726   6.614  18.239 -1.1015 -1.2482  0.6957
 4269TIP3   OH237001   4.318   1.743  19.711  0.5051  0.6526 -0.3276
 4269TIP3    H137002   4.412   1.726  19.720  0.1370 -2.1342 -0.8217
 4269TIP3    H237003   4.313   1.835  19.687  3.0223  1.2076  0.8953
 4270TIP3   OH237004   4.536   3.453  19.255 -0.3646 -0.6754 -0.2018
 4270TIP3    H137005   4.496   3.376  19.213  1.2127 -2.2713  1.0637
 4270TIP3    H237006   4.626   3.453  19.222 -0.3118  0.6138 -0.1032
 4271TIP3   OH237007   4.181   3.741  18.664 -0.2929 -0.2636 -0.5384
 4271TIP3    H137008   4.125   3.666  18.645 -1.7460  1.3601 -3.2696
 4271TIP3    H237009   4.258   3.728  18.608 -0.1510 -0.1372 -0.3732
 4272TIP3   OH237010   2.454   1.324  18.452 -0.0440  0.0377 -0.0787
 4272TIP3    H137011   2.378   1.306  18.398  0.6012 -0.0962 -0.9604
 4272TIP3    H237012   2.526   1.334  18.390  1.1756 -2.3102  0.8317
 4273TIP3   OH237013   1.205   0.128  19.496 -0.0691 -0.0276 -0.0637
 4273TIP3    H137014   1.123   0.078  19.506  0.7252 -1.8187 -1.8554
 4273TIP3    H237015   1.264   0.090  19.560  0.6072 -1.7018 -1.5760
 4274TIP3   OH237016   2.735   6.381  18.103 -0.0169 -0.1641  0.3133
 4274TIP3    H137017   2.749   6.384  18.009  0.6249 -1.2210  0.3660
 4274TIP3    H237018   2.818   6.409  18.141  0.0974 -0.8415  0.5699
 4275TIP3   OH237019   0.192   0.251  18.101  0.2917  0.2085  0.1361
 4275TIP3    H137020   0.179   0.330  18.153  0.9719  1.5831 -1.7033
 4275TIP3    H237021   0.112   0.242  18.050  0.3406 -0.1138  0.1133
 4276TIP3   OH237022   1.696   3.929  19.246  0.0813 -0.0996  0.1873
 4276TIP3    H137023   1.786   3.958  19.231 -0.4333  1.1232 -0.7502
 4276TIP3    H237024   1.643   3.991  19.196 -1.4981  1.0620  3.0507
 4277TIP3   OH237025   6.000   6.138  17.362 -0.8785  0.6572 -0.0713
 4277TIP3    H137026   6.085   6.180  17.353 -0.0709 -0.7287  0.6699
 4277TIP3    H237027   5.943   6.207  17.396  0.3762  1.1809  1.0871
 4278TIP3   OH237028   6.342   3.255  19.167  0.3633 -0.1540  0.1944
 4278TIP3    H137029   6.275   3.246  19.235 -0.4979 -0.1715 -0.6424
 4278TIP3    H237030   6.301   3.222  19.087  0.9419  0.9508 -0.5929
 4279TIP3   OH237031   2.041   0.135  17.575 -0.4014  0.2652  0.6018
 4279TIP3    H137032   1.975   0.192  17.536  0.0142  0.1016 -0.3725
 4279TIP3    H237033   2.123   0.160  17.532 -0.2697 -1.3378 -0.1532
 4280TIP3   OH237034   4.576   2.195  17.918 -0.4098  0.0838  0.4438
 4280TIP3    H137035   4.636   2.270  17.912  0.1146 -0.2932  0.7999
 4280TIP3    H237036   4.500   2.228  17.966 -1.3298  1.0697 -1.6041
 4281TIP3   OH237037   2.811   3.255  17.919  0.0785  0.3964  0.1359
 4281TIP3    H137038   2.874   3.239  17.990 -0.1095 -1.6233 -0.0853
 4281TIP3    H237039   2.866   3.281  17.845  0.8178 -1.8707 -0.2163
 4282TIP3   OH237040   6.003   6.379  19.167 -0.1056  0.5844  0.0108
 4282TIP3    H137041   5.993   6.389  19.262 -0.3052  0.0307  0.0513
 4282TIP3    H237042   5.925   6.419  19.130  0.2678  1.3569  0.0463
 4283TIP3   OH237043   2.447   4.062  18.934  0.2789  0.7806 -0.4734
 4283TIP3    H137044   2.407   3.982  18.900  0.3601  0.3586  0.4108
 4283TIP3    H237045   2.539   4.054  18.912  0.5192  0.0151  0.7427
 4284TIP3   OH237046   0.681   6.761  17.760 -0.5029  0.1833 -0.4043
 4284TIP3    H137047   0.598   6.794  17.793 -0.2659  0.0524  0.3363
 4284TIP3    H237048   0.676   6.773  17.665 -1.5891 -0.3167 -0.4271
 4285TIP3   OH237049   1.148   0.905  17.783  0.3876 -0.0653  0.1223
 4285TIP3    H137050   1.125   0.820  17.821  0.8737 -0.9219 -1.4312
 4285TIP3    H237051   1.070   0.959  17.796 -0.9229 -1.5575 -1.1662
 4286TIP3   OH237052   3.412   0.163  18.322  0.4609 -0.6704 -0.3446
 4286TIP3    H137053   3.342   0.228  18.318 -1.4811 -2.6953 -1.4150
 4286TIP3    H237054   3.448   0.160  18.234  1.3937 -0.1973  0.0097
 4287TIP3   OH237055   1.517   5.414  18.661  0.1457  0.4402  0.0094
 4287TIP3    H137056   1.440   5.422  18.605 -0.3779  2.9269  0.9616
 4287TIP3    H237057   1.481   5.398  18.749  0.6968  1.4524  0.4313
 4288TIP3   OH237058   5.643   3.222  18.824 -0.2394 -0.3436 -0.0288
 4288TIP3    H137059   5.636   3.175  18.907  1.6105 -2.5526 -1.0479
 4288TIP3    H237060   5.573   3.288  18.829  0.5034  0.4432  3.7464
 4289TIP3   OH237061   2.602   4.101  18.152  0.4779  0.2858 -0.4750
 4289TIP3    H137062   2.535   4.042  18.186  1.0634  0.7828  1.7235
 4289TIP3    H237063   2.555   4.179  18.124  0.0146  0.1131 -0.1830
 4290TIP3   OH237064   2.228   6.973  17.865 -0.2644 -0.0029  0.8456
 4290TIP3    H137065   2.183   7.007  17.788  1.2636 -1.2167 -0.6416
 4290TIP3    H237066   2.243   7.049  17.921 -0.0244  1.1614 -0.7718
 4291TIP3   OH237067   5.455   4.764  19.498  0.1889 -0.0066 -0.1021
 4291TIP3    H137068   5.441   4.703  19.425  0.5915 -0.3260  0.0840
 4291TIP3    H237069   5.534   4.732  19.541 -0.0813  0.1436  0.5165
 4292TIP3   OH237070   4.485   0.994  18.181  0.0629  0.3403 -0.2393
 4292TIP3    H137071   4.536   1.023  18.106 -0.6743  1.1006 -0.4569
 4292TIP3    H237072   4.531   0.917  18.213  0.7035  0.3463 -1.1222
 4293TIP3   OH237073   3.094   7.240  18.030 -0.0628 -0.1610  0.0722
 4293TIP3    H137074   3.019   7.181  18.032 -1.8931  1.9695 -0.9289
 4293TIP3    H237075   3.164   7.192  18.073 -2.2129 -1.9627  1.8037
 4294TIP3   OH237076   5.759   5.056  18.850 -0.2523  0.6820  0.2961
 4294TIP3    H137077   5.793   5.004  18.778  0.0110  1.5784 -0.2515
 4294TIP3    H237078   5.677   5.014  18.874  0.6506 -0.8409  0.8751
 4295TIP3   OH237079   1.459   4.491  19.652 -0.7935 -0.2815  0.3781
 4295TIP3    H137080   1.369   4.508  19.626 -0.5526 -0.3919 -0.5642
 4295TIP3    H237081   1.487   4.418  19.596  0.1380  0.2927  0.0732
 4296TIP3   OH237082   5.634   3.151  17.230 -0.2953 -0.0559 -0.4565
 4296TIP3    H137083   5.622   3.084  17.297  1.2347 -0.2307 -0.3184
 4296TIP3    H237084   5.554   3.147  17.177 -1.5215  0.0655  1.3176
 4297TIP3   OH237085   2.369   4.798  18.321 -0.5413  0.0966  0.0533
 4297TIP3    H137086   2.408   4.726  18.271 -0.3787  0.8082 -0.8911
 4297TIP3    H237087   2.437   4.824  18.383 -1.0001 -1.2603  1.1766
 4298TIP3   OH237088   4.047   0.338  17.914 -0.4768 -0.5341 -0.0736
 4298TIP3    H137089   4.010   0.373  17.995  0.8228 -1.1067  0.7984
 4298TIP3    H237090   4.119   0.398  17.893  0.0365 -1.1282 -0.0534
 4299TIP3   OH237091   3.355   2.193  19.265 -0.3226 -0.3012 -0.2807
 4299TIP3    H137092   3.368   2.271  19.318 -0.0371 -1.2616  1.1302
 4299TIP3    H237093   3.273   2.208  19.218  0.3767  1.3667 -1.0420
 4300TIP3   OH237094   3.837   5.880  17.660 -0.1962 -0.3424 -0.1435
 4300TIP3    H137095   3.846   5.892  17.566 -1.9142  0.6616 -0.2396
 4300TIP3    H237096   3.849   5.968  17.696  0.1421 -0.6647  0.5532
 4301TIP3   OH237097   6.007   5.149  17.045 -0.1700 -0.8997 -0.1427
 4301TIP3    H137098   6.060   5.199  17.107 -1.2810  0.2944 -0.1368
 4301TIP3    H237099   6.072   5.103  16.991  0.9524  1.4714 -0.9559
 4302TIP3   OH237100   2.180   2.352  19.914  0.7340  0.0698  0.6411
 4302TIP3    H137101   2.206   2.260  19.912  0.6956  0.0663  0.0520
 4302TIP3    H237102   2.228   2.389  19.987  0.1568 -0.5940  1.3705
 4303TIP3   OH237103   6.479   2.822  19.405  0.3637 -0.3451 -0.2568
 4303TIP3    H137104   6.523   2.787  19.483 -0.3948 -0.8863 -0.0619
 4303TIP3    H237105   6.546   2.874  19.362  0.6642  0.3504  0.9993
 4304TIP3   OH237106   7.464   0.512  19.123 -0.0869 -0.2421  0.0236
 4304TIP3    H137107   7.491   0.474  19.040  1.1357  0.9672 -0.1869
 4304TIP3    H237108   7.535   0.574  19.145 -1.9362  1.8982  0.3225
 4305TIP3   OH237109   1.383   7.217  19.848  0.1429  0.5782  0.0982
 4305TIP3    H137110   1.300   7.172  19.864 -0.6308  1.5321 -1.0332
 4305TIP3    H237111   1.429   7.161  19.785  0.8799 -0.5097  1.5511
 4306TIP3   OH237112   2.556   1.561  17.857 -0.3715  0.0306  0.1007
 4306TIP3    H137113   2.481   1.552  17.797  1.1351 -0.5406 -1.8167
 4306TIP3    H237114   2.609   1.631  17.819  1.8545 -1.9621 -0.7328
 4307TIP3   OH237115   0.894   3.122  19.584 -0.0553 -0.5170 -1.1460
 4307TIP3    H137116   0.814   3.094  19.540 -1.0825 -0.3827  0.5251
 4307TIP3    H237117   0.864   3.187  19.647  0.6074 -3.3001  2.3932
 4308TIP3   OH237118   3.948   1.877  17.767  0.1031 -0.2083  0.2680
 4308TIP3    H137119   3.939   1.838  17.681  1.7272 -0.0918  0.0073
 4308TIP3    H237120   3.970   1.804  17.825  1.2764  0.0108  0.1305
 4309TIP3   OH237121   3.776   3.812  17.549 -0.0125  0.0370 -0.6379
 4309TIP3    H137122   3.744   3.831  17.460 -0.2025 -0.1857 -0.6186
 4309TIP3    H237123   3.783   3.898  17.590  1.1071  0.2375 -1.2087
 4310TIP3   OH237124   2.696   4.337  19.135 -0.0788  0.1129  0.0251
 4310TIP3    H137125   2.765   4.317  19.072  1.6132  2.3265  1.0372
 4310TIP3    H237126   2.631   4.387  19.086  0.7452  0.9719 -0.2038
 4311TIP3   OH237127   5.052   2.941  19.760  0.1841 -0.1647  0.2657
 4311TIP3    H137128   5.144   2.927  19.738  0.4658 -0.2639  1.4256
 4311TIP3    H237129   5.044   3.036  19.769 -1.0124  0.4542 -4.5759
 4312TIP3   OH237130   3.644   2.904  18.884 -0.1821  0.1727 -0.1705
 4312TIP3    H137131   3.582   2.833  18.901 -0.3044  0.1322 -0.7566
 4312TIP3    H237132   3.702   2.904  18.960  0.6906 -1.4551 -0.7999
 4313TIP3   OH237133   2.714   3.788  20.081 -0.3197  0.5986  0.3376
 4313TIP3    H137134   2.763   3.799  20.162 -0.4531 -1.9784  0.8686
 4313TIP3    H237135   2.763   3.720  20.033 -0.9281  1.1843 -1.1806
 4314TIP3   OH237136   4.116   4.449  19.515  0.2894  0.1460  0.0043
 4314TIP3    H137137   4.103   4.539  19.485 -0.7722 -0.4880 -1.5656
 4314TIP3    H237138   4.056   4.439  19.589 -1.2674  0.0957 -1.2239
 4315TIP3   OH237139   2.881   3.771  19.812 -0.0023  0.3329  0.3928
 4315TIP3    H137140   2.827   3.734  19.741  1.9390 -0.4418 -0.7671
 4315TIP3    H237141   2.846   3.859  19.825  0.2625  0.9440 -2.3528
 4316TIP3   OH237142   1.776   5.213  18.424  0.4968  0.0000  0.3023
 4316TIP3    H137143   1.810   5.139  18.374  0.6217  0.8999 -1.0314
 4316TIP3    H237144   1.769   5.182  18.514  1.3005 -1.3611 -0.0857
 4317TIP3   OH237145   4.761   2.528  19.796  0.6783  0.6720 -0.2476
 4317TIP3    H137146   4.758   2.622  19.781 -1.2050  0.3917 -2.0492
 4317TIP3    H237147   4.735   2.518  19.888  1.1651  1.9043  0.0452
 4318TIP3   OH237148   3.179   1.840  19.557  0.1129  0.1033  0.3294
 4318TIP3    H137149   3.256   1.788  19.535 -0.4846  0.0396 -1.9249
 4318TIP3    H237150   3.212   1.929  19.571  0.5646  0.2554 -1.4539
 4319TIP3   OH237151   5.534   6.028  18.520 -0.1301  0.4160  0.4615
 4319TIP3    H137152   5.498   6.027  18.431  0.7232 -1.6634  0.0775
 4319TIP3    H237153   5.465   5.991  18.575  0.3065 -0.8143  0.2039
 4320TIP3   OH237154   3.014   0.747  19.183 -0.1775  0.1872  0.2084
 4320TIP3    H137155   3.061   0.811  19.130 -1.0464  0.5674 -0.1312
 4320TIP3    H237156   2.943   0.798  19.223 -1.8613 -0.8332 -1.3234
 4321TIP3   OH237157   3.014   4.682  18.482 -0.3448  0.2858 -0.2157
 4321TIP3    H137158   3.101   4.647  18.465 -0.6015 -0.3953 -0.1606
 4321TIP3    H237159   3.003   4.753  18.419  1.1463  1.9195  1.2788
 4322TIP3   OH237160   2.572   1.764  17.664  0.0347 -0.7767  0.6513
 4322TIP3    H137161   2.487   1.764  17.620  0.2491 -2.2072  0.1815
 4322TIP3    H237162   2.628   1.818  17.609  0.3393 -2.6549 -0.9995
 4323TIP3   OH237163   4.362   2.250  19.482  0.5156  0.2197 -0.3106
 4323TIP3    H137164   4.387   2.317  19.546 -1.0419  0.5262  0.0181
 4323TIP3    H237165   4.378   2.292  19.397 -0.9711  1.2655 -0.1152
 4324TIP3   OH237166   1.024   3.479  18.855  0.0682 -0.4071  0.0622
 4324TIP3    H137167   0.983   3.394  18.842  0.5387 -0.5848 -0.2959
 4324TIP3    H237168   1.081   3.467  18.931  1.3469 -0.8863 -0.9187
 4325TIP3   OH237169   6.010   2.282  19.904 -0.4104 -0.2453  0.2187
 4325TIP3    H137170   5.929   2.239  19.929 -0.5781  0.1362  0.3288
 4325TIP3    H237171   5.986   2.341  19.832 -0.2641 -0.0191  0.3513
 4326TIP3   OH237172   3.930   0.721  19.677 -0.5652 -0.1972  0.3692
 4326TIP3    H137173   3.879   0.656  19.725  1.4264 -1.1612  1.2730
 4326TIP3    H237174   3.996   0.751  19.740  1.7365 -1.0295 -1.5338
 4327TIP3   OH237175   2.950   4.926  18.751  0.3531  0.1523 -0.0166
 4327TIP3    H137176   2.968   4.939  18.658 -0.7590 -2.1336 -0.6095
 4327TIP3    H237177   2.862   4.888  18.753  1.3249 -2.2389  1.7597
 4328TIP3   OH237178   2.983   4.189  19.285  0.2426  0.1718  0.6724
 4328TIP3    H137179   2.892   4.163  19.272  0.7997 -1.9647  0.6037
 4328TIP3    H237180   3.021   4.116  19.335  2.0560  0.7119  0.1472
 4329TIP3   OH237181   1.874   2.401  19.907 -0.0745 -0.2915  0.2220
 4329TIP3    H137182   1.968   2.391  19.918  0.1657  0.2247 -1.0898
 4329TIP3    H237183   1.865   2.474  19.845 -1.3817  0.5902  1.3861
 4330TIP3   OH237184   5.761   5.858  17.548  0.2023  0.2052 -0.1481
 4330TIP3    H137185   5.726   5.928  17.605 -2.1390 -0.8676 -0.1655
 4330TIP3    H237186   5.747   5.891  17.459 -1.3719 -0.4351 -0.1691
 4331TIP3   OH237187   5.324   1.374  19.310  0.8418 -0.6417  0.0159
 4331TIP3    H137188   5.399   1.325  19.342 -0.3679 -1.8628  1.0951
 4331TIP3    H237189   5.320   1.353  19.216  2.2512  0.0395 -0.2195
 4332TIP3   OH237190   3.508   7.643  19.334  0.4776 -0.5345 -0.2362
 4332TIP3    H137191   3.426   7.624  19.287  0.8148  0.1361 -1.1080
 4332TIP3    H237192   3.531   7.732  19.308  0.1200  0.2992  2.0266
 4333TIP3   OH237193   5.048   5.424  18.025 -0.0584  0.0454  0.3070
 4333TIP3    H137194   5.067   5.352  17.964  0.4196  0.3079  0.1422
 4333TIP3    H237195   4.956   5.410  18.050 -0.0351 -0.4977  0.1115
 4334TIP3   OH237196   5.562   3.641  18.504  0.5968  0.4003  0.3326
 4334TIP3    H137197   5.562   3.725  18.550  1.3481  0.1711  0.7678
 4334TIP3    H237198   5.633   3.591  18.544  1.8063  0.4646 -1.5873
 4335TIP3   OH237199   1.674   0.240  17.755  0.1937  0.3156  0.0072
 4335TIP3    H137200   1.639   0.217  17.669  1.0230 -2.2071  0.2554
 4335TIP3    H237201   1.758   0.283  17.737 -0.3112  1.1434 -0.4409
 4336TIP3   OH237202   4.765   5.270  18.043 -0.0186 -0.1763 -0.3655
 4336TIP3    H137203   4.768   5.221  18.125 -1.7039 -1.4043 -0.9829
 4336TIP3    H237204   4.721   5.211  17.981 -1.3766  1.7768 -1.3693
 4337TIP3   OH237205   4.068   1.252  18.373  0.4649  0.2739  0.0790
 4337TIP3    H137206   4.099   1.314  18.439 -1.4588 -0.8764  2.2164
 4337TIP3    H237207   4.079   1.166  18.414 -0.8222 -0.4915 -1.0851
 4338TIP3   OH237208   4.648   5.139  17.843 -0.4797  0.1734 -0.1545
 4338TIP3    H137209   4.589   5.068  17.815 -1.1650  0.6977 -0.0656
 4338TIP3    H237210   4.708   5.150  17.769 -1.7496  0.9725 -1.1109
 4339TIP3   OH237211   6.568   4.184  18.207 -0.0720 -0.3126 -0.0417
 4339TIP3    H137212   6.528   4.192  18.293  0.3965  1.3521  0.0632
 4339TIP3    H237213   6.560   4.272  18.168  1.6713 -0.4291 -0.7864
 4340TIP3   OH237214   6.404   2.910  19.797  0.1155  0.3328  0.0980
 4340TIP3    H137215   6.332   2.848  19.809  1.0239 -0.4768  1.8175
 4340TIP3    H237216   6.378   2.963  19.722 -0.9969 -1.7095 -1.0513
 4341TIP3   OH237217   6.485   7.620  19.716  0.3736 -0.1511 -0.0807
 4341TIP3    H137218   6.521   7.546  19.666  0.9602  0.6612 -0.9135
 4341TIP3    H237219   6.422   7.580  19.776  0.6807 -1.3252 -0.4978
 4342TIP3   OH237220   3.867   2.674  18.343  0.6052 -0.6444 -0.6840
 4342TIP3    H137221   3.824   2.680  18.429  0.5476  2.1611 -0.8225
 4342TIP3    H237222   3.956   2.705  18.360  0.2386  1.1433 -1.8132
 4343TIP3   OH237223   1.855   0.820  17.853 -0.4808  0.6987  0.3114
 4343TIP3    H137224   1.923   0.812  17.786 -0.7380 -3.2831  0.2874
 4343TIP3    H237225   1.897   0.793  17.934 -1.7031 -0.8756  0.4752
 4344TIP3   OH237226   0.511   2.138  18.407  0.1177  0.2215  0.5427
 4344TIP3    H137227   0.592   2.091  18.427  0.2904  0.1535 -0.2560
 4344TIP3    H237228   0.449   2.111  18.475  1.1305  1.2638  1.9264
 4345TIP3   OH237229   0.226   0.333  18.649  0.2337  0.6962  0.2223
 4345TIP3    H137230   0.262   0.355  18.563 -1.7550 -1.5989 -1.3378
 4345TIP3    H237231   0.301   0.302  18.699  1.3768  1.6985 -0.8129
 4346TIP3   OH237232   3.679   0.305  17.678 -0.0614 -0.9255 -0.3955
 4346TIP3    H137233   3.750   0.241  17.677  1.3288  0.5217  0.4757
 4346TIP3    H237234   3.703   0.369  17.611 -0.8976 -0.7855 -0.5685
 4347TIP3   OH237235   1.578   6.387  18.360  0.3616 -0.1109 -0.2246
 4347TIP3    H137236   1.556   6.463  18.306  0.0316 -0.6315 -0.8430
 4347TIP3    H237237   1.568   6.418  18.450  0.9116  0.7704 -0.4515
 4348TIP3   OH237238   0.878   3.183  18.459  0.2378  0.4302 -0.5737
 4348TIP3    H137239   0.823   3.124  18.510 -1.0054  2.3545  0.4334
 4348TIP3    H237240   0.866   3.154  18.368  0.8141 -1.7165 -0.0075
 4349TIP3   OH237241   7.386   0.663  17.123 -0.0599 -0.4271 -0.5446
 4349TIP3    H137242   7.467   0.620  17.099 -0.3135 -1.4320  0.3393
 4349TIP3    H237243   7.325   0.592  17.142 -0.3033  0.2594  1.5751
 4350TIP3   OH237244   1.624   4.293  19.499 -0.2447 -0.4161 -0.4484
 4350TIP3    H137245   1.613   4.200  19.520  0.1049 -0.6590 -1.3218
 4350TIP3    H237246   1.717   4.302  19.478 -0.4375 -0.0252 -1.1561
 4351TIP3   OH237247   3.999   7.581  18.551  0.8752  0.2424  0.4203
 4351TIP3    H137248   3.961   7.668  18.563 -0.0063 -0.3350  2.2894
 4351TIP3    H237249   3.969   7.531  18.628  0.7199 -1.9449 -0.9583
 4352TIP3   OH237250   7.291   1.161  19.325  0.8111  0.0674 -0.3304
 4352TIP3    H137251   7.302   1.077  19.369  1.0132  0.4247  0.3050
 4352TIP3    H237252   7.250   1.218  19.390  2.9167  1.1832  0.0781
 4353TIP3   OH237253   7.413   2.783  17.040 -0.0594 -0.0076 -0.6650
 4353TIP3    H137254   7.367   2.710  16.998 -0.0350 -0.5334  0.1969
 4353TIP3    H237255   7.375   2.861  16.999 -1.3192 -0.4498 -0.4048
 4354TIP3   OH237256   7.371   2.768  19.711 -0.3340  0.2420  0.4257
 4354TIP3    H137257   7.298   2.713  19.683 -0.3804  1.4905 -2.2414
 4354TIP3    H237258   7.330   2.838  19.762 -1.4265  1.9412 -2.5087
 4355TIP3   OH237259   3.838   2.535  18.088 -0.6382 -0.1968  0.0799
 4355TIP3    H137260   3.787   2.462  18.124  0.6447 -1.2490 -0.1742
 4355TIP3    H237261   3.853   2.592  18.163  0.4491 -1.4516  0.8662
 4356TIP3   OH237262   3.698   4.912  17.702  0.5858  0.1088  0.0445
 4356TIP3    H137263   3.769   4.855  17.732  1.9442  1.8791  0.3460
 4356TIP3    H237264   3.625   4.852  17.686  1.6924 -1.6169  1.0666
 4357TIP3   OH237265   1.040   7.668  19.647 -1.0017  0.0106  0.0946
 4357TIP3    H137266   1.126   7.660  19.688  0.0641  3.3948 -1.1565
 4357TIP3    H237267   1.024   7.581  19.609  1.1365 -1.1492  1.6269
 4358TIP3   OH237268   6.498   0.323  17.063 -0.3967  0.1469  0.7588
 4358TIP3    H137269   6.470   0.238  17.097  2.6839 -1.5276 -0.5414
 4358TIP3    H237270   6.540   0.365  17.138  0.9286 -0.9029  0.6403
 4359TIP3   OH237271   0.681   6.525  19.484 -0.1014  0.2491 -0.0542
 4359TIP3    H137272   0.771   6.529  19.454  0.4870 -0.7873  1.4697
 4359TIP3    H237273   0.638   6.464  19.424 -0.1599  1.7210 -1.5719
 4360TIP3   OH237274   4.373   4.929  19.627 -0.1168 -0.1925  0.3606
 4360TIP3    H137275   4.285   4.962  19.648  0.2701 -0.2432  2.1858
 4360TIP3    H237276   4.372   4.838  19.655  0.5405 -0.1618  0.5033
 4361TIP3   OH237277   0.400   2.335  19.505  0.1226 -0.5367 -0.1252
 4361TIP3    H137278   0.446   2.401  19.452 -3.2783  1.2638 -1.0905
 4361TIP3    H237279   0.408   2.255  19.453  0.6040  0.1521 -1.1743
 4362TIP3   OH237280   3.230   0.873  18.216 -0.3527 -0.1662  0.1863
 4362TIP3    H137281   3.279   0.928  18.278 -0.8025 -1.1667  1.4742
 4362TIP3    H237282   3.199   0.934  18.150 -0.1366  1.0035  1.1183
 4363TIP3   OH237283   5.874   2.435  19.700  0.0556  0.2887 -0.0300
 4363TIP3    H137284   5.908   2.392  19.621  0.4513  0.4503  0.0511
 4363TIP3    H237285   5.783   2.406  19.705 -0.2278  0.9584 -1.0330
 4364TIP3   OH237286   1.272   6.382  18.472 -0.1729  0.2790 -0.2848
 4364TIP3    H137287   1.349   6.402  18.418  1.4093 -1.1193  1.3002
 4364TIP3    H237288   1.302   6.394  18.562 -1.4657 -1.3564  0.4242
 4365TIP3   OH237289   0.608   3.796  18.818  0.6703 -0.4913 -0.4625
 4365TIP3    H137290   0.653   3.804  18.903 -2.5044  1.3943  1.1995
 4365TIP3    H237291   0.581   3.885  18.796 -4.6283 -1.6100  0.2025
 4366TIP3   OH237292   4.876   2.891  18.271  0.0030  0.2106 -0.0886
 4366TIP3    H137293   4.815   2.829  18.312  0.2396  0.5908  0.8671
 4366TIP3    H237294   4.960   2.844  18.268  0.6836  1.1147  2.4523
 4367TIP3   OH237295   2.143   5.173  19.225 -0.6671 -0.2717  1.0227
 4367TIP3    H137296   2.141   5.187  19.319 -2.1905  0.2606  0.9285
 4367TIP3    H237297   2.064   5.215  19.192  1.4478  2.6501 -0.9165
 4368TIP3   OH237298   6.913   0.810  18.403 -0.4068 -0.1549 -0.4383
 4368TIP3    H137299   6.959   0.733  18.438  1.1150 -0.5532 -3.0354
 4368TIP3    H237300   6.976   0.881  18.412 -0.5125  0.0262 -1.1281
 4369TIP3   OH237301   2.598   4.034  19.701  0.8626 -0.1677  0.3159
 4369TIP3    H137302   2.577   3.994  19.617  0.8808 -0.2190  0.3353
 4369TIP3    H237303   2.514   4.068  19.733  1.0398  0.8514 -0.2477
 4370TIP3   OH237304   3.517   3.628  17.763 -0.4936  0.1932  0.0374
 4370TIP3    H137305   3.610   3.619  17.742 -0.2234 -0.0154  1.2493
 4370TIP3    H237306   3.511   3.713  17.808 -0.8609  0.1335  0.1045
 4371TIP3   OH237307   7.671   2.670  17.061 -0.0302 -0.3186  0.1432
 4371TIP3    H137308   7.596   2.724  17.036  0.0301  0.1426  0.8975
 4371TIP3    H237309   7.677   2.681  17.156  1.1416 -0.1439  0.0691
 4372TIP3   OH237310   7.569   5.186  19.332  0.7256 -0.1942  0.1428
 4372TIP3    H137311   7.506   5.254  19.354  1.1764  0.5917 -0.9122
 4372TIP3    H237312   7.544   5.158  19.244  0.5813 -1.3632  0.5450
 4373TIP3   OH237313   3.774   1.371  19.534 -0.1135 -0.4076 -0.3679
 4373TIP3    H137314   3.773   1.466  19.526 -0.7557 -0.1923  1.6417
 4373TIP3    H237315   3.790   1.339  19.446 -0.0513  1.5592 -1.1067
 4374TIP3   OH237316   6.874   1.766  19.693  0.3235  0.2909  0.0093
 4374TIP3    H137317   6.786   1.797  19.672 -0.2246 -0.6408  0.8483
 4374TIP3    H237318   6.869   1.741  19.785  0.9520 -1.4412 -0.3905
 4375TIP3   OH237319   1.277   4.459  18.999 -0.1688  0.2667  0.2462
 4375TIP3    H137320   1.348   4.517  19.028 -0.2280  0.4467  0.0323
 4375TIP3    H237321   1.241   4.424  19.080  1.1323 -1.0016  0.3147
 4376TIP3   OH237322   2.123   6.760  18.558  0.4692  0.0413  0.0216
 4376TIP3    H137323   2.153   6.832  18.502 -0.9570  1.5525  1.1257
 4376TIP3    H237324   2.030   6.750  18.538  0.5185 -1.1678  0.2792
 4377TIP3   OH237325   2.555   3.462  18.428 -0.2109  0.3976 -0.2971
 4377TIP3    H137326   2.612   3.444  18.503 -0.2166  1.6254  0.0076
 4377TIP3    H237327   2.594   3.410  18.357  0.8888  0.6794  0.0827
 4378TIP3   OH237328   5.645   6.633  18.330 -0.4068 -0.1526  0.1512
 4378TIP3    H137329   5.653   6.539  18.315 -1.0019 -0.0850 -0.6313
 4378TIP3    H237330   5.609   6.668  18.249 -0.1888  0.7574  0.4302
 4379TIP3   OH237331   7.037   5.171  17.196 -0.1367 -0.5907  0.3438
 4379TIP3    H137332   7.122   5.210  17.217 -1.3850  2.0443  0.9823
 4379TIP3    H237333   6.973   5.237  17.222 -2.5412 -3.2373  1.7336
 4380TIP3   OH237334   3.821   2.860  19.355  0.3241 -0.3599 -0.0613
 4380TIP3    H137335   3.830   2.950  19.324 -1.1416  0.0219  0.5002
 4380TIP3    H237336   3.762   2.819  19.292 -1.3763 -0.0408  1.2419
 4381TIP3   OH237337   1.526   7.434  19.822  0.2675 -0.3764 -0.4991
 4381TIP3    H137338   1.595   7.412  19.884  1.1342 -1.4048 -1.7824
 4381TIP3    H237339   1.454   7.375  19.844 -0.0527  0.3501  0.5105
 4382TIP3   OH237340   5.622   1.003  18.182 -0.1126  0.0769  0.0512
 4382TIP3    H137341   5.537   1.043  18.163 -0.4023 -1.1754 -1.5609
 4382TIP3    H237342   5.632   1.011  18.277 -0.6732  2.8208 -0.0272
 4383TIP3   OH237343   5.902   5.359  18.649  0.9612  0.0959  0.2764
 4383TIP3    H137344   5.888   5.451  18.672  0.8200 -0.1069  0.9957
 4383TIP3    H237345   5.941   5.320  18.726  1.6220 -0.3125 -0.2543
 4384TIP3   OH237346   4.238   1.249  19.680 -0.3193  0.0904  0.2911
 4384TIP3    H137347   4.283   1.333  19.671 -0.1662 -0.1803 -2.2026
 4384TIP3    H237348   4.147   1.272  19.699  0.1239  0.7268  1.7587
 4385TIP3   OH237349   6.560   2.623  19.970 -0.0666 -0.2244 -0.7802
 4385TIP3    H137350   6.618   2.558  19.931 -0.4427 -1.0253 -0.0424
 4385TIP3    H237351   6.506   2.573  20.031  0.1078  0.8877  0.3221
 4386TIP3   OH237352   0.812   7.423  17.653  0.2712  0.8213  0.0155
 4386TIP3    H137353   0.826   7.484  17.581 -0.4988  0.1334 -0.7357
 4386TIP3    H237354   0.752   7.468  17.713  2.0374  1.9939  1.0224
 4387TIP3   OH237355   5.016   0.485  18.765  0.4813  0.0842  0.0196
 4387TIP3    H137356   5.019   0.576  18.794 -0.5753 -0.2105  1.1376
 4387TIP3    H237357   5.058   0.436  18.836 -0.6153 -0.4740  0.3074
 4388TIP3   OH237358   4.499   3.839  17.732  0.1840  0.6143 -0.2238
 4388TIP3    H137359   4.507   3.934  17.740 -0.6364  0.8590 -1.8968
 4388TIP3    H237360   4.411   3.825  17.699  0.4570 -0.7132 -0.4525
 4389TIP3   OH237361   5.836   2.633  18.947 -0.0247  0.0760 -0.2668
 4389TIP3    H137362   5.793   2.571  18.888  0.0677  0.3223 -0.5963
 4389TIP3    H237363   5.766   2.693  18.974 -0.1521 -0.2681  0.1905
 4390TIP3   OH237364   5.521   1.268  17.396 -0.3101  0.4375  0.3598
 4390TIP3    H137365   5.484   1.354  17.377 -0.0357  0.6867  0.9456
 4390TIP3    H237366   5.515   1.220  17.313 -2.0265  0.4418  0.4384
 4391TIP3   OH237367   2.811   2.570  18.079  0.1847  0.0631  0.0555
 4391TIP3    H137368   2.715   2.573  18.084  0.2594  1.2335  1.8014
 4391TIP3    H237369   2.834   2.493  18.132  0.1933 -1.1118 -1.5904
 4392TIP3   OH237370   3.907   1.869  18.674  0.7101  0.0847  1.1775
 4392TIP3    H137371   3.938   1.798  18.618  2.2959  0.8807  0.9702
 4392TIP3    H237372   3.865   1.825  18.748 -0.8182 -0.9951 -0.2654
 4393TIP3   OH237373   2.910   5.383  20.081  0.3527  0.3186 -0.2863
 4393TIP3    H137374   2.965   5.409  20.155  3.0453  1.5112 -2.4968
 4393TIP3    H237375   2.856   5.460  20.062  1.8525  1.1690 -1.3234
 4394TIP3   OH237376   1.436   4.991  18.650 -0.4496 -0.0992  0.3672
 4394TIP3    H137377   1.487   4.960  18.575 -0.8754 -3.5210  1.2904
 4394TIP3    H237378   1.356   5.027  18.612 -0.7308 -1.9237 -0.9017
 4395TIP3   OH237379   5.601   3.006  17.818 -0.7121  0.4999  0.1911
 4395TIP3    H137380   5.662   2.938  17.788 -0.6827  0.5707  0.0873
 4395TIP3    H237381   5.518   2.983  17.775 -0.5190  0.9520 -0.4477
 4396TIP3   OH237382   0.545   3.000  19.200 -0.6402  0.4392 -0.8049
 4396TIP3    H137383   0.507   2.987  19.287 -1.2613 -0.9438 -1.2499
 4396TIP3    H237384   0.607   3.071  19.211 -0.7976  0.3686  0.7449
 4397TIP3   OH237385   1.576   1.383  19.221 -0.4699  0.0736  0.3680
 4397TIP3    H137386   1.595   1.455  19.161 -0.3939  2.0646  2.6293
 4397TIP3    H237387   1.491   1.406  19.259 -2.6235 -3.2616 -1.8511
 4398TIP3   OH237388   2.181   1.355  19.240  0.3030 -0.0260  0.2409
 4398TIP3    H137389   2.214   1.357  19.330 -0.8528  3.6543  0.7613
 4398TIP3    H237390   2.251   1.314  19.189  1.5039 -1.1066  2.6181
 4399TIP3   OH237391   0.077   0.289  18.368  0.0433 -0.2079  0.2215
 4399TIP3    H137392   0.156   0.235  18.365  0.5059  0.3189  2.0146
 4399TIP3    H237393   0.011   0.233  18.408 -0.8527 -0.9849 -2.1253
 4400TIP3   OH237394   3.119   3.657  18.918  0.3586  0.1926 -0.1874
 4400TIP3    H137395   3.191   3.653  18.981  2.6514 -1.3787 -2.7127
 4400TIP3    H237396   3.151   3.713  18.848 -1.5030  0.6250 -0.7429
 4401TIP3   OH237397   0.666   5.163  18.128 -0.6912  0.1103 -0.0834
 4401TIP3    H137398   0.643   5.136  18.217  0.6747  0.1505  0.3089
 4401TIP3    H237399   0.622   5.247  18.115  1.2821  1.5359  1.6419
 4402TIP3   OH237400   6.973   4.186  19.443 -0.3973  0.2715  1.2239
 4402TIP3    H137401   7.008   4.116  19.388  0.9069  1.9407 -0.1710
 4402TIP3    H237402   6.935   4.249  19.382 -2.0668  0.5653  2.4789
 4403TIP3   OH237403   5.239   6.907  19.025 -0.1540  0.0524  0.4224
 4403TIP3    H137404   5.173   6.940  18.963 -0.7302  1.9628  1.9434
 4403TIP3    H237405   5.322   6.939  18.991 -0.1656 -0.8991 -0.5750
 4404TIP3   OH237406   1.032   2.723  19.677 -0.1055  0.1698  1.0578
 4404TIP3    H137407   1.039   2.629  19.694 -0.7192 -0.3351 -1.0790
 4404TIP3    H237408   1.116   2.759  19.704  0.4257 -1.1387  1.2090
 4405TIP3   OH237409   6.919   4.069  17.701  0.3712 -0.2082 -0.1247
 4405TIP3    H137410   6.842   4.109  17.741  1.0754 -0.5561  1.6875
 4405TIP3    H237411   6.890   4.042  17.613 -0.7947  2.0441 -0.5022
 4406TIP3   OH237412   2.966   5.595  19.668  0.0191  0.3005 -0.1976
 4406TIP3    H137413   2.979   5.649  19.590 -0.6878  0.4453 -0.2239
 4406TIP3    H237414   2.914   5.651  19.727 -1.6486 -0.7056 -0.6448
 4407TIP3   OH237415   6.099   7.577  18.663 -0.3602 -0.0843  0.5486
 4407TIP3    H137416   6.115   7.527  18.583 -1.0595  0.0349  0.3306
 4407TIP3    H237417   6.109   7.513  18.733  3.2502  0.3887  0.6503
 4408TIP3   OH237418   5.267   2.575  18.573  0.0523 -0.3061 -0.8142
 4408TIP3    H137419   5.321   2.506  18.609  1.1592  1.1737  0.5019
 4408TIP3    H237420   5.179   2.556  18.604  0.5145 -0.5861  0.3827
 4409TIP3   OH237421   2.959   2.991  19.992 -0.4619 -0.3806 -0.1097
 4409TIP3    H137422   2.927   2.901  19.995 -2.3872  0.1601 -1.7188
 4409TIP3    H237423   2.948   3.017  19.901  2.2832  0.7730 -0.1902
 4410TIP3   OH237424   6.333   1.652  19.561  0.4077 -0.0481 -0.1545
 4410TIP3    H137425   6.291   1.716  19.504 -0.3134 -0.6279 -0.2889
 4410TIP3    H237426   6.351   1.700  19.642 -0.5175  0.2187 -0.0983
 4411TIP3   OH237427   3.322   5.418  17.595  0.2037  0.0177  0.3132
 4411TIP3    H137428   3.281   5.353  17.537 -0.5285 -3.3516  4.1585
 4411TIP3    H237429   3.260   5.490  17.597 -1.4152 -1.2724 -0.4768
 4412TIP3   OH237430   3.698   5.749  17.882 -0.5732  0.2631 -0.1141
 4412TIP3    H137431   3.666   5.837  17.902 -1.2068 -0.4454  2.3186
 4412TIP3    H237432   3.767   5.763  17.817 -1.3074  2.4500 -0.5030
 4413TIP3   OH237433   4.846   6.847  19.289  0.4564 -0.1646  0.7557
 4413TIP3    H137434   4.923   6.813  19.244  0.6382  0.6374  0.4449
 4413TIP3    H237435   4.777   6.783  19.271  0.0738  0.8815 -2.0493
 4414TIP3   OH237436   1.905   3.823  19.407 -0.3603 -0.4270 -0.0262
 4414TIP3    H137437   1.817   3.843  19.375  0.1960 -0.0245 -1.3434
 4414TIP3    H237438   1.936   3.905  19.444  0.4122  0.1539 -1.8708
 4415TIP3   OH237439   4.706   4.944  18.377 -0.3130 -0.0297  0.1093
 4415TIP3    H137440   4.765   4.961  18.450  0.2664  1.3959 -0.6414
 4415TIP3    H237441   4.748   4.986  18.302 -1.8837  0.3271 -0.6180
 4416TIP3   OH237442   3.211   5.833  19.105  0.0382 -0.4925  0.0431
 4416TIP3    H137443   3.191   5.865  19.193  0.2001 -0.3489  0.0303
 4416TIP3    H237444   3.127   5.810  19.067  0.0505 -1.4393  0.5752
 4417TIP3   OH237445   6.408   1.293  16.977 -0.0645  0.0883 -0.2250
 4417TIP3    H137446   6.439   1.248  17.055  1.1835  1.0242 -0.1563
 4417TIP3    H237447   6.413   1.386  16.999 -1.4811  0.3172 -0.7754
 4418TIP3   OH237448   0.480   6.896  19.762 -0.1925  0.1998 -0.4776
 4418TIP3    H137449   0.478   6.985  19.727 -0.8031  0.5755  0.4770
 4418TIP3    H237450   0.408   6.893  19.824  0.0798 -0.8422 -0.1914
 4419TIP3   OH237451   1.237   0.430  17.952 -0.4995 -0.5547 -0.1461
 4419TIP3    H137452   1.306   0.431  18.018 -0.2211 -1.2907 -0.4113
 4419TIP3    H237453   1.279   0.467  17.874 -0.2255 -1.4860 -0.4602
 4420TIP3   OH237454   7.167   1.451  17.216 -0.3892  0.2824 -0.3971
 4420TIP3    H137455   7.238   1.389  17.201  0.4156  1.1301 -0.1847
 4420TIP3    H237456   7.193   1.499  17.294  1.3011  3.9813 -2.9289
 4421TIP3   OH237457   0.801   6.219  19.056  0.5177 -0.2103  0.2008
 4421TIP3    H137458   0.798   6.144  18.996 -0.5015 -1.3185  1.5889
 4421TIP3    H237459   0.814   6.295  18.998  0.0991 -1.2849 -1.3772
 4422TIP3   OH237460   0.222   1.107  18.917 -0.7461 -0.0158 -0.4033
 4422TIP3    H137461   0.304   1.151  18.893 -0.9725  1.0462  0.6567
 4422TIP3    H237462   0.171   1.107  18.836 -0.1684  0.3953 -0.7841
 4423TIP3   OH237463   0.693   3.279  19.044 -0.2209  0.2485  0.4147
 4423TIP3    H137464   0.780   3.240  19.036 -0.4220 -0.1781  0.2595
 4423TIP3    H237465   0.705   3.371  19.020  0.3361  0.3798  1.1402
 4424TIP3   OH237466   5.392   7.060  19.476  0.1895 -0.5615 -0.9621
 4424TIP3    H137467   5.444   7.031  19.401  0.4963 -1.0149 -0.5786
 4424TIP3    H237468   5.391   6.985  19.535  0.2484 -0.0851 -0.3504
 4425TIP3   OH237469   7.502   5.175  18.367 -0.3785  0.0811  0.1636
 4425TIP3    H137470   7.412   5.142  18.369 -0.0400 -0.8693  0.3481
 4425TIP3    H237471   7.553   5.101  18.332  0.4962  0.1926  1.1720
 4426TIP3   OH237472   2.164   7.123  18.794  0.1377  0.2871 -0.2233
 4426TIP3    H137473   2.197   7.211  18.774 -0.0593  0.2397 -0.7745
 4426TIP3    H237474   2.243   7.071  18.807  0.3510  0.0034 -2.2677
 4427TIP3   OH237475   5.027   2.976  17.908 -0.2593 -0.0389  0.0748
 4427TIP3    H137476   4.947   2.963  17.959 -0.3536  0.5153  0.0783
 4427TIP3    H237477   5.001   2.958  17.817 -0.5904  0.8876 -0.0248
 4428TIP3   OH237478   5.228   2.154  19.617  0.2601 -0.2182  0.5091
 4428TIP3    H137479   5.258   2.174  19.528  1.6075 -1.2588  0.6979
 4428TIP3    H237480   5.221   2.239  19.659  0.6644  0.2162 -0.2697
 4429TIP3   OH237481   4.197   7.287  18.768  0.0563 -0.1112  0.1954
 4429TIP3    H137482   4.154   7.367  18.800  0.4548 -0.5401  1.9141
 4429TIP3    H237483   4.180   7.287  18.674 -1.8961  0.8322  0.4788
 4430TIP3   OH237484   0.733   7.328  17.948  0.3997  0.0411  0.1164
 4430TIP3    H137485   0.672   7.291  17.884 -1.2738 -0.3632  1.8534
 4430TIP3    H237486   0.751   7.255  18.008  0.6647  0.8050  0.9908
 4431TIP3   OH237487   6.782   5.491  19.328  0.4890  0.0411 -0.6095
 4431TIP3    H137488   6.818   5.546  19.259  0.6799 -1.3140 -1.6336
 4431TIP3    H237489   6.847   5.493  19.398  1.4087 -0.4207 -1.4369
 4432TIP3   OH237490   3.206   6.968  18.825 -0.1026  0.3076 -0.0032
 4432TIP3    H137491   3.115   6.998  18.826  0.2615  1.4697  0.2281
 4432TIP3    H237492   3.256   7.044  18.855  0.8886 -0.5204  0.4866
 4433TIP3   OH237493   7.675   3.712  17.501  0.0264 -0.3646  0.6111
 4433TIP3    H137494   7.617   3.639  17.524 -0.3960 -0.1415  0.2858
 4433TIP3    H237495   7.693   3.699  17.408 -0.6013  0.3165  0.3846
 4434TIP3   OH237496   6.541   3.148  19.324 -0.3760 -0.2664 -0.3320
 4434TIP3    H137497   6.619   3.116  19.278  0.1871 -0.2627  0.6003
 4434TIP3    H237498   6.479   3.169  19.254  0.7471  0.4978 -1.1373
 4435TIP3   OH237499   4.859   4.221  18.352 -0.4926  0.3761 -0.1725
 4435TIP3    H137500   4.772   4.234  18.390 -0.6681 -0.7378 -0.1754
 4435TIP3    H237501   4.873   4.300  18.299 -0.0852  2.1595  2.4124
 4436TIP3   OH237502   5.806   7.540  18.146 -0.3838 -0.1553 -0.2853
 4436TIP3    H137503   5.733   7.600  18.125 -0.5794 -0.2196  0.1844
 4436TIP3    H237504   5.769   7.480  18.211 -0.2827 -0.9941 -0.9869
 4437TIP3   OH237505   5.533   3.959  16.857 -0.0172  0.2345  0.5393
 4437TIP3    H137506   5.488   4.010  16.789 -1.0070  0.6508  1.4698
 4437TIP3    H237507   5.478   3.881  16.869  1.2004 -0.8118 -0.4915
 4438TIP3   OH237508   1.609   6.503  19.276  0.0086 -0.3878  0.5005
 4438TIP3    H137509   1.663   6.427  19.255  0.7543 -0.1221  1.3888
 4438TIP3    H237510   1.536   6.499  19.214  0.2506 -1.5963  0.2718
 4439TIP3   OH237511   2.021   6.282  19.730 -0.0913 -0.4945  0.5229
 4439TIP3    H137512   2.060   6.351  19.784  1.7075 -1.3328  0.3963
 4439TIP3    H237513   2.095   6.248  19.679 -1.8019  0.8372 -3.2222
 4440TIP3   OH237514   2.535   4.602  20.066 -0.4336  0.2261 -0.5090
 4440TIP3    H137515   2.629   4.583  20.070  0.0862  2.6041 -0.2454
 4440TIP3    H237516   2.530   4.697  20.070 -2.7603  0.2698 -2.5201
 4441TIP3   OH237517   3.330   4.589  19.703  0.3713  0.2195  0.2265
 4441TIP3    H137518   3.328   4.498  19.732  1.2142  0.0438 -0.2334
 4441TIP3    H237519   3.257   4.596  19.641  0.8758 -0.4041 -0.4570
 4442TIP3   OH237520   6.266   0.040  18.953 -0.2420  0.7424 -0.1489
 4442TIP3    H137521   6.249  -0.053  18.942  0.4485  0.5694  0.1913
 4442TIP3    H237522   6.266   0.075  18.864  0.9851  0.1399 -0.4184
 4443TIP3   OH237523   6.621   1.412  17.334 -0.8573 -0.4934  0.0327
 4443TIP3    H137524   6.584   1.471  17.268 -0.2915  0.0313  0.1817
 4443TIP3    H237525   6.715   1.417  17.320 -0.6868  0.1721  1.3458
 4444TIP3   OH237526   7.433   2.041  17.920  0.8502 -0.1930  0.3972
 4444TIP3    H137527   7.436   1.954  17.959 -2.9188 -0.2510  1.0004
 4444TIP3    H237528   7.339   2.063  17.919  1.5288  3.2940 -0.9877
 4445TIP3   OH237529   4.356   4.407  18.577 -0.5239  0.2290  0.2730
 4445TIP3    H137530   4.324   4.497  18.580 -0.9131  0.1113 -0.2958
 4445TIP3    H237531   4.293   4.358  18.630  0.1858  0.4319  1.3335
 4446TIP3   OH237532   5.534   5.753  18.400  0.5336  0.6162  0.2668
 4446TIP3    H137533   5.459   5.804  18.431 -0.7318 -1.8403  1.5075
 4446TIP3    H237534   5.515   5.735  18.308  0.3099  1.1745  0.1992
 4447TIP3   OH237535   7.550   1.030  17.727 -0.1468  0.5294 -0.5176
 4447TIP3    H137536   7.632   1.025  17.776  0.1798  0.2133 -1.0853
 4447TIP3    H237537   7.556   1.112  17.678 -1.1207  1.6104  1.0786
 4448TIP3   OH237538   3.354   1.084  19.616  0.5889 -0.0572  0.8895
 4448TIP3    H137539   3.327   1.125  19.698 -0.3663 -1.4208  1.2991
 4448TIP3    H237540   3.273   1.074  19.566  1.0048 -0.2065  0.2280
 4449TIP3   OH237541   5.911   6.201  18.730  0.2703 -0.4610 -0.2776
 4449TIP3    H137542   5.878   6.276  18.779 -0.1447 -0.0962 -1.0908
 4449TIP3    H237543   5.861   6.202  18.648  1.6712 -0.4099 -1.1731
 4450TIP3   OH237544   3.726   3.395  19.504 -0.0293  0.0036 -0.5136
 4450TIP3    H137545   3.797   3.346  19.463 -0.8325 -2.6481  1.0582
 4450TIP3    H237546   3.765   3.430  19.584 -0.5362 -1.8008  0.5596
 4451TIP3   OH237547   1.794   7.233  19.598 -0.3097 -0.5074 -0.2815
 4451TIP3    H137548   1.840   7.222  19.682  1.1271  0.3232 -0.9287
 4451TIP3    H237549   1.863   7.230  19.532 -1.1386  1.0100 -1.2826
 4452TIP3   OH237550   0.949   5.160  19.401 -0.2168 -0.9676 -0.1509
 4452TIP3    H137551   0.992   5.148  19.485 -1.7635  0.9003  0.9907
 4452TIP3    H237552   0.952   5.254  19.385 -2.0352 -1.0051 -0.9935
 4453TIP3   OH237553   6.469   6.125  17.389 -0.4415 -0.1251 -0.2782
 4453TIP3    H137554   6.442   6.054  17.447 -1.0302 -0.6534 -1.1777
 4453TIP3    H237555   6.513   6.187  17.446  0.1698 -1.2530  0.5190
 4454TIP3   OH237556   6.217   4.006  17.944  0.0305  0.2497  0.0814
 4454TIP3    H137557   6.306   4.032  17.970  0.0716  0.1105  0.0796
 4454TIP3    H237558   6.224   3.913  17.925  0.0510  0.3931 -0.6450
 4455TIP3   OH237559   0.021   3.737  18.282  0.1044 -0.0873  0.2006
 4455TIP3    H137560   0.053   3.712  18.368  0.0274  0.7080  0.4682
 4455TIP3    H237561  -0.069   3.766  18.298 -0.3017 -1.0237 -0.3298
 4456TIP3   OH237562   6.002   6.422  17.818  0.5495  0.0416 -0.4404
 4456TIP3    H137563   6.013   6.409  17.723 -1.8532 -0.0924 -0.7546
 4456TIP3    H237564   6.017   6.335  17.856  0.1705 -0.2088 -0.8530
 4457TIP3   OH237565   2.862   2.546  18.820  0.4261  0.2635  0.1316
 4457TIP3    H137566   2.889   2.565  18.731 -0.5564 -1.5430 -0.5973
 4457TIP3    H237567   2.808   2.621  18.846  0.8838  0.8905 -0.6922
 4458TIP3   OH237568   0.642   1.128  17.794  0.8302  0.1825  0.0863
 4458TIP3    H137569   0.640   1.193  17.864 -1.1091 -0.4990  0.6990
 4458TIP3    H237570   0.625   1.178  17.714  0.7176  0.6283  0.3895
 4459TIP3   OH237571   2.401   1.508  18.650 -0.0420 -0.5351  0.0556
 4459TIP3    H137572   2.422   1.437  18.590  2.2582 -0.7348  0.9840
 4459TIP3    H237573   2.306   1.509  18.654 -0.1874 -3.9663  0.4533
 4460TIP3   OH237574   3.724   5.523  18.031 -0.2930  0.5659  0.9103
 4460TIP3    H137575   3.693   5.607  17.997 -0.6384 -0.1388 -0.5870
 4460TIP3    H237576   3.808   5.509  17.986  0.6050  0.8679  2.4055
 4461TIP3   OH237577   6.182   6.227  17.630 -0.0834 -0.5607  0.1851
 4461TIP3    H137578   6.158   6.135  17.626  0.5675 -0.7265  0.0470
 4461TIP3    H237579   6.188   6.254  17.538 -2.6795  0.2748  0.1632
 4462TIP3   OH237580   5.036   3.753  19.592  0.5692  0.0452  0.1049
 4462TIP3    H137581   4.950   3.711  19.597  0.7453 -0.1938  1.5281
 4462TIP3    H237582   5.060   3.747  19.500 -1.1699  0.5901 -0.4164
 4463TIP3   OH237583   2.809   4.690  17.949 -0.5024  0.0300 -0.0297
 4463TIP3    H137584   2.768   4.604  17.960 -0.1571 -0.0759  0.4337
 4463TIP3    H237585   2.766   4.727  17.872  0.4177 -1.1837 -1.1514
 4464TIP3   OH237586   7.027   1.678  19.385  0.6288 -0.7020 -0.5405
 4464TIP3    H137587   7.111   1.716  19.411  1.2904  0.0991 -3.4608
 4464TIP3    H237588   7.051   1.606  19.326 -0.7353 -3.0425  1.5346
 4465TIP3   OH237589   1.047   0.756  19.240 -0.0235  0.1678  0.0486
 4465TIP3    H137590   1.090   0.745  19.155  0.0970 -0.3393  0.1745
 4465TIP3    H237591   1.116   0.788  19.298 -0.0675  0.3564 -0.0018
 4466TIP3   OH237592   3.246   7.580  17.537  0.1214 -0.6781 -0.0868
 4466TIP3    H137593   3.202   7.653  17.579  0.9527 -1.1342  1.7021
 4466TIP3    H237594   3.260   7.608  17.447 -1.2321  0.5938  0.0711
 4467TIP3   OH237595   1.615   3.519  19.052  0.5316  0.1959  0.3502
 4467TIP3    H137596   1.706   3.506  19.027  0.4502  0.4400 -0.0850
 4467TIP3    H237597   1.619   3.560  19.138  0.8376  0.4912  0.1959
 4468TIP3   OH237598   1.781   1.355  17.843  0.2419 -0.9403  0.0609
 4468TIP3    H137599   1.745   1.443  17.835 -0.2137 -1.1620 -0.4101
 4468TIP3    H237600   1.734   1.316  17.917  0.2898 -0.8589  0.1335
 4469TIP3   OH237601   4.570   0.825  17.912 -0.6554 -0.0038 -0.2632
 4469TIP3    H137602   4.588   0.733  17.893 -2.2075  0.0765 -2.4103
 4469TIP3    H237603   4.559   0.866  17.827  0.8923  2.4316  0.5930
 4470TIP3   OH237604   1.975   7.402  19.833  0.0373 -0.5286 -0.4258
 4470TIP3    H137605   2.011   7.454  19.761 -1.5383 -0.1380 -0.9838
 4470TIP3    H237606   2.048   7.349  19.863  1.5527  1.4879 -0.2899
 4471TIP3   OH237607   2.068   3.777  18.787  0.1933  0.8883 -0.2378
 4471TIP3    H137608   2.020   3.761  18.869  0.8932 -0.5577 -0.0798
 4471TIP3    H237609   2.034   3.711  18.727 -1.5051  2.9522 -1.6938
 4472TIP3   OH237610   6.535   5.196  17.827 -0.3263  0.1583 -0.4841
 4472TIP3    H137611   6.518   5.114  17.780  0.7995 -0.1031 -0.4584
 4472TIP3    H237612   6.462   5.204  17.888 -1.0452 -0.2412 -1.2783
 4473TIP3   OH237613   4.700   5.756  17.684 -0.0252 -0.0568  0.0796
 4473TIP3    H137614   4.666   5.692  17.746  0.3779  0.2238  0.5895
 4473TIP3    H237615   4.792   5.765  17.707  0.0634  0.2506 -0.3853
 4474TIP3   OH237616   3.827   0.523  17.520  0.0198  0.3654 -0.3548
 4474TIP3    H137617   3.918   0.547  17.503  0.1838 -0.0826 -0.1260
 4474TIP3    H237618   3.783   0.605  17.540 -0.0740  0.8726 -2.4145
 4475TIP3   OH237619   3.869   0.389  18.109 -0.7520  0.1685 -0.7457
 4475TIP3    H137620   3.798   0.364  18.050  0.1958 -1.8206 -1.1247
 4475TIP3    H237621   3.846   0.348  18.193 -0.4992  0.2669 -0.6271
 4476TIP3   OH237622   4.952   5.085  17.561  0.2000  0.3579 -0.0038
 4476TIP3    H137623   4.872   5.123  17.524 -0.7151 -0.9928  0.5097
 4476TIP3    H237624   4.994   5.042  17.487  1.2499  2.2805 -0.5934
 4477TIP3   OH237625   4.962   6.199  17.897  0.1691 -0.5289 -0.0774
 4477TIP3    H137626   4.883   6.220  17.846  1.9522  1.4692 -2.2522
 4477TIP3    H237627   4.929   6.175  17.983 -2.8972 -1.3755 -1.3423
 4478TIP3   OH237628   1.103   4.778  18.687  0.0388 -0.0577  0.2515
 4478TIP3    H137629   1.054   4.836  18.744  0.4027  0.3296  0.1754
 4478TIP3    H237630   1.192   4.776  18.724 -0.0831 -0.9379  0.5269
 4479TIP3   OH237631   2.904   3.511  17.762  0.1094  0.1503  0.3072
 4479TIP3    H137632   2.959   3.432  17.752 -2.4429 -1.6121 -0.8817
 4479TIP3    H237633   2.875   3.531  17.673 -0.0686  1.9065  0.7353
 4480TIP3   OH237634   5.527   3.030  17.545  0.3505  0.3096 -0.3308
 4480TIP3    H137635   5.554   2.952  17.497  1.0447  1.8655 -2.6915
 4480TIP3    H237636   5.432   3.032  17.537  0.4893  0.9051 -2.4425
 4481TIP3   OH237637   7.387   3.466  17.877  0.5604 -0.0824 -0.5277
 4481TIP3    H137638   7.348   3.386  17.841  1.4258  1.6085 -6.1810
 4481TIP3    H237639   7.320   3.501  17.935 -1.6800 -2.6822 -1.3083
 4482TIP3   OH237640   0.977   0.003  18.477 -0.4058  0.2958  0.2608
 4482TIP3    H137641   0.972  -0.005  18.382  0.1346 -1.5695  0.3497
 4482TIP3    H237642   0.888   0.026  18.504 -0.6302  0.5450 -0.6572
 4483TIP3   OH237643   5.403   6.806  18.739  0.1232  0.4989 -0.7154
 4483TIP3    H137644   5.308   6.813  18.730  0.1636  2.4669 -0.2909
 4483TIP3    H237645   5.436   6.809  18.649 -0.2137 -0.9927 -0.9150
 4484TIP3   OH237646   2.132   5.744  19.622 -0.0552 -0.4790 -0.0831
 4484TIP3    H137647   2.142   5.811  19.554  0.9645  0.2286  0.7369
 4484TIP3    H237648   2.184   5.670  19.591  0.6213 -0.0624  0.0431
 4485TIP3   OH237649   7.543   3.677  19.642  0.0695 -0.5715  0.1710
 4485TIP3    H137650   7.545   3.589  19.681 -0.7697 -0.1087  1.3193
 4485TIP3    H237651   7.450   3.696  19.631  0.2225 -1.2777 -3.6071
 4486TIP3   OH237652   0.509   1.104  16.996 -0.8611  0.3003 -0.1927
 4486TIP3    H137653   0.561   1.158  16.936  0.4323 -1.0658 -0.3575
 4486TIP3    H237654   0.570   1.082  17.066 -1.0764 -1.6387 -0.5719
 4487TIP3   OH237655   3.994   2.912  18.645 -0.1187 -0.4017  0.0242
 4487TIP3    H137656   4.019   2.822  18.668  1.2046 -0.2527 -0.7769
 4487TIP3    H237657   4.004   2.917  18.550  0.7035  0.8577  0.1625
 4488TIP3   OH237658   4.280   2.310  17.710  0.1289 -0.2516 -0.2721
 4488TIP3    H137659   4.256   2.371  17.780 -1.0565  0.0682 -0.9290
 4488TIP3    H237660   4.229   2.231  17.728 -0.0460 -0.2313 -0.6599
 4489TIP3   OH237661   0.621   6.364  16.913 -0.0947  0.0442  0.5469
 4489TIP3    H137662   0.661   6.428  16.854 -0.6554 -0.0193  0.0775
 4489TIP3    H237663   0.655   6.386  16.999 -0.7923  1.4106  0.5051
 4490TIP3   OH237664   6.081   4.569  16.805 -0.1649 -0.5833  0.3921
 4490TIP3    H137665   5.990   4.542  16.818 -0.8900  0.8865 -1.3138
 4490TIP3    H237666   6.112   4.515  16.733  0.0160 -0.4363  0.3586
 4491TIP3   OH237667   0.146   5.461  19.439 -0.3604 -0.4217  0.1859
 4491TIP3    H137668   0.056   5.492  19.453 -0.1694  0.7021 -0.8589
 4491TIP3    H237669   0.139   5.402  19.364 -0.0850  0.5134 -0.5928
 4492TIP3   OH237670   2.143   3.296  18.021  0.3990 -0.1104 -0.2081
 4492TIP3    H137671   2.101   3.221  17.980  2.3927 -1.1305 -0.5454
 4492TIP3    H237672   2.125   3.287  18.114 -0.2514 -0.4122 -0.3598
 4493TIP3   OH237673   4.449   5.326  17.902  0.4620  0.3626  0.1101
 4493TIP3    H137674   4.440   5.338  17.997  0.4748 -0.7313  0.2637
 4493TIP3    H237675   4.520   5.262  17.893 -0.4230 -0.5566 -0.5681
 4494TIP3   OH237676   2.572   0.647  17.193  0.0900 -0.9119 -0.1263
 4494TIP3    H137677   2.543   0.556  17.196  1.6823 -1.4196  1.2272
 4494TIP3    H237678   2.649   0.645  17.136 -0.0155 -0.3449 -0.2955
 4495TIP3   OH237679   2.523   7.194  19.313  0.2175 -0.1958 -1.0672
 4495TIP3    H137680   2.539   7.256  19.242  0.2012  1.3393  0.2120
 4495TIP3    H237681   2.435   7.162  19.297  0.1193  0.3142 -1.6010
 4496TIP3   OH237682   1.745   0.324  19.400 -0.3025 -0.5296  0.2019
 4496TIP3    H137683   1.689   0.340  19.476 -0.9477  1.4060 -0.6348
 4496TIP3    H237684   1.687   0.283  19.336 -0.7422  1.1916 -0.5506
 4497TIP3   OH237685   4.265   6.706  19.599 -0.0113  0.1294 -0.2503
 4497TIP3    H137686   4.333   6.736  19.660  0.0649 -1.2820  0.4192
 4497TIP3    H237687   4.305   6.630  19.556 -0.1932  0.9127 -1.8507
 4498TIP3   OH237688   3.315   2.638  19.566  0.0201 -0.2139 -0.4081
 4498TIP3    H137689   3.404   2.664  19.587  0.2241  0.7588 -2.2705
 4498TIP3    H237690   3.314   2.543  19.578  0.6815 -0.0129  1.6315
 4499TIP3   OH237691   2.092   1.203  19.516 -0.3056  0.5777  0.8511
 4499TIP3    H137692   2.091   1.249  19.601 -0.5436  0.6301  0.8201
 4499TIP3    H237693   2.010   1.229  19.474 -1.0584 -0.8384  1.3489
 4500TIP3   OH237694   4.671   2.224  18.302  0.0110 -0.2817 -0.3075
 4500TIP3    H137695   4.624   2.292  18.255  0.3616  2.2034  2.5726
 4500TIP3    H237696   4.758   2.262  18.318  0.4308 -1.6338  0.8863
 4501TIP3   OH237697   5.406   5.943  19.557  0.6120 -0.4762  0.9035
 4501TIP3    H137698   5.315   5.927  19.532  1.6417 -1.0720 -3.1370
 4501TIP3    H237699   5.454   5.866  19.525  2.9223  1.2580 -0.0846
 4502TIP3   OH237700   3.230   3.644  20.057 -0.3765  0.3534  0.1198
 4502TIP3    H137701   3.255   3.583  20.127  0.8886 -2.5016 -2.5878
 4502TIP3    H237702   3.136   3.630  20.046 -0.4455  0.2843  0.7480
 4503TIP3   OH237703   3.511   4.604  17.370  0.4158 -0.0999  0.2596
 4503TIP3    H137704   3.596   4.645  17.390  0.3490  1.3583 -2.0405
 4503TIP3    H237705   3.530   4.545  17.298 -0.6320  0.9084 -0.8795
 4504TIP3   OH237706   2.941   2.680  18.603  0.0237 -0.0681  0.1451
 4504TIP3    H137707   2.910   2.770  18.616  1.7223  0.6203 -0.1848
 4504TIP3    H237708   3.035   2.690  18.586  0.3319 -1.9576  0.5226
 4505TIP3   OH237709   4.483   2.542  17.280 -0.1980 -0.6654 -0.0853
 4505TIP3    H137710   4.415   2.497  17.330 -0.3061 -0.9481 -0.4794
 4505TIP3    H237711   4.554   2.479  17.274  0.0559 -0.4107  0.2301
 4506TIP3   OH237712   0.955   5.324  17.127 -0.4072 -0.3244  0.4749
 4506TIP3    H137713   0.900   5.313  17.049 -0.6800  1.9972  0.2805
 4506TIP3    H237714   0.913   5.270  17.194 -2.7332  1.0130  0.2032
 4507TIP3   OH237715   5.871   2.850  19.898 -0.0191 -0.3276 -0.0317
 4507TIP3    H137716   5.877   2.817  19.987  1.8354 -0.5665 -0.2028
 4507TIP3    H237717   5.932   2.924  19.895 -0.1626 -0.2276 -1.0413
 4508TIP3   OH237718   6.637   2.969  17.320  0.1045 -0.4752  0.2927
 4508TIP3    H137719   6.668   3.042  17.267  1.7177 -0.6294  0.9633
 4508TIP3    H237720   6.570   2.927  17.266 -0.8656  1.4580 -0.1167
 4509TIP3   OH237721   6.794   2.554  17.623 -0.0400  0.2711 -0.4300
 4509TIP3    H137722   6.751   2.468  17.622 -0.0765  0.2802 -1.5958
 4509TIP3    H237723   6.800   2.578  17.530  1.7889  0.6182 -0.2579
 4510TIP3   OH237724   4.279   4.878  18.138 -0.2514 -0.1173 -0.1274
 4510TIP3    H137725   4.338   4.935  18.186  1.2922 -0.5418 -1.4176
 4510TIP3    H237726   4.192   4.914  18.154  0.2225  0.0247  2.5222
 4511TIP3   OH237727   5.037   0.972  17.700 -0.3097  0.1617 -0.6967
 4511TIP3    H137728   5.001   0.935  17.780  0.8653 -0.0339 -0.2388
 4511TIP3    H237729   5.113   0.917  17.680  1.7421  2.4837  0.2247
 4512TIP3   OH237730   4.398   5.268  20.166  0.1599  0.3717 -0.4438
 4512TIP3    H137731   4.367   5.287  20.255 -1.1637  0.3900 -0.8813
 4512TIP3    H237732   4.483   5.312  20.160  0.5109 -0.0514  0.9722
 4513TIP3   OH237733   3.285   6.568  18.426 -0.3597 -0.2039 -0.0024
 4513TIP3    H137734   3.191   6.588  18.428 -0.2080  0.7277 -1.3734
 4513TIP3    H237735   3.327   6.644  18.465 -0.1311 -0.4537  0.2474
 4514TIP3   OH237736   2.911   6.871  19.550  0.2312 -0.9224 -0.0497
 4514TIP3    H137737   2.835   6.928  19.538 -1.5720 -3.0817  0.3422
 4514TIP3    H237738   2.973   6.923  19.600 -1.6929  0.4002  1.0782
 4515TIP3   OH237739   2.163   5.789  18.767  0.2892 -0.2826 -0.2017
 4515TIP3    H137740   2.114   5.713  18.735 -2.7916  1.8265 -0.8980
 4515TIP3    H237741   2.212   5.818  18.690 -0.0820 -0.4262 -0.5016
 4516TIP3   OH237742   2.785   5.687  17.863 -0.1964 -0.1669  0.0220
 4516TIP3    H137743   2.787   5.782  17.873  0.3527 -0.0542 -0.9842
 4516TIP3    H237744   2.872   5.658  17.890 -0.4685 -0.4342  0.6433
 4517TIP3   OH237745   2.389   3.071  19.578  0.4806 -0.4701  0.1281
 4517TIP3    H137746   2.416   3.035  19.663  1.7930 -1.4629 -0.6677
 4517TIP3    H237747   2.454   3.139  19.559  0.7642 -0.8934 -0.4787
 4518TIP3   OH237748   6.196   2.955  19.200  0.6461 -0.0575 -0.4480
 4518TIP3    H137749   6.172   3.020  19.134  0.0153  0.4904  0.3135
 4518TIP3    H237750   6.282   2.924  19.172  0.7091  0.6938 -1.1246
 4519TIP3   OH237751   3.204   3.102  20.075  0.0020  0.4173 -0.0670
 4519TIP3    H137752   3.121   3.063  20.046  0.3887  0.2281 -0.9712
 4519TIP3    H237753   3.188   3.196  20.076 -0.5839  0.3168  0.9612
 4520TIP3   OH237754   4.172   4.116  19.592 -0.1880  0.2817 -0.2034
 4520TIP3    H137755   4.105   4.116  19.660  0.2293  2.4502  0.2987
 4520TIP3    H237756   4.124   4.134  19.511 -0.4642 -0.4851 -0.2176
 4521TIP3   OH237757   6.127   1.372  17.551 -0.1744 -0.4277 -0.4044
 4521TIP3    H137758   6.161   1.363  17.462  0.3496 -0.5626 -0.1984
 4521TIP3    H237759   6.149   1.461  17.577  0.8244 -0.7783  0.0384
 4522TIP3   OH237760   2.272   3.481  18.419  0.1840 -0.1250  0.0141
 4522TIP3    H137761   2.217   3.449  18.491  0.4178  1.2391  0.8279
 4522TIP3    H237762   2.361   3.474  18.453  0.4923 -1.5665 -0.9987
 4523TIP3   OH237763   3.555   5.059  17.349 -0.1009  0.7884  0.1231
 4523TIP3    H137764   3.643   5.043  17.382  0.5579  1.2172 -1.3488
 4523TIP3    H237765   3.504   4.983  17.378  0.4486  1.0794  1.9563
 4524TIP3   OH237766   6.828   4.354  19.659 -0.3534  0.2304 -0.2410
 4524TIP3    H137767   6.887   4.298  19.608 -1.4103 -1.0245 -0.1407
 4524TIP3    H237768   6.878   4.377  19.737  0.7935  1.0561 -1.1897
 4525TIP3   OH237769   3.096   1.915  19.966  0.1380  0.1390  0.3511
 4525TIP3    H137770   3.158   1.845  19.949 -0.6012 -0.1296 -1.4397
 4525TIP3    H237771   3.149   1.983  20.008  1.1238 -0.9785  0.9996
 4526TIP3   OH237772   0.723   4.875  19.003  0.1757 -0.3534  0.0459
 4526TIP3    H137773   0.660   4.873  18.930 -0.8048  1.5458  0.7751
 4526TIP3    H237774   0.799   4.921  18.968 -0.5746  1.1969  0.3834
 4527TIP3   OH237775   6.750   5.914  18.255 -0.0357 -0.2208 -0.0021
 4527TIP3    H137776   6.711   5.841  18.207 -0.9185  0.7558 -0.8196
 4527TIP3    H237777   6.675   5.959  18.295  0.4230  0.6448 -0.0919
 4528TIP3   OH237778   2.717   1.455  19.227  0.1530  0.1354  0.0246
 4528TIP3    H137779   2.755   1.472  19.141 -1.2959 -1.9503 -1.1384
 4528TIP3    H237780   2.640   1.511  19.230 -0.6720 -0.9022 -0.7715
 4529TIP3   OH237781   6.777   6.386  19.577  0.7230 -0.3812 -0.8250
 4529TIP3    H137782   6.864   6.356  19.551  1.4350  1.1488 -0.3368
 4529TIP3    H237783   6.791   6.477  19.604 -0.7534 -0.5825  0.7319
 4530TIP3   OH237784   2.769   5.047  20.064 -0.5471 -0.0370  0.0349
 4530TIP3    H137785   2.706   5.115  20.040 -1.1281 -1.1633 -1.8521
 4530TIP3    H237786   2.854   5.085  20.045 -0.9031 -0.1301 -1.9467
 4531TIP3   OH237787   2.162   3.409  19.395 -0.2551 -0.2313  0.8475
 4531TIP3    H137788   2.070   3.434  19.396 -0.4639 -0.9383 -0.0553
 4531TIP3    H237789   2.207   3.481  19.440 -1.0514  0.9334 -0.1642
 4532TIP3   OH237790   2.084   7.122  17.681  0.6097 -0.0063  0.4040
 4532TIP3    H137791   2.083   7.103  17.588 -0.7076  0.7955  0.2299
 4532TIP3    H237792   2.092   7.217  17.687 -1.8591  0.2411  0.9971
 4533TIP3   OH237793   1.345   3.169  19.239 -0.1012  0.2057  0.1482
 4533TIP3    H137794   1.417   3.232  19.236 -1.1965  1.5345  0.6395
 4533TIP3    H237795   1.346   3.137  19.329  0.5940 -0.6691 -0.1605
 4534TIP3   OH237796   5.249   0.887  18.369 -0.5806 -0.1617 -0.0886
 4534TIP3    H137797   5.251   0.792  18.359  1.7903 -0.2354  0.5510
 4534TIP3    H237798   5.215   0.901  18.457 -1.3279 -0.3727 -0.3329
 4535TIP3   OH237799   7.559   2.592  18.388 -0.7365 -0.3195  0.5972
 4535TIP3    H137800   7.623   2.530  18.353 -0.0230  0.0961  1.1507
 4535TIP3    H237801   7.591   2.612  18.476 -1.7984 -0.3466  0.9989
 4536TIP3   OH237802   2.929   5.317  19.793  0.1767 -0.2483 -0.4580
 4536TIP3    H137803   2.874   5.361  19.857  0.3180 -0.8485  0.0848
 4536TIP3    H237804   2.941   5.382  19.723 -0.0101  0.3957  0.0969
 4537TIP3   OH237805   0.904   7.274  18.407 -0.2550  0.0772 -0.1378
 4537TIP3    H137806   0.977   7.309  18.355  0.3126 -1.2510 -0.2773
 4537TIP3    H237807   0.833   7.262  18.344 -0.2580  0.3952 -0.1986
 4538TIP3   OH237808   1.904   1.663  18.317  0.1656  0.4043 -0.0424
 4538TIP3    H137809   1.848   1.594  18.280 -0.7698  0.6453  0.8774
 4538TIP3    H237810   1.975   1.615  18.359 -1.4892 -0.1701  2.2895
 4539TIP3   OH237811   1.661   4.965  19.682  0.4030  0.0163  0.2665
 4539TIP3    H137812   1.635   4.875  19.660  0.7521  0.2202 -1.0708
 4539TIP3    H237813   1.579   5.014  19.686  0.3560  0.2493 -2.0238
 4540TIP3   OH237814   6.519   6.248  18.521  0.5181  0.4471 -0.4023
 4540TIP3    H137815   6.561   6.335  18.520 -3.6774  2.7363 -0.5958
 4540TIP3    H237816   6.536   6.212  18.434  0.7375  1.9951 -1.0359
 4541TIP3   OH237817   6.965   4.764  17.701  0.2805  0.0066 -0.1106
 4541TIP3    H137818   7.026   4.789  17.770  0.5452  0.9790 -0.6861
 4541TIP3    H237819   6.879   4.790  17.734  0.6777  3.3969 -1.3621
 4542TIP3   OH237820   1.848   6.632  17.866  0.3341  0.4578 -0.0711
 4542TIP3    H137821   1.865   6.726  17.858  2.3354  0.0763 -0.9954
 4542TIP3    H237822   1.820   6.606  17.779  2.1822 -0.1715 -0.5368
 4543TIP3   OH237823   5.499   0.032  18.430  0.0261 -0.2420 -0.3347
 4543TIP3    H137824   5.549  -0.023  18.491 -1.2858 -0.3090  0.7274
 4543TIP3    H237825   5.532   0.121  18.445  0.8556 -0.4720 -0.7293
 4544TIP3   OH237826   4.772   3.706  19.558  0.7817  0.0146 -0.3875
 4544TIP3    H137827   4.706   3.661  19.506  0.5309 -0.2826  0.1826
 4544TIP3    H237828   4.734   3.792  19.577 -1.3834 -1.5511  3.5240
 4545TIP3   OH237829   1.147   3.897  19.293 -0.3923  0.1229 -0.1908
 4545TIP3    H137830   1.183   3.983  19.272  0.2262 -0.1216 -0.1713
 4545TIP3    H237831   1.213   3.858  19.351 -1.0381 -0.0560  0.4314
 4546TIP3   OH237832   7.642   2.599  17.998 -0.2335 -0.0927 -0.4010
 4546TIP3    H137833   7.664   2.534  17.932 -2.8352  0.2567 -1.7477
 4546TIP3    H237834   7.681   2.681  17.967 -0.0934 -0.2628 -0.6702
 4547TIP3   OH237835   2.604   0.045  17.138 -0.2731 -0.1345  0.3034
 4547TIP3    H137836   2.697   0.066  17.129 -0.7541  2.6445  0.8811
 4547TIP3    H237837   2.586   0.058  17.231 -1.4996  0.6022 -0.0259
 4548TIP3   OH237838   0.674   6.759  19.910  0.1510 -0.2207 -0.1705
 4548TIP3    H137839   0.612   6.819  19.867  0.6464  0.8716  0.5948
 4548TIP3    H237840   0.625   6.723  19.984 -0.5775 -1.8130 -1.3557
 4549TIP3   OH237841   3.610   6.430  18.282  0.6886  0.0071  0.8206
 4549TIP3    H137842   3.697   6.419  18.320  0.2959  0.0137  1.7418
 4549TIP3    H237843   3.556   6.459  18.355  0.0656  0.6988  0.0942
 4550TIP3   OH237844   0.439   2.507  18.189 -0.1841  0.3540 -0.3424
 4550TIP3    H137845   0.445   2.557  18.107  1.9691  3.2868  1.4276
 4550TIP3    H237846   0.406   2.569  18.253 -1.5490 -1.7952  1.1608
 4551TIP3   OH237847   1.440   1.587  19.424 -0.0059 -0.1838 -0.1252
 4551TIP3    H137848   1.528   1.614  19.400  0.9864 -1.8277  1.3618
 4551TIP3    H237849   1.425   1.628  19.510 -0.8599  0.3840 -0.5295
 4552TIP3   OH237850   1.935   7.100  19.812 -0.1006 -0.9237 -0.1182
 4552TIP3    H137851   1.995   7.127  19.743  0.6662 -0.3442  0.7494
 4552TIP3    H237852   1.991   7.056  19.876 -0.8210 -1.5802  0.0659
 4553TIP3   OH237853   5.507   6.565  19.083 -0.1669 -0.1560 -0.2945
 4553TIP3    H137854   5.422   6.599  19.057 -0.8155 -0.2183  1.6092
 4553TIP3    H237855   5.562   6.575  19.005 -1.3711  1.7120 -0.9667
 4554TIP3   OH237856   0.026   3.720  17.219  0.4231  0.6005 -0.0985
 4554TIP3    H137857  -0.062   3.717  17.180  0.9675 -1.2790 -1.3087
 4554TIP3    H237858   0.052   3.812  17.211 -1.5169  1.2568  0.5312
 4555TIP3   OH237859   4.551   0.927  17.644 -0.6977 -0.1185  0.1489
 4555TIP3    H137860   4.611   1.000  17.659 -1.7498  0.9760 -0.7948
 4555TIP3    H237861   4.604   0.860  17.602  0.0609  0.4950  0.1058
 4556TIP3   OH237862   4.947   2.057  17.056  0.7386  0.9133  0.0567
 4556TIP3    H137863   4.931   2.130  17.115 -1.0905  1.6200 -1.2186
 4556TIP3    H237864   5.019   2.009  17.096  2.6128  3.8665  0.5000
 4557TIP3   OH237865   6.171   0.355  18.712 -0.2858 -0.1193  0.0579
 4557TIP3    H137866   6.242   0.399  18.664  2.7135 -2.1581  2.2274
 4557TIP3    H237867   6.195   0.263  18.710 -3.7856 -1.1719 -0.2875
 4558TIP3   OH237868   0.531   7.665  18.166 -0.0303 -0.2297 -0.6183
 4558TIP3    H137869   0.621   7.637  18.183 -0.5452 -1.3761  0.4315
 4558TIP3    H237870   0.497   7.600  18.104 -0.6909 -0.9776  0.4745
 4559TIP3   OH237871   3.547   4.077  17.237 -0.9477  0.0431  0.0884
 4559TIP3    H137872   3.537   4.172  17.232 -0.4179  0.0550 -1.5891
 4559TIP3    H237873   3.533   4.047  17.147 -0.7895 -1.4345  0.5274
 4560TIP3   OH237874   5.892   4.091  17.988  0.7566  0.1878 -0.3658
 4560TIP3    H137875   5.968   4.109  18.043  0.9206  0.1070 -0.5667
 4560TIP3    H237876   5.928   4.049  17.910  0.5173  0.2442 -0.5063
 4561TIP3   OH237877   2.317   4.201  17.567 -1.1119 -0.5183  0.4610
 4561TIP3    H137878   2.274   4.252  17.498 -0.4536  0.8835  1.0644
 4561TIP3    H237879   2.256   4.128  17.584 -2.7328  0.8004  0.5316
 4562TIP3   OH237880   0.546   3.683  17.993 -0.2615  0.0062 -0.4410
 4562TIP3    H137881   0.558   3.632  18.072 -1.1574 -0.1716 -0.4025
 4562TIP3    H237882   0.468   3.646  17.952  0.2568  0.0254 -1.4651
 4563TIP3   OH237883   0.060   2.928  17.483 -0.4745  0.0295 -0.3754
 4563TIP3    H137884   0.144   2.939  17.528 -0.1683 -0.9822 -0.6673
 4563TIP3    H237885  -0.004   2.924  17.554 -0.5059  2.3224 -0.1929
 4564TIP3   OH237886   6.503   6.108  18.273  0.4413 -0.0723 -0.1064
 4564TIP3    H137887   6.419   6.068  18.292 -0.9888  2.4975 -0.4458
 4564TIP3    H237888   6.491   6.149  18.187  2.1042  0.1919 -0.2544
 4565TIP3   OH237889   2.806   5.913  19.282 -0.4374 -0.0536 -0.0404
 4565TIP3    H137890   2.739   5.844  19.282  0.0573 -0.5417 -0.7386
 4565TIP3    H237891   2.782   5.970  19.209 -0.4776  0.1591  0.1387
 4566TIP3   OH237892   4.288   2.970  18.872  0.7601 -0.0075  0.0429
 4566TIP3    H137893   4.211   3.014  18.906  0.5962 -0.6233  0.4815
 4566TIP3    H237894   4.362   3.025  18.900  0.5402  0.1383  0.3385
 4567TIP3   OH237895   6.128   6.868  19.689  0.2246  0.3831  0.1785
 4567TIP3    H137896   6.066   6.835  19.624  0.6959  1.1522 -0.6851
 4567TIP3    H237897   6.074   6.887  19.765 -0.2997 -0.7814  0.1268
 4568TIP3   OH237898   5.045   7.432  17.624  0.0764 -0.8809 -0.8096
 4568TIP3    H137899   5.053   7.504  17.561 -0.2738  3.7776  3.8148
 4568TIP3    H237900   5.132   7.425  17.663 -0.8283  0.0376  1.5449
 4569TIP3   OH237901   6.907   4.626  18.154  0.0414 -0.7417 -0.1105
 4569TIP3    H137902   6.886   4.602  18.244  1.1582  1.3400  0.7570
 4569TIP3    H237903   6.823   4.653  18.116 -0.4435 -1.6907  0.2561
 4570TIP3   OH237904   0.501   6.805  18.235 -0.1364  0.0681  0.1501
 4570TIP3    H137905   0.507   6.836  18.326  1.7140  1.2129 -0.3253
 4570TIP3    H237906   0.591   6.789  18.209 -0.6534 -0.3580 -1.4744
 4571TIP3   OH237907   4.100   2.181  19.492  0.2725  0.1696 -0.0914
 4571TIP3    H137908   4.195   2.191  19.491  0.2132  0.6878 -0.7311
 4571TIP3    H237909   4.067   2.265  19.523  0.0875 -0.7034  2.3027
 4572TIP3   OH237910   2.031   0.108  19.215  0.2599 -0.1908  0.2145
 4572TIP3    H137911   2.109   0.147  19.176 -1.7405  1.5028 -2.4725
 4572TIP3    H237912   2.018   0.155  19.296  1.4489  0.2038  0.1939
 4573TIP3   OH237913   6.225   1.512  18.676  0.4665  0.0088 -0.9531
 4573TIP3    H137914   6.298   1.491  18.618  0.2778 -0.4400 -1.0326
 4573TIP3    H237915   6.261   1.576  18.737  0.9138 -0.1783 -1.0172
 4574TIP3   OH237916   0.305   2.703  19.344  0.0027 -0.1301 -0.2132
 4574TIP3    H137917   0.259   2.737  19.267 -2.0328 -1.9045  0.1133
 4574TIP3    H237918   0.344   2.780  19.385 -1.6610  1.3269 -1.2216
 4575TIP3   OH237919   5.539   3.472  19.717  0.2836  0.0726  0.3431
 4575TIP3    H137920   5.626   3.511  19.704 -0.5766  1.4461 -1.9693
 4575TIP3    H237921   5.479   3.547  19.715 -1.1129 -1.0303 -0.2439
 4576TIP3   OH237922   3.614   4.828  17.026  0.2430 -0.0083 -0.3008
 4576TIP3    H137923   3.693   4.883  17.031 -0.5648  1.0888  0.9597
 4576TIP3    H237924   3.574   4.836  17.112 -1.4782 -0.2160 -1.0482
 4577TIP3   OH237925   0.710   0.394  19.033  0.2857  0.6439  0.2805
 4577TIP3    H137926   0.772   0.429  19.096  2.7292 -0.8005 -1.1959
 4577TIP3    H237927   0.748   0.414  18.948 -2.5711  1.9336 -0.8200
 4578TIP3   OH237928   6.348   6.308  18.823 -0.3888  0.8039 -0.0758
 4578TIP3    H137929   6.329   6.345  18.910 -4.2658  2.6713 -1.4904
 4578TIP3    H237930   6.330   6.380  18.762  0.2368 -1.0069 -2.5401
 4579TIP3   OH237931   0.293   6.625  18.232 -0.1293  0.0698 -0.2296
 4579TIP3    H137932   0.276   6.643  18.325  0.6505  1.2270 -0.3011
 4579TIP3    H237933   0.363   6.685  18.208  0.3407 -0.8833 -1.3332
 4580TIP3   OH237934   0.231   2.413  17.749 -0.1644  0.3920  0.1806
 4580TIP3    H137935   0.261   2.340  17.803 -1.2190  0.7321  1.2480
 4580TIP3    H237936   0.310   2.465  17.733  0.4452 -0.5507  0.0485
 4581TIP3   OH237937   1.175   1.653  17.601  0.0631 -0.2413 -0.0316
 4581TIP3    H137938   1.190   1.668  17.508 -1.9689 -2.8184 -0.8834
 4581TIP3    H237939   1.251   1.602  17.630 -0.7091 -2.0587 -1.0833
 4582TIP3   OH237940   6.995   0.755  19.676 -0.2780  0.1278 -0.0345
 4582TIP3    H137941   7.043   0.675  19.696  0.9251  0.5018 -1.2647
 4582TIP3    H237942   6.927   0.760  19.743  0.6362 -1.0645  1.0186
 4583TIP3   OH237943   2.940   3.371  18.537  0.4945  0.6560 -0.0749
 4583TIP3    H137944   2.854   3.333  18.554  0.9586  0.0565  1.0518
 4583TIP3    H237945   2.929   3.419  18.454 -1.1903  1.4980  0.5896
 4584TIP3   OH237946   6.433   5.300  18.925 -0.1725 -0.2848  0.1844
 4584TIP3    H137947   6.441   5.332  19.015 -1.0274 -0.5735  0.3743
 4584TIP3    H237948   6.523   5.288  18.896  0.1518  1.2405  0.4728
 4585TIP3   OH237949   3.811   7.373  19.736  0.1113  0.0921  0.1036
 4585TIP3    H137950   3.835   7.463  19.758  1.1463 -0.5471  1.7344
 4585TIP3    H237951   3.724   7.380  19.696  0.4603  1.8649 -0.4244
 4586TIP3   OH237952   0.963   6.115  18.179 -0.4189  0.1762  0.2111
 4586TIP3    H137953   1.032   6.053  18.155 -1.0283 -1.1565  1.7160
 4586TIP3    H237954   1.011   6.194  18.205  0.5662 -0.6736  1.0833
 4587TIP3   OH237955   7.181   6.576  18.027 -0.5457  0.2150 -0.1875
 4587TIP3    H137956   7.255   6.636  18.019  1.2267 -1.8584 -0.3315
 4587TIP3    H237957   7.137   6.602  18.108 -0.0385  1.8738 -0.4151
 4588TIP3   OH237958   6.496   1.671  17.515 -0.7863  0.3063  0.0366
 4588TIP3    H137959   6.590   1.651  17.522 -0.4144  1.6861 -0.7958
 4588TIP3    H237960   6.481   1.685  17.422 -2.3358 -2.1143 -0.1820
 4589TIP3   OH237961   1.507   0.192  19.297 -0.0571  0.1090 -0.2894
 4589TIP3    H137962   1.468   0.111  19.332 -2.0347  0.4399 -1.5137
 4589TIP3    H237963   1.448   0.261  19.327  0.5316  0.8565 -0.8429
 4590TIP3   OH237964   0.995   4.970  17.386  0.0508 -0.4391  0.1036
 4590TIP3    H137965   0.934   5.036  17.418 -0.5373 -2.0528  2.6407
 4590TIP3    H237966   0.940   4.894  17.365  0.9843 -1.2225  0.4221
 4591TIP3   OH237967   4.912   0.827  17.409 -0.1939  0.4064 -0.0902
 4591TIP3    H137968   4.955   0.857  17.489  1.4117  1.6214 -1.3278
 4591TIP3    H237969   4.982   0.784  17.359 -1.1675 -0.3411 -0.8377
 4592TIP3   OH237970   6.415   5.414  17.376 -0.3079 -0.2067 -0.4197
 4592TIP3    H137971   6.443   5.420  17.468  1.0305  0.7066 -0.8621
 4592TIP3    H237972   6.497   5.401  17.327 -1.0136 -0.7779 -1.4929
 4593TIP3   OH237973   6.252   1.582  19.078 -0.1216 -0.3141 -0.5247
 4593TIP3    H137974   6.195   1.596  19.154 -0.1782  0.2377 -0.6674
 4593TIP3    H237975   6.205   1.624  19.005 -1.2394 -2.8546 -1.3869
 4594TIP3   OH237976   6.678   2.771  18.406 -0.2354  0.2808 -0.6108
 4594TIP3    H137977   6.650   2.775  18.315  0.2299  1.9374 -0.7099
 4594TIP3    H237978   6.746   2.838  18.414  0.6021 -0.6816  0.6651
 4595TIP3   OH237979   1.731   6.282  19.164  0.3207  0.0519  0.0048
 4595TIP3    H137980   1.772   6.195  19.165  0.1799 -0.0130  0.5188
 4595TIP3    H237981   1.637   6.264  19.158  0.2220  0.1323  1.1243
 4596TIP3   OH237982   3.611   0.877  18.514 -0.1515  0.6050  0.2837
 4596TIP3    H137983   3.645   0.962  18.484 -1.6764  0.5127 -1.9611
 4596TIP3    H237984   3.624   0.819  18.439  1.1013 -1.2803  1.8688
 4597TIP3   OH237985   1.900   3.783  18.982 -0.0513  1.0190 -0.1773
 4597TIP3    H137986   1.946   3.741  19.054  0.4474 -0.0595 -1.0969
 4597TIP3    H237987   1.889   3.874  19.010  0.2663  0.6631  1.1774
 4598TIP3   OH237988   2.281   0.562  17.703 -0.1265  0.1786  0.1076
 4598TIP3    H137989   2.297   0.578  17.796 -0.7830  1.5212  0.0163
 4598TIP3    H237990   2.300   0.469  17.691  1.5240  0.3260  1.2389
 4599TIP3   OH237991   4.030   3.220  18.703 -1.1285 -0.2010  0.4748
 4599TIP3    H137992   3.935   3.220  18.702 -1.1597 -1.7967 -1.1386
 4599TIP3    H237993   4.055   3.194  18.614  0.8181  0.2599  0.8358
 4600TIP3   OH237994   7.275   7.678  19.665 -0.5076  0.3190 -0.1232
 4600TIP3    H137995   7.355   7.637  19.631 -0.5459  1.1661 -1.2619
 4600TIP3    H237996   7.205   7.617  19.642 -0.3883  0.3504 -0.5840
 4601TIP3   OH237997   6.668   2.516  19.080 -0.4767  0.3353  0.6650
 4601TIP3    H137998   6.657   2.452  19.009 -0.5276 -0.3295  1.2591
 4601TIP3    H237999   6.584   2.560  19.086 -0.1969  1.0266 -0.2800
 4602TIP3   OH238000   7.290   6.591  17.704  0.8977 -0.0484 -0.0294
 4602TIP3    H138001   7.370   6.538  17.708 -0.4304 -2.0704  1.3758
 4602TIP3    H238002   7.224   6.538  17.747 -1.9176  0.3832 -3.3994
 4603TIP3   OH238003   6.810   1.302  18.883 -0.1574  0.5319 -0.8060
 4603TIP3    H138004   6.895   1.292  18.840  0.6278  1.6296  0.4078
 4603TIP3    H238005   6.832   1.323  18.974 -1.6920  2.7210 -0.8769
 4604TIP3   OH238006   5.075   4.917  19.709 -0.4513  0.4080 -0.4997
 4604TIP3    H138007   5.082   4.841  19.650 -0.3802 -0.0359  0.0733
 4604TIP3    H238008   5.120   4.889  19.789 -1.9806  0.3881  0.3852
 4605TIP3   OH238009   3.555   4.308  18.850  0.3586 -0.1927 -1.0037
 4605TIP3    H138010   3.563   4.235  18.911  2.2354  1.0136  0.3011
 4605TIP3    H238011   3.509   4.376  18.899  0.6978  0.3270 -1.3960
 4606TIP3   OH238012   6.566   0.247  18.168 -0.2253  0.1915 -0.1061
 4606TIP3    H138013   6.577   0.177  18.103 -2.2198 -0.5656  0.2946
 4606TIP3    H238014   6.644   0.242  18.223 -0.3189 -1.7687 -0.0833
 4607TIP3   OH238015   3.640   5.720  18.632 -0.0879 -0.1222 -0.5150
 4607TIP3    H138016   3.708   5.654  18.615  0.4043 -0.6175  2.8367
 4607TIP3    H238017   3.688   5.799  18.655 -0.6491  0.0658  0.0368
 4608TIP3   OH238018   5.005   2.034  17.702 -0.6417 -0.7345 -0.1620
 4608TIP3    H138019   4.989   2.086  17.781 -0.8111 -2.3675  0.9297
 4608TIP3    H238020   5.077   1.976  17.727  0.7344  0.1052 -1.9169
 4609TIP3   OH238021   6.275   7.087  19.596 -0.5397 -0.6420  0.5736
 4609TIP3    H138022   6.331   7.051  19.527  0.4700  1.6160  0.1366
 4609TIP3    H238023   6.238   7.009  19.640  0.6142 -2.1527 -1.0007
 4610TIP3   OH238024   3.428   6.163  17.536  0.3175 -0.1323  0.0170
 4610TIP3    H138025   3.365   6.113  17.485  2.0008 -2.4089 -0.0272
 4610TIP3    H238026   3.410   6.138  17.627  0.5669 -0.1127  0.0733
 4611TIP3   OH238027   7.488   7.304  19.852  0.7664 -0.0938 -0.4632
 4611TIP3    H138028   7.410   7.331  19.802  1.0499  0.5547 -0.5746
 4611TIP3    H238029   7.468   7.328  19.942  0.1235 -1.5609 -0.1975
 4612TIP3   OH238030   6.428   5.122  17.396 -0.0904 -0.1851  0.2585
 4612TIP3    H138031   6.405   5.215  17.392  1.4343  0.2271 -3.0249
 4612TIP3    H238032   6.384   5.084  17.320  1.5878 -1.5079 -0.1070
 4613TIP3   OH238033   2.196   1.031  18.201 -0.5281  0.4269 -0.4287
 4613TIP3    H138034   2.221   0.941  18.223  1.2940  0.8763 -0.5356
 4613TIP3    H238035   2.197   1.033  18.105  0.2143  0.7530 -0.4197
 4614TIP3   OH238036   0.658   7.582  19.719  0.3642 -0.7591  0.2845
 4614TIP3    H138037   0.710   7.501  19.721 -1.9164 -2.3771 -1.1401
 4614TIP3    H238038   0.588   7.567  19.782  0.5879  0.6404  0.8884
 4615TIP3   OH238039   3.524   5.162  19.301  0.8095 -0.1503  0.3733
 4615TIP3    H138040   3.463   5.090  19.285  0.8090 -0.5248  1.8395
 4615TIP3    H238041   3.584   5.128  19.368  0.1519  1.5232  1.9257
 4616TIP3   OH238042   3.723   1.010  19.235  0.0013  0.0955 -0.1768
 4616TIP3    H138043   3.767   0.979  19.314  0.7387  0.0746 -0.5854
 4616TIP3    H238044   3.735   1.105  19.236  0.1904  0.0740 -0.3678
 4617TIP3   OH238045   0.199   6.650  18.487  0.0518 -0.4626  0.5724
 4617TIP3    H138046   0.153   6.599  18.553 -3.2299  0.5781 -0.6993
 4617TIP3    H238047   0.201   6.739  18.523 -1.8901  0.1407 -0.6835
 4618TIP3   OH238048   0.375   7.260  17.329 -0.0150 -0.3039  0.4712
 4618TIP3    H138049   0.363   7.335  17.270  0.0861 -0.4079  0.3168
 4618TIP3    H238050   0.286   7.238  17.357 -0.0557 -0.1987  0.4236
 4619TIP3   OH238051   3.796   0.986  18.204  0.4233  0.0513 -0.9199
 4619TIP3    H138052   3.807   1.076  18.234  0.4674 -0.2975  0.1722
 4619TIP3    H238053   3.811   0.933  18.283  0.2780 -0.9002 -1.5182
 4620TIP3   OH238054   3.152   1.080  17.785 -0.2317 -0.3588 -0.0764
 4620TIP3    H138055   3.181   1.171  17.788  0.9306 -0.7231  1.8076
 4620TIP3    H238056   3.168   1.052  17.695  1.1810  0.7669 -0.2035
 4621TIP3   OH238057   7.121   7.449  19.176  0.0085 -0.0824  0.2227
 4621TIP3    H138058   7.138   7.360  19.208  1.2589  1.4865  4.4929
 4621TIP3    H238059   7.039   7.475  19.218  0.3054  1.2378  0.0370
 4622TIP3   OH238060   4.642   1.128  18.380  0.1455  0.0696 -0.5160
 4622TIP3    H138061   4.635   1.212  18.335  1.1200  0.3527 -0.1672
 4622TIP3    H238062   4.581   1.071  18.334 -0.2473  0.8618 -0.9997
 4623TIP3   OH238063   7.078   3.103  18.458  0.4993 -0.1292 -0.1995
 4623TIP3    H138064   7.039   3.047  18.391 -0.1813 -0.5967  0.5653
 4623TIP3    H238065   7.032   3.080  18.538  0.4835  1.2523  0.2164
 4624TIP3   OH238066   3.337   2.490  18.735  0.0836 -0.1377  0.2674
 4624TIP3    H138067   3.254   2.521  18.771 -0.3234 -0.3264 -0.4709
 4624TIP3    H238068   3.383   2.451  18.809 -1.2848 -1.7019  0.3426
 4625TIP3   OH238069   7.211   6.824  17.826  0.1041 -0.1460  0.4818
 4625TIP3    H138070   7.265   6.897  17.795  1.3095 -0.2334  2.2396
 4625TIP3    H238071   7.250   6.747  17.785 -1.1798  0.1405 -1.3924
 4626TIP3   OH238072   5.078   6.148  16.788  0.4642 -0.2960 -0.7802
 4626TIP3    H138073   5.071   6.239  16.757  0.9644 -0.0766 -0.2730
 4626TIP3    H238074   5.164   6.144  16.830 -0.6496 -0.2515  1.6599
 4627TIP3   OH238075   0.105   5.689  17.975  0.7736 -0.5938  0.2525
 4627TIP3    H138076   0.026   5.640  17.999  1.3482 -1.9056 -0.4372
 4627TIP3    H238077   0.122   5.744  18.051 -1.1133  0.1580  0.1983
 4628TIP3   OH238078   5.350   1.941  18.346  0.1465 -0.4286 -0.7213
 4628TIP3    H138079   5.302   2.019  18.321  1.4042  0.6030 -0.0348
 4628TIP3    H238080   5.303   1.907  18.422  0.2524  0.3469 -0.2965
 4629TIP3   OH238081   4.324   0.028  18.570  0.3643  0.1087 -0.1213
 4629TIP3    H138082   4.413   0.040  18.600  0.5357  0.1450 -0.6283
 4629TIP3    H238083   4.317  -0.066  18.550 -0.1776 -0.1903  1.3506
 4630TIP3   OH238084   0.396   5.322  19.367  0.1551 -0.1868 -0.1492
 4630TIP3    H138085   0.344   5.302  19.444  1.7258  0.5542  1.1697
 4630TIP3    H238086   0.339   5.302  19.293 -1.2884 -1.2197  1.1877
 4631TIP3   OH238087   5.749   4.667  18.122 -0.5507 -0.2969  0.4345
 4631TIP3    H138088   5.657   4.687  18.104 -0.9591 -1.3653  1.2302
 4631TIP3    H238089   5.797   4.741  18.084 -1.8072  0.9112  1.1063
 4632TIP3   OH238090   0.690   6.580  18.024 -0.0306  0.0798  0.2639
 4632TIP3    H138091   0.713   6.611  17.937  0.6555 -0.7606  0.1309
 4632TIP3    H238092   0.675   6.486  18.013 -0.8831  0.1344  0.8753
 4633TIP3   OH238093   0.142   5.237  18.839  0.2738  0.5444  0.0149
 4633TIP3    H138094   0.234   5.210  18.843 -0.2972 -1.4426  0.7907
 4633TIP3    H238095   0.146   5.332  18.826  2.4247  0.4997 -0.0540
 4634TIP3   OH238096   2.416   2.059  18.833 -0.1407  0.3738 -0.2397
 4634TIP3    H138097   2.444   2.150  18.840 -1.2507  0.7078  0.0532
 4634TIP3    H238098   2.465   2.025  18.758 -0.2330  1.4138 -0.7967
 4635TIP3   OH238099   0.625   4.089  18.345  0.2474  0.0927  0.4883
 4635TIP3    H138100   0.539   4.128  18.332  0.6079  0.3825 -1.3254
 4635TIP3    H238101   0.681   4.162  18.373 -0.3026 -0.3233  2.8640
 4636TIP3   OH238102   5.573   0.266  17.910  0.3847 -0.4454 -0.1117
 4636TIP3    H138103   5.634   0.313  17.967 -0.2643 -0.1083  0.3270
 4636TIP3    H238104   5.628   0.208  17.859  0.9573 -1.1052  1.1955
 4637TIP3   OH238105   0.953   4.259  17.507  0.0412 -0.0648  0.4325
 4637TIP3    H138106   0.860   4.255  17.487  0.1497 -0.6537  0.0359
 4637TIP3    H238107   0.978   4.169  17.527  0.5046  0.1021  0.6389
 4638TIP3   OH238108   3.403   3.425  17.899 -0.0975  0.0195  0.3155
 4638TIP3    H138109   3.449   3.500  17.861  0.6858  0.2611  1.6732
 4638TIP3    H238110   3.343   3.397  17.830  1.3682  0.3146 -1.1617
 4639TIP3   OH238111   7.383   3.269  18.745  0.0376 -0.0047  0.3846
 4639TIP3    H138112   7.373   3.247  18.838  1.1585 -0.4399  0.4125
 4639TIP3    H238113   7.462   3.323  18.741 -0.0888  0.1422 -0.3034
 4640TIP3   OH238114   1.934   7.547  18.204  0.3620  0.4328  0.6053
 4640TIP3    H138115   1.991   7.509  18.270 -0.5144  0.9243  1.6721
 4640TIP3    H238116   1.847   7.550  18.245 -0.5116 -0.4916 -1.0408
 4641TIP3   OH238117   4.112   2.788  18.418  1.0110 -0.4894  0.0998
 4641TIP3    H138118   4.183   2.758  18.474  0.8953 -0.0275  0.5128
 4641TIP3    H238119   4.147   2.865  18.374  0.9289 -0.5438 -0.0602
 4642TIP3   OH238120   0.066   5.122  18.619  0.2790  0.9440  0.1561
 4642TIP3    H138121   0.074   5.150  18.710 -0.8446 -0.4527  0.7297
 4642TIP3    H238122   0.129   5.175  18.572  1.0145  1.5818  1.7786
 4643TIP3   OH238123   0.811   6.338  17.573 -0.1527 -1.2812  0.4750
 4643TIP3    H138124   0.752   6.360  17.501 -0.4339 -1.0163  0.7881
 4643TIP3    H238125   0.851   6.255  17.546  1.1591 -0.2832 -0.8519
 4644TIP3   OH238126   6.408   3.143  18.335 -0.3325  0.2987  0.4092
 4644TIP3    H138127   6.433   3.089  18.261 -0.4771 -0.2549  0.7553
 4644TIP3    H238128   6.462   3.221  18.328  0.3903 -0.2058  0.2902
 4645TIP3   OH238129   5.666   5.703  19.217  0.0228 -0.2062  0.2367
 4645TIP3    H138130   5.594   5.667  19.166 -2.8731 -0.0493  3.7716
 4645TIP3    H238131   5.710   5.626  19.253  0.7298 -0.2793 -0.7516
 4646TIP3   OH238132   5.261   4.742  17.692  0.1804 -0.3476  0.0434
 4646TIP3    H138133   5.211   4.786  17.624  1.3012 -1.0102 -1.2622
 4646TIP3    H238134   5.343   4.791  17.697  0.3048 -0.6067  0.5665
 4647TIP3   OH238135   5.048   4.885  19.009  0.3068  0.9037  0.4356
 4647TIP3    H138136   5.026   4.792  19.006 -0.8669  1.1961 -0.5319
 4647TIP3    H238137   5.143   4.887  18.994  0.1455 -0.0716 -0.9281
 4648TIP3   OH238138   6.242   5.296  17.596 -0.4315  0.3782  0.0554
 4648TIP3    H138139   6.216   5.215  17.551 -0.2161  0.6231 -0.5283
 4648TIP3    H238140   6.242   5.362  17.527 -0.0830  0.7649  0.4225
 4649TIP3   OH238141   0.892   5.016  17.683 -0.2925 -0.2064 -0.4127
 4649TIP3    H138142   0.874   5.037  17.774  1.3853 -1.2344  0.1985
 4649TIP3    H238143   0.987   5.007  17.678 -0.4138 -1.0883 -2.0377
 4650TIP3   OH238144   1.420   3.348  19.013  0.0940  0.6362 -0.1386
 4650TIP3    H138145   1.486   3.406  19.052  1.4400 -0.7153 -0.3207
 4650TIP3    H238146   1.449   3.334  18.923  0.8452 -1.7323  0.4012
 4651TIP3   OH238147   0.263   7.491  18.713  0.6172  0.7238 -0.5936
 4651TIP3    H138148   0.219   7.524  18.634  1.3426  0.2768 -1.1998
 4651TIP3    H238149   0.220   7.408  18.731  0.0357  1.1109 -0.1449
 4652TIP3   OH238150   6.418   2.280  19.647  0.2087 -0.1749  0.3109
 4652TIP3    H138151   6.453   2.195  19.619 -2.0689 -1.0085 -0.2000
 4652TIP3    H238152   6.390   2.322  19.565  0.1980  0.5589  0.6845
 4653TIP3   OH238153   2.844   5.266  18.962  0.6089  0.2787  0.2566
 4653TIP3    H138154   2.827   5.331  19.030  0.5764  1.3033 -0.6965
 4653TIP3    H238155   2.908   5.207  19.000  0.2544  0.5743  1.3348
 4654TIP3   OH238156   6.069   3.456  18.896  0.4870 -1.2932  0.0504
 4654TIP3    H138157   6.066   3.471  18.802 -1.4278 -0.4865  0.1824
 4654TIP3    H238158   6.016   3.377  18.909 -1.3844 -0.0243  0.6107
 4655TIP3   OH238159   7.014   5.325  19.399  0.0229 -0.4588  0.3778
 4655TIP3    H138160   7.052   5.238  19.393 -1.6726 -1.1337 -1.5643
 4655TIP3    H238161   6.929   5.318  19.356 -0.8188  1.8090  1.4805
 4656TIP3   OH238162   0.669   1.761  18.606  0.0761  0.0767  0.2430
 4656TIP3    H138163   0.599   1.698  18.590  1.5823 -2.2126  2.0642
 4656TIP3    H238164   0.641   1.809  18.684 -0.6867  1.1540 -0.6604
 4657TIP3   OH238165   7.277   6.868  18.798 -0.5054 -0.2907  0.2599
 4657TIP3    H138166   7.215   6.929  18.838  1.2730  0.8602  1.3677
 4657TIP3    H238167   7.275   6.792  18.856 -0.0593  0.2053  0.9390
 4658TIP3   OH238168   7.086   1.363  18.821  0.8145 -0.3343 -0.1992
 4658TIP3    H138169   7.180   1.373  18.810  0.9811 -1.0531  0.4703
 4658TIP3    H238170   7.077   1.300  18.893 -0.1755 -0.1049 -0.1078
 4659TIP3   OH238171   1.348   1.485  17.016 -0.4361  0.4635  0.0713
 4659TIP3    H138172   1.305   1.489  17.101 -1.4637  3.6517 -0.4745
 4659TIP3    H238173   1.417   1.552  17.020  0.3114 -0.1867 -1.2040
 4660TIP3   OH238174   4.995   0.978  19.523 -0.1974 -0.7466  0.0605
 4660TIP3    H138175   4.925   0.913  19.530 -0.8707  0.0870  1.7797
 4660TIP3    H238176   5.013   1.003  19.614  2.2113 -0.7681 -0.3580
 4661TIP3   OH238177   2.437   2.582  18.547 -0.0536 -0.0740  0.2998
 4661TIP3    H138178   2.409   2.500  18.505  0.0469  0.2234 -0.3559
 4661TIP3    H238179   2.435   2.647  18.477 -1.5105  0.8185  1.1309
 4662TIP3   OH238180   1.596   0.454  19.578  0.1827  0.0954 -0.0568
 4662TIP3    H138181   1.510   0.462  19.536  0.8085  1.5294 -1.1284
 4662TIP3    H238182   1.593   0.513  19.653 -0.6340 -1.8271  1.5191
 4663TIP3   OH238183   3.512   1.986  18.296 -0.5995 -0.1923 -0.3368
 4663TIP3    H138184   3.463   2.068  18.284  1.2712  1.0293  0.0570
 4663TIP3    H238185   3.579   1.988  18.228  0.9077 -0.2754  1.1022
 4664TIP3   OH238186   2.621   3.368  17.481 -0.6335  0.5431 -0.7745
 4664TIP3    H138187   2.560   3.400  17.415  0.4066  1.8660 -1.1253
 4664TIP3    H238188   2.697   3.426  17.476  1.1957 -1.6968 -1.1471
 4665TIP3   OH238189   0.084   6.117  19.564 -0.1082 -0.3022  0.7346
 4665TIP3    H138190   0.122   6.029  19.564 -0.7437 -0.6016 -0.7821
 4665TIP3    H238191   0.001   6.107  19.519 -0.7898  0.8542  1.6844
 4666TIP3   OH238192   4.438   1.059  19.668  0.4232 -0.1657  0.2557
 4666TIP3    H138193   4.364   1.111  19.698  1.0753 -0.4544  2.5819
 4666TIP3    H238194   4.478   1.111  19.598 -2.0658 -0.1285 -1.2329
 4667TIP3   OH238195   3.569   1.352  19.000 -0.3797  0.0441  0.3573
 4667TIP3    H138196   3.535   1.403  18.927 -0.4574 -1.0022 -0.3610
 4667TIP3    H238197   3.532   1.393  19.078 -1.5145  0.2689 -0.2786
 4668TIP3   OH238198   0.190   6.302  18.674 -0.1168 -0.5329 -0.1053
 4668TIP3    H138199   0.187   6.208  18.688  1.1908 -0.2852  2.2716
 4668TIP3    H238200   0.282   6.321  18.658 -0.0863  0.5076  1.1257
 4669TIP3   OH238201   2.737   6.972  18.476  0.0163 -0.2092 -0.7556
 4669TIP3    H138202   2.815   6.965  18.421  0.6230  0.4153 -0.0034
 4669TIP3    H238203   2.754   7.049  18.531 -0.1109 -1.4113  1.0223
 4670TIP3   OH238204   4.641   1.764  18.423 -0.2805 -0.0942 -0.0561
 4670TIP3    H138205   4.623   1.855  18.446  0.0915 -0.2680  0.9909
 4670TIP3    H238206   4.578   1.743  18.354 -0.7339  0.7846  0.0846
 4671TIP3   OH238207   0.580   3.231  19.781 -0.2913 -0.1434  0.0595
 4671TIP3    H138208   0.663   3.265  19.814 -0.2574  0.2729 -0.4538
 4671TIP3    H238209   0.581   3.138  19.807  0.1625 -0.0554  0.3773
 4672TIP3   OH238210   2.747   3.586  17.966  0.0015  0.4029 -0.4650
 4672TIP3    H138211   2.812   3.568  17.899 -0.6012 -0.4280 -0.8472
 4672TIP3    H238212   2.663   3.585  17.919 -0.6360 -2.1578  0.5709
 4673TIP3   OH238213   2.958   7.607  17.669  0.1423 -0.1816  0.3694
 4673TIP3    H138214   3.029   7.666  17.694  0.4757 -1.2644  2.1465
 4673TIP3    H238215   2.979   7.524  17.711 -1.4574 -0.9431 -0.2231
 4674TIP3   OH238216   6.995   3.535  17.462  0.4492  0.8600  0.6687
 4674TIP3    H138217   6.969   3.627  17.461 -0.9152  0.5046  0.2672
 4674TIP3    H238218   6.981   3.506  17.372  1.1198  0.3115  0.7324
 4675TIP3   OH238219   5.800   0.038  19.304  0.5031  0.3195 -0.2471
 4675TIP3    H138220   5.784  -0.049  19.268 -0.6108  1.7787 -3.7243
 4675TIP3    H238221   5.895   0.047  19.304  0.5948 -0.3066 -1.6238
 4676TIP3   OH238222   4.489   0.620  17.480  0.6604 -0.2453 -0.0129
 4676TIP3    H138223   4.533   0.634  17.564  0.8796 -1.8497  0.1811
 4676TIP3    H238224   4.560   0.613  17.416  0.5933 -0.8149 -0.0300
 4677TIP3   OH238225   7.185   2.861  18.031  0.2336  0.3444  0.3043
 4677TIP3    H138226   7.280   2.851  18.027  0.0340 -1.5200 -1.4371
 4677TIP3    H238227   7.152   2.772  18.048 -1.1941  0.9657  0.9385
 4678TIP3   OH238228   4.403   5.351  18.928 -0.5310  0.4286 -0.4422
 4678TIP3    H138229   4.487   5.318  18.960 -1.3354 -3.6745 -2.0470
 4678TIP3    H238230   4.427   5.419  18.864  1.8830 -2.5467 -3.0172
 4679TIP3   OH238231   4.031   1.704  19.304 -0.3828  0.4236  0.0048
 4679TIP3    H138232   4.108   1.747  19.266 -1.0031  1.0447 -0.5882
 4679TIP3    H238233   4.012   1.631  19.245  1.0192 -1.0723  1.3303
 4680TIP3   OH238234   0.260   4.689  17.951 -0.1945  0.4824  0.3189
 4680TIP3    H138235   0.167   4.693  17.929  0.1559 -0.5992 -1.5329
 4680TIP3    H238236   0.295   4.774  17.924 -0.1505 -0.1184 -1.6553
 4681TIP3   OH238237   2.203   1.091  17.929  0.2117  0.1122  0.4307
 4681TIP3    H138238   2.294   1.111  17.908  1.0470 -2.7636  0.8729
 4681TIP3    H238239   2.153   1.128  17.856  2.0152 -0.6172 -1.2729
 4682TIP3   OH238240   4.942   1.220  17.339  0.3699 -0.1597  0.3258
 4682TIP3    H138241   4.910   1.180  17.420  1.1547 -0.8408  0.3145
 4682TIP3    H238242   5.021   1.267  17.366  1.0733 -1.0313 -0.1651
 4683TIP3   OH238243   5.996   1.783  17.992  0.2647 -0.1218 -0.5065
 4683TIP3    H138244   5.931   1.744  17.934 -0.0662  0.4452 -0.5244
 4683TIP3    H238245   6.080   1.753  17.956  0.0258 -0.6890 -0.6041
 4684TIP3   OH238246   3.841   3.814  18.839 -0.0452 -0.4116  0.2321
 4684TIP3    H138247   3.859   3.789  18.749 -2.1846 -2.8000  0.3878
 4684TIP3    H238248   3.746   3.825  18.843 -0.0022 -0.4196  2.2257
 4685TIP3   OH238249   4.192   6.836  19.119  0.7984  0.3338  0.1387
 4685TIP3    H138250   4.231   6.818  19.205 -0.1722 -4.8808 -0.1549
 4685TIP3    H238251   4.098   6.844  19.138  0.6555 -0.1852 -0.3366
 4686TIP3   OH238252   5.091   5.978  17.025  0.2010  0.4256 -0.2509
 4686TIP3    H138253   5.157   6.035  17.066 -0.6753  1.2385  0.0657
 4686TIP3    H238254   5.053   6.032  16.955  0.9239 -0.5787 -1.4518
 4687TIP3   OH238255   2.632   1.052  18.061  0.4544  0.0731  0.1282
 4687TIP3    H138256   2.618   1.094  17.976  0.2917 -2.2238 -1.0568
 4687TIP3    H238257   2.705   0.992  18.047  0.3981 -0.3819  1.6076
 4688TIP3   OH238258   2.970   1.934  19.723 -0.3150 -0.1104  0.2124
 4688TIP3    H138259   3.019   1.926  19.805 -3.2769 -0.5154  2.0768
 4688TIP3    H238260   3.018   1.879  19.661  1.6464 -0.3266  1.8162
 4689TIP3   OH238261   4.763   0.605  18.425 -0.4297 -0.0260 -0.4175
 4689TIP3    H138262   4.852   0.601  18.461  0.0847 -0.0290 -1.6353
 4689TIP3    H238263   4.737   0.513  18.413 -0.9912 -0.0460  0.8330
 4690TIP3   OH238264   3.174   1.614  19.072  0.4420 -0.1838  0.0919
 4690TIP3    H138265   3.216   1.669  19.006  1.0921 -1.1145 -0.2946
 4690TIP3    H238266   3.089   1.655  19.088 -0.3347 -0.6917 -2.3723
 4691TIP3   OH238267   4.735   5.673  18.906 -0.1321  0.3649 -0.6687
 4691TIP3    H138268   4.683   5.699  18.830 -1.0900 -2.8631 -1.2579
 4691TIP3    H238269   4.800   5.612  18.871  1.4197  1.1388  0.7020
 4692TIP3   OH238270   3.115   3.148  19.154  0.4524 -0.3383  0.0607
 4692TIP3    H138271   3.106   3.053  19.144  0.2209 -0.2940 -0.1764
 4692TIP3    H238272   3.088   3.183  19.069  0.1202 -0.0401  0.2863
 4693TIP3   OH238273   5.105   4.657  19.274  0.2196 -0.2610  0.0749
 4693TIP3    H138274   5.081   4.570  19.242 -1.6088  0.0028  0.6325
 4693TIP3    H238275   5.200   4.653  19.285  0.0748 -2.4540  0.8935
 4694TIP3   OH238276   3.129   2.563  18.908 -0.1523  0.5646  0.4517
 4694TIP3    H138277   3.039   2.554  18.877 -0.0206 -1.6558  0.5763
 4694TIP3    H238278   3.125   2.541  19.001  0.4480  0.9883  0.5863
 4695TIP3   OH238279   5.654   2.907  19.700 -0.1705  0.0695 -0.3920
 4695TIP3    H138280   5.710   2.911  19.778 -0.4114 -0.4859 -0.1862
 4695TIP3    H238281   5.623   2.817  19.697 -0.0058  0.0337 -1.2499
 4696TIP3   OH238282   5.827   6.721  17.734 -0.3111 -0.3681  0.0562
 4696TIP3    H138283   5.779   6.640  17.752 -1.8972  0.0618 -1.8801
 4696TIP3    H238284   5.853   6.713  17.642 -0.5117  1.2906 -0.1785
 4697TIP3   OH238285   4.943   4.930  18.007  0.4826  0.2876  0.1309
 4697TIP3    H138286   4.993   4.959  17.931 -0.3458 -0.1735 -0.5984
 4697TIP3    H238287   5.007   4.885  18.062  1.1156  0.7423 -0.2238
 4698TIP3   OH238288   2.678   2.181  18.952 -0.3190  0.1249  0.0827
 4698TIP3    H138289   2.652   2.184  19.044 -0.3999 -1.1374  0.1278
 4698TIP3    H238290   2.711   2.092  18.940  1.8056  0.9289 -0.5574
 4699TIP3   OH238291   4.502   3.132  17.870  0.1108  0.3029  0.7795
 4699TIP3    H138292   4.435   3.074  17.906 -1.0769  1.2590  0.2024
 4699TIP3    H238293   4.585   3.087  17.885 -0.8641 -2.3955 -1.2525
 4700TIP3   OH238294   1.017   3.718  19.093 -0.3806 -0.0485  0.1431
 4700TIP3    H138295   1.072   3.642  19.077 -0.1920 -0.0432  0.7303
 4700TIP3    H238296   1.067   3.772  19.155 -0.0086  1.1147 -1.1180
 4701TIP3   OH238297   3.835   4.414  19.217  0.3730 -0.1632 -0.0405
 4701TIP3    H138298   3.780   4.336  19.216  0.0855  0.0502 -1.1738
 4701TIP3    H238299   3.799   4.471  19.150  1.0109  0.6574  0.2885
 4702TIP3   OH238300   7.336   7.309  18.960 -0.0704 -0.1603  0.1846
 4702TIP3    H138301   7.267   7.299  19.027  0.0110 -1.0076  0.1500
 4702TIP3    H238302   7.412   7.266  18.998  0.2359  0.1378 -0.0874
 4703TIP3   OH238303   2.504   1.961  19.639  0.0334  0.3796  0.1867
 4703TIP3    H138304   2.470   1.960  19.549  2.0977  0.3406 -0.6398
 4703TIP3    H238305   2.449   1.897  19.686 -0.6691 -0.0691 -1.1898
 4704TIP3   OH238306   7.255   5.017  18.383  0.0396 -0.1157  0.6289
 4704TIP3    H138307   7.197   5.004  18.308  0.3856 -0.2968  0.3912
 4704TIP3    H238308   7.266   4.929  18.420  1.1729 -0.2926 -0.0828
 4705TIP3   OH238309   6.378   4.985  18.585  0.0281  0.0058 -0.2268
 4705TIP3    H138310   6.291   5.010  18.615 -1.0096 -1.3756 -1.8596
 4705TIP3    H238311   6.412   4.929  18.655  0.5154  2.1495  1.3504
 4706TIP3   OH238312   5.944   0.716  19.427 -0.7007  0.7025 -0.5066
 4706TIP3    H138313   5.963   0.725  19.520 -2.4479  1.4870 -0.1836
 4706TIP3    H238314   6.007   0.651  19.396  0.6597  1.2437  0.9613
 4707TIP3   OH238315   4.202   1.952  16.926 -0.3107 -0.3733  0.3982
 4707TIP3    H138316   4.267   1.959  16.856  1.7169 -0.6096  2.1700
 4707TIP3    H238317   4.189   2.042  16.956 -1.4385 -0.2290 -0.4477
 4708TIP3   OH238318   2.587   7.148  17.900 -0.6274 -0.2335  0.2447
 4708TIP3    H138319   2.565   7.105  17.983 -0.4769 -0.5789  0.1086
 4708TIP3    H238320   2.653   7.090  17.860  2.3284  1.8636  1.6959
 4709TIP3   OH238321   5.800   6.464  18.023  0.2195 -0.5485  0.1894
 4709TIP3    H138322   5.870   6.466  17.958  0.2045 -3.0314  0.0172
 4709TIP3    H238323   5.723   6.434  17.975  0.2259 -2.4868  1.2748
 4710TIP3   OH238324   6.526   2.242  17.248  0.0976 -0.0973  0.1733
 4710TIP3    H138325   6.545   2.196  17.330  0.7862  1.6314  1.0358
 4710TIP3    H238326   6.463   2.310  17.272 -1.0209 -0.6499 -1.0967
 4711TIP3   OH238327   2.501   2.803  19.256 -0.0766  0.5170 -0.4227
 4711TIP3    H138328   2.502   2.710  19.277  0.6100  0.4865 -0.5982
 4711TIP3    H238329   2.593   2.828  19.250 -0.1803  1.6947  1.7400
 4712TIP3   OH238330   7.599   1.703  18.517  0.0305 -0.5693 -0.5365
 4712TIP3    H138331   7.635   1.761  18.584  0.2798 -1.0584 -0.2413
 4712TIP3    H238332   7.521   1.664  18.558 -1.3688  1.1135 -1.4572
 4713TIP3   OH238333   5.616   4.221  18.306 -0.4652 -0.4045  0.0135
 4713TIP3    H138334   5.560   4.205  18.382 -0.0845  0.2816  0.4455
 4713TIP3    H238335   5.614   4.316  18.294  0.6037 -0.3671  0.0325
 4714TIP3   OH238336   0.209   2.403  19.681  0.5449  0.9279  0.5456
 4714TIP3    H138337   0.282   2.367  19.631 -0.6872 -2.2473  0.8295
 4714TIP3    H238338   0.206   2.496  19.655  3.3720  0.7013 -0.9706
 4715TIP3   OH238339   1.237   4.393  19.502 -0.3729  0.3429 -0.4031
 4715TIP3    H138340   1.248   4.309  19.547 -0.8222  0.1741 -0.6052
 4715TIP3    H238341   1.176   4.442  19.556  0.1209  0.6668 -0.1243
 4716TIP3   OH238342   0.312   5.233  19.720  0.3905  0.4161 -0.2841
 4716TIP3    H138343   0.272   5.321  19.716 -1.7252 -0.3750  1.2653
 4716TIP3    H238344   0.277   5.188  19.643 -0.8974  0.0876  0.4550
 4717TIP3   OH238345   4.550   7.242  18.387  0.1242  0.1751 -0.1555
 4717TIP3    H138346   4.534   7.178  18.317  1.0834 -0.1422 -0.1098
 4717TIP3    H238347   4.567   7.324  18.341  2.3443 -0.3668 -0.4308
 4718TIP3   OH238348   4.329   3.963  18.876 -0.2188  0.1009 -0.1098
 4718TIP3    H138349   4.248   3.975  18.826 -0.2371  1.8976  0.2708
 4718TIP3    H238350   4.369   3.885  18.838 -0.4282  1.1327 -2.6722
 4719TIP3   OH238351   3.808   7.431  17.599  0.4781  0.3470  0.3516
 4719TIP3    H138352   3.807   7.461  17.508 -2.0799 -0.9948 -0.1519
 4719TIP3    H238353   3.884   7.475  17.638  1.2918  1.4277 -2.2491
 4720TIP3   OH238354   7.383   3.141  18.992 -0.6496  0.1791  0.0312
 4720TIP3    H138355   7.325   3.166  19.063  0.7582  1.7005  0.7280
 4720TIP3    H238356   7.465   3.116  19.035 -0.8236 -2.2446 -0.8901
 4721TIP3   OH238357   0.612   2.832  19.521  0.0336 -0.5229  0.6729
 4721TIP3    H138358   0.626   2.918  19.483  1.0956 -0.5466  0.9752
 4721TIP3    H238359   0.679   2.776  19.479  0.2774 -0.8694  1.5052
 4722TIP3   OH238360   2.802   0.860  17.497 -0.5118  0.0655  0.4176
 4722TIP3    H138361   2.888   0.844  17.458 -1.4293  0.8657 -2.1336
 4722TIP3    H238362   2.815   0.939  17.550  0.0322  1.0917 -1.1771
 4723TIP3   OH238363   2.604   6.168  17.286 -0.5788 -0.0427  0.6215
 4723TIP3    H138364   2.612   6.239  17.350 -1.1974 -0.3851  1.0771
 4723TIP3    H238365   2.579   6.213  17.205  1.1590  0.5102  0.3466
 4724TIP3   OH238366   4.765   3.412  19.104  0.2108  0.0604 -0.1627
 4724TIP3    H138367   4.765   3.335  19.048  1.4201 -1.0311  1.2559
 4724TIP3    H238368   4.857   3.439  19.107  0.4542 -0.8045  2.4119
 4725TIP3   OH238369   0.780   0.206  17.848 -0.3664  0.1355  0.0005
 4725TIP3    H138370   0.826   0.123  17.859 -0.3201  0.0279 -0.9522
 4725TIP3    H238371   0.837   0.271  17.889  0.2829 -0.1066 -0.5032
 4726TIP3   OH238372   1.426   6.291  19.811  0.3801 -0.3138 -0.2705
 4726TIP3    H138373   1.462   6.373  19.844 -3.0339  1.0134  0.5336
 4726TIP3    H238374   1.399   6.310  19.721 -1.1661 -0.2536  0.1856
 4727TIP3   OH238375   4.699   3.573  18.876  0.0755 -0.0893 -0.9001
 4727TIP3    H138376   4.742   3.495  18.839  5.2197  2.4348 -1.2025
 4727TIP3    H238377   4.690   3.553  18.969 -0.7230 -1.7328 -1.2857
 4728TIP3   OH238378   3.744   5.589  19.974 -0.2648  0.0930 -0.0516
 4728TIP3    H138379   3.673   5.535  19.939  0.7706 -0.7170 -0.9723
 4728TIP3    H238380   3.700   5.653  20.030 -1.6902 -0.5492 -0.3910
 4729TIP3   OH238381   0.278   3.185  19.151 -0.2794 -0.1497  0.0213
 4729TIP3    H138382   0.252   3.258  19.207 -1.2937 -0.4440 -0.0425
 4729TIP3    H238383   0.361   3.212  19.113 -0.2659  0.6452  0.5906
 4730TIP3   OH238384   7.522   2.174  17.718  0.5686  0.0457 -0.2103
 4730TIP3    H138385   7.493   2.109  17.782 -0.8325 -0.5879 -1.4278
 4730TIP3    H238386   7.448   2.182  17.657  1.3611  1.5722 -1.0247
 4731TIP3   OH238387   7.350   2.459  17.358  0.4332  0.1627 -0.0433
 4731TIP3    H138388   7.294   2.412  17.296  0.4854  1.0483 -0.7813
 4731TIP3    H238389   7.438   2.427  17.338  0.6559  1.6055 -1.5527
 4732TIP3   OH238390   3.629   5.152  17.781 -0.0073 -0.2431 -0.3096
 4732TIP3    H138391   3.662   5.066  17.753  1.4856  0.3224 -0.4128
 4732TIP3    H238392   3.703   5.190  17.829 -1.2856  0.2479  1.3347
 4733TIP3   OH238393   4.068   5.295  18.120 -0.1066 -0.2406 -0.0175
 4733TIP3    H138394   4.131   5.313  18.050 -0.2954 -0.3760 -0.2221
 4733TIP3    H238395   3.995   5.355  18.104  0.5049  0.7967  0.9438
 4734TIP3   OH238396   6.092   2.409  18.313  0.0787  0.2365 -0.0537
 4734TIP3    H138397   6.021   2.363  18.357  0.7511  0.8606  1.8029
 4734TIP3    H238398   6.171   2.361  18.338  0.5226  0.8135 -0.3200
 4735TIP3   OH238399   5.206   3.627  18.673 -0.5711 -0.1216  0.0137
 4735TIP3    H138400   5.213   3.706  18.618 -0.0600  0.9563  1.5706
 4735TIP3    H238401   5.277   3.571  18.643 -0.2427  0.4844 -0.3778
 4736TIP3   OH238402   1.073   2.563  18.236 -0.1238  0.3467 -0.5569
 4736TIP3    H138403   1.000   2.506  18.259  0.6294 -0.8995 -1.1154
 4736TIP3    H238404   1.094   2.539  18.146  1.5488  0.0033 -0.1127
 4737TIP3   OH238405   4.928   1.653  17.994 -0.0242 -0.0833 -0.3973
 4737TIP3    H138406   4.881   1.736  17.981 -0.0752 -0.2373 -1.2565
 4737TIP3    H238407   4.965   1.660  18.082 -0.1005  0.8181 -0.4297
 4738TIP3   OH238408   0.719   5.831  18.008  0.2227  0.0540 -0.0599
 4738TIP3    H138409   0.707   5.917  17.969  0.2532  0.3279  0.5352
 4738TIP3    H238410   0.785   5.789  17.952 -0.4500  0.0686 -0.8819
 4739TIP3   OH238411   6.589   6.856  19.608 -0.1825 -0.4829 -0.1574
 4739TIP3    H138412   6.511   6.832  19.658  1.1765 -0.7948  1.9332
 4739TIP3    H238413   6.567   6.939  19.566 -1.9459 -1.0448 -0.4067
 4740TIP3   OH238414   0.091   6.073  18.952 -0.4777 -0.4956 -0.2851
 4740TIP3    H138415   0.023   6.084  18.886  1.7010  0.8920 -2.4421
 4740TIP3    H238416   0.132   6.159  18.959 -0.6435 -0.5691  3.0113
 4741TIP3   OH238417   2.932   6.833  18.700  0.4155 -0.1419 -0.5171
 4741TIP3    H138418   3.009   6.797  18.745  0.9783  1.6571  0.0199
 4741TIP3    H238419   2.956   6.923  18.680 -1.5233  0.4133 -0.4743
 4742TIP3   OH238420   4.179   5.080  19.304 -0.8416 -0.9580 -0.3689
 4742TIP3    H138421   4.126   5.064  19.382 -1.0175 -0.4589 -0.3812
 4742TIP3    H238422   4.165   5.172  19.284  0.2789 -0.7277 -0.1844
 4743TIP3   OH238423   0.838   1.679  17.862 -0.0466 -0.0854 -0.2741
 4743TIP3    H138424   0.819   1.602  17.917  1.0321 -0.5750 -0.5537
 4743TIP3    H238425   0.862   1.642  17.777  2.4594  0.4104  0.1433
 4744TIP3   OH238426   0.913   0.790  18.758  0.2219 -0.1957 -0.4361
 4744TIP3    H138427   0.953   0.742  18.685 -1.6901  1.7691 -3.0109
 4744TIP3    H238428   0.967   0.869  18.766  0.2713 -0.2859  0.1046
 4745TIP3   OH238429   0.138   4.268  18.879  0.6659 -0.2048 -0.0749
 4745TIP3    H138430   0.111   4.287  18.789  1.2877 -0.8444 -0.3994
 4745TIP3    H238431   0.072   4.206  18.911  0.5274 -0.0923 -0.1434
 4746TIP3   OH238432   3.055   7.068  19.667 -0.1123 -0.3054  0.6498
 4746TIP3    H138433   3.145   7.043  19.648 -0.4195 -0.2762 -1.0380
 4746TIP3    H238434   3.058   7.163  19.678 -0.2492  0.0512 -1.8355
 4747TIP3   OH238435   6.556   4.760  19.411  0.0478  0.1177 -0.4515
 4747TIP3    H138436   6.527   4.684  19.461 -1.1127 -0.1563 -1.4859
 4747TIP3    H238437   6.482   4.821  19.416  0.8901  1.1219  0.2034
 4748TIP3   OH238438   4.982   1.807  19.282 -0.3508 -0.0222 -0.3219
 4748TIP3    H138439   5.070   1.814  19.319 -0.5625 -1.1257  0.4533
 4748TIP3    H238440   4.996   1.790  19.189  0.2812 -0.9007 -0.0763
 4749TIP3   OH238441   4.385   2.746  19.528  0.4397 -0.2554  0.4726
 4749TIP3    H138442   4.456   2.781  19.475 -0.6099  0.6252 -0.4188
 4749TIP3    H238443   4.407   2.771  19.618 -0.2104  2.8246 -0.0909
 4750TIP3   OH238444   2.715   1.752  18.001 -0.6578  0.3150  0.0079
 4750TIP3    H138445   2.726   1.668  18.046 -1.6100 -0.1458 -0.5945
 4750TIP3    H238446   2.801   1.770  17.964 -0.4385 -0.4024  0.1401
 4751TIP3   OH238447   5.244   4.950  18.369 -0.3529 -0.1946  0.0195
 4751TIP3    H138448   5.198   5.035  18.369 -1.4062 -0.6763 -2.5307
 4751TIP3    H238449   5.334   4.972  18.348 -0.2744  0.4098  0.9303
 4752TIP3   OH238450   7.165   6.320  18.257 -0.1799  0.0805  0.2971
 4752TIP3    H138451   7.086   6.371  18.241 -0.1135  0.5044  1.2540
 4752TIP3    H238452   7.197   6.351  18.341  0.4810 -0.7600  0.3706
 4753TIP3   OH238453   0.868   6.610  19.796 -0.0031  0.2968 -0.5786
 4753TIP3    H138454   0.786   6.654  19.820 -0.5965 -0.3151 -1.4099
 4753TIP3    H238455   0.842   6.519  19.780  1.1266 -0.2931  0.7481
 4754TIP3   OH238456   0.809   0.178  18.245 -0.3605  0.4669 -0.2649
 4754TIP3    H138457   0.839   0.088  18.235  1.6921  0.8253  1.7793
 4754TIP3    H238458   0.875   0.231  18.199 -0.1088  1.0464  0.7367
 4755TIP3   OH238459   3.509   2.940  19.451 -0.3175 -0.7612 -0.0121
 4755TIP3    H138460   3.538   2.931  19.361 -1.8107  1.0599 -0.7383
 4755TIP3    H238461   3.521   3.032  19.472  0.0326 -1.1547  1.6869
 4756TIP3   OH238462   2.005   3.674  19.207 -0.1717 -0.2030 -0.1552
 4756TIP3    H138463   1.973   3.595  19.249 -1.5465  0.9251  1.0169
 4756TIP3    H238464   1.978   3.745  19.265  1.5127  1.0999 -0.8836
 4757TIP3   OH238465   7.279   1.091  17.462 -0.1408 -0.4302 -0.0691
 4757TIP3    H138466   7.312   1.018  17.410 -2.8762 -1.6504 -0.2629
 4757TIP3    H238467   7.267   1.162  17.398  1.4271 -0.1365 -0.0835
 4758TIP3   OH238468   0.546   4.975  17.601  0.8529 -0.2801 -0.2154
 4758TIP3    H138469   0.531   4.991  17.508 -0.2157  0.5307  0.0744
 4758TIP3    H238470   0.586   5.056  17.633  0.6091 -0.3035  0.1585
 4759TIP3   OH238471   3.710   5.778  19.390 -0.0097  0.6245 -0.7247
 4759TIP3    H138472   3.689   5.812  19.303  0.1119 -0.9254 -1.3982
 4759TIP3    H238473   3.805   5.790  19.398 -0.1156  1.3801 -0.5105
 4760TIP3   OH238474   4.014   7.514  17.782  0.0978 -0.0818  0.4684
 4760TIP3    H138475   4.046   7.425  17.767 -1.0321 -0.7778  1.8801
 4760TIP3    H238476   4.002   7.520  17.876  0.1444  1.5881  0.4049
 4761TIP3   OH238477   7.002   5.981  19.158  0.1994 -0.0778  0.2895
 4761TIP3    H138478   7.004   6.064  19.111 -0.2044  0.8686  1.8902
 4761TIP3    H238479   7.000   5.915  19.088 -0.1700  1.2480 -1.0192
 4762TIP3   OH238480   6.063   3.074  19.904  0.1128 -0.4004 -0.3822
 4762TIP3    H138481   6.112   3.026  19.837  0.1050 -0.5283 -0.2960
 4762TIP3    H238482   6.129   3.127  19.949  0.1423 -0.4326 -0.3883
 4763TIP3   OH238483   4.153   1.617  18.294  0.6029  0.0260 -0.0409
 4763TIP3    H138484   4.202   1.699  18.306 -0.6875  1.2909 -2.6794
 4763TIP3    H238485   4.120   1.621  18.204 -2.6664 -1.6510  0.9114
 4764TIP3   OH238486   0.630   0.356  16.778  0.1319 -0.1124  0.0777
 4764TIP3    H138487   0.558   0.372  16.717 -2.2326 -0.7619  2.5058
 4764TIP3    H238488   0.590   0.309  16.850  3.2598 -1.3953  1.1335
 4765TIP3   OH238489   6.865   6.521  18.216 -0.1993  0.2741 -0.0222
 4765TIP3    H138490   6.868   6.452  18.282  1.4056 -0.5189 -0.8440
 4765TIP3    H238491   6.826   6.480  18.139  1.7355 -0.1056 -0.8635
 4766TIP3   OH238492   2.498   2.313  18.795  0.4253 -0.3471 -0.1456
 4766TIP3    H138493   2.537   2.364  18.724  0.6300 -0.7566 -0.3356
 4766TIP3    H238494   2.569   2.301  18.858 -0.2535  1.6577  1.0779
 4767TIP3   OH238495   0.479   0.249  19.512  0.3305 -0.0621 -0.5740
 4767TIP3    H138496   0.527   0.167  19.522  0.9215  0.2482 -0.8169
 4767TIP3    H238497   0.545   0.313  19.486 -0.3533  0.1892 -1.7598
 4768TIP3   OH238498   1.277   5.598  18.864  0.2427  0.2427  0.1948
 4768TIP3    H138499   1.265   5.567  18.774 -0.3992 -1.5240  0.8511
 4768TIP3    H238500   1.195   5.578  18.908  0.7825  0.4691  1.3453
 4769TIP3   OH238501   5.769   5.825  18.239  0.7602  0.2457 -0.4344
 4769TIP3    H138502   5.739   5.795  18.325 -0.2158  1.0739 -0.4669
 4769TIP3    H238503   5.722   5.769  18.176  1.9376 -0.7754 -0.4423
 4770TIP3   OH238504   7.104   1.218  19.058  0.0382 -0.1314  0.5117
 4770TIP3    H138505   7.188   1.247  19.095  0.0497  0.9975 -0.3477
 4770TIP3    H238506   7.117   1.125  19.038  1.0206 -0.0135  0.5547
 4771TIP3   OH238507   5.923   3.128  18.659  0.0836  0.3934 -0.7040
 4771TIP3    H138508   5.884   3.040  18.665  0.6658  0.1473 -0.4213
 4771TIP3    H238509   5.932   3.155  18.750  0.8036  0.3403 -0.7567
 4772TIP3   OH238510   0.866   1.916  17.628  0.0964  0.1012  0.4243
 4772TIP3    H138511   0.811   1.994  17.635 -0.5841 -0.4426  1.4417
 4772TIP3    H238512   0.805   1.843  17.621  0.6444 -0.5588  2.0187
 4773TIP3   OH238513   0.412   4.148  19.507  0.1574  0.6736 -0.2591
 4773TIP3    H138514   0.431   4.089  19.580  1.6779  1.6307  0.1728
 4773TIP3    H238515   0.431   4.097  19.429 -1.7988 -0.4724 -0.0498
 4774TIP3   OH238516   2.199   0.438  18.291 -0.2248  0.0225 -0.7940
 4774TIP3    H138517   2.287   0.439  18.254  0.0860 -0.0311 -0.0832
 4774TIP3    H238518   2.187   0.348  18.320  0.3857  0.5057  1.1399
 4775TIP3   OH238519   2.302   3.813  17.371 -0.2349  0.0050  0.3144
 4775TIP3    H138520   2.332   3.870  17.300  0.2540  0.2310  0.7002
 4775TIP3    H238521   2.211   3.839  17.386 -1.2375 -1.8115 -2.0004
 4776TIP3   OH238522   4.996   1.423  19.141  0.3936  0.0189 -0.0497
 4776TIP3    H138523   5.016   1.339  19.100 -0.1974 -0.4398  0.5884
 4776TIP3    H238524   4.998   1.486  19.068 -0.5844 -0.7724 -0.7974
 4777TIP3   OH238525   7.472   6.385  19.031  0.2978  0.4019  0.0321
 4777TIP3    H138526   7.536   6.330  19.077  0.6878 -0.4887 -1.4770
 4777TIP3    H238527   7.496   6.475  19.052  1.5846  0.0503  0.1031
 4778TIP3   OH238528   5.457   2.703  16.980 -0.0654  0.3947  0.1509
 4778TIP3    H138529   5.498   2.619  16.961 -0.6563  0.4363 -1.4624
 4778TIP3    H238530   5.525   2.753  17.025  0.3824 -0.8324  0.8819
 4779TIP3   OH238531   3.820   6.865  19.638 -0.0611 -0.1480  0.5848
 4779TIP3    H138532   3.840   6.952  19.674 -0.4579  1.2593 -2.3190
 4779TIP3    H238533   3.901   6.838  19.595 -1.0377  0.6759 -1.9406
 4780TIP3   OH238534   6.985   3.355  18.352  0.6196 -0.7217  0.6888
 4780TIP3    H138535   7.042   3.429  18.369 -0.8014  1.0577 -1.6784
 4780TIP3    H238536   7.032   3.279  18.387  2.8335  1.0560  1.7843
 4781TIP3   OH238537   2.245   0.264  19.082 -0.0019 -0.3447 -0.3491
 4781TIP3    H138538   2.233   0.342  19.137  1.6413  0.1760 -0.6782
 4781TIP3    H238539   2.321   0.219  19.121 -0.7766 -1.6664 -0.3075
 4782TIP3   OH238540   2.309   3.863  17.822  0.2231 -0.3925 -0.1371
 4782TIP3    H138541   2.321   3.920  17.898  1.4321 -2.1399  1.0571
 4782TIP3    H238542   2.251   3.912  17.764  0.2605  1.5212  1.3505
 4783TIP3   OH238543   5.945   7.301  18.416 -0.5522 -0.0593 -0.7009
 4783TIP3    H138544   6.010   7.237  18.384  1.0472  0.5362  1.1661
 4783TIP3    H238545   5.989   7.385  18.408 -0.3893  0.2116  2.0637
 4784TIP3   OH238546   1.035   1.042  18.770 -0.4167 -0.1066  0.4759
 4784TIP3    H138547   0.979   1.053  18.693 -0.6621  0.2784  0.7121
 4784TIP3    H238548   1.118   1.083  18.745 -0.9107  1.1617  0.8860
 4785TIP3   OH238549   1.258   1.406  19.265  0.7436 -0.0764 -0.4537
 4785TIP3    H138550   1.302   1.450  19.338 -0.4049 -0.3807  0.4378
 4785TIP3    H238551   1.167   1.435  19.271  0.1387 -1.8871 -0.3510
 4786TIP3   OH238552   5.853   4.465  16.863 -0.1683 -0.4079  0.3024
 4786TIP3    H138553   5.793   4.390  16.852 -0.6572  0.0710 -0.3946
 4786TIP3    H238554   5.807   4.524  16.923  0.3923 -0.8361  1.1670
 4787TIP3   OH238555   4.433   2.595  19.906  0.2068 -0.3280 -0.0893
 4787TIP3    H138556   4.347   2.584  19.945  0.6405  0.2580  1.0761
 4787TIP3    H238557   4.431   2.682  19.867  0.5288  0.0149  0.6461
 4788TIP3   OH238558   5.786   0.566  18.407  0.0427  0.0966  0.4881
 4788TIP3    H138559   5.803   0.472  18.416  1.6414  0.3124  0.0314
 4788TIP3    H238560   5.698   0.571  18.371  0.8691 -1.3725 -1.9726
 4789TIP3   OH238561   4.821   2.487  19.209  0.3211  0.5733 -0.2433
 4789TIP3    H138562   4.867   2.569  19.224  3.3733 -1.3431  2.1065
 4789TIP3    H238563   4.757   2.482  19.281 -0.6017  1.2831 -0.9882
 4790TIP3   OH238564   7.047   4.980  18.802  0.0104  0.2410 -0.5038
 4790TIP3    H138565   6.980   5.026  18.751 -1.3333  0.4990  1.3820
 4790TIP3    H238566   7.016   4.987  18.893  1.4368 -1.6270  0.1739
 4791TIP3   OH238567   6.266   1.390  17.312  0.3288 -0.8630 -0.3103
 4791TIP3    H138568   6.338   1.339  17.273 -0.4683 -1.2275 -1.3402
 4791TIP3    H238569   6.269   1.474  17.267 -0.3486 -1.1484 -0.9158
 4792TIP3   OH238570   6.806   1.328  19.150  0.3090 -0.1925  0.2506
 4792TIP3    H138571   6.892   1.348  19.189 -0.2942  1.7932  0.6576
 4792TIP3    H238572   6.752   1.300  19.224 -0.5918  2.7650  0.8282
 4793TIP3   OH238573   4.493   2.846  19.756 -0.2374 -0.2572  0.5988
 4793TIP3    H138574   4.587   2.830  19.761 -0.1602 -0.4540 -1.1112
 4793TIP3    H238575   4.483   2.938  19.780  0.8191  0.7550 -2.3968
 4794TIP3   OH238576   3.911   5.221  19.707  0.5843 -0.1465 -0.2956
 4794TIP3    H138577   3.838   5.281  19.692  1.3222  0.4644 -1.6297
 4794TIP3    H238578   3.989   5.272  19.687  1.3867 -0.8388  0.9289
 4795TIP3   OH238579   3.925   7.464  18.821  0.1164 -0.4838  0.3104
 4795TIP3    H138580   3.912   7.452  18.915 -1.3198 -0.5771  0.1282
 4795TIP3    H238581   3.954   7.555  18.812  0.0132 -0.3967  0.8300
 4796TIP3   OH238582   6.779   2.084  19.339 -0.2770 -0.1914  0.0675
 4796TIP3    H138583   6.788   2.098  19.433 -2.3271  0.5948  0.2049
 4796TIP3    H238584   6.792   1.990  19.327  0.8279 -0.1749  0.9947
 4797TIP3   OH238585   3.743   1.339  18.653  0.1426 -0.2168  0.3995
 4797TIP3    H138586   3.662   1.381  18.684  0.2223 -1.2494  2.1850
 4797TIP3    H238587   3.795   1.410  18.618 -0.7931  0.7606  0.9219
 4798TIP3   OH238588   2.023   7.533  19.380 -0.3224 -0.3378  0.6967
 4798TIP3    H138589   2.023   7.556  19.287  0.7420  0.7749  0.9422
 4798TIP3    H238590   1.990   7.612  19.424  1.0018 -0.1354  1.3842
 4799TIP3   OH238591   5.253   4.583  18.423 -0.0086 -0.0548 -0.0218
 4799TIP3    H138592   5.254   4.496  18.384  0.5505  0.1272 -0.4317
 4799TIP3    H238593   5.345   4.609  18.427 -0.2151  0.8910 -0.7913
 4800TIP3   OH238594   4.913   0.298  18.422  0.1420  0.7219 -0.3969
 4800TIP3    H138595   4.830   0.296  18.471 -0.6225 -2.8171 -1.4857
 4800TIP3    H238596   4.971   0.239  18.471  0.9566  0.7984 -1.2369
 4801TIP3   OH238597   6.412   2.814  20.140 -0.3318 -0.9162 -0.3879
 4801TIP3    H138598   6.455   2.776  20.064  0.4103 -0.9200  0.0251
 4801TIP3    H238599   6.403   2.740  20.201 -0.7089 -0.8605 -0.3709
 4802TIP3   OH238600   3.852   2.982  19.057  0.4617 -0.1493 -0.0240
 4802TIP3    H138601   3.781   3.046  19.068 -0.3320 -0.7562 -1.2668
 4802TIP3    H238602   3.916   3.026  19.002  0.2720 -0.1520 -0.2492
 4803TIP3   OH238603   0.735   7.091  16.914  0.2589  0.0134  0.6519
 4803TIP3    H138604   0.680   7.013  16.909  0.9570 -0.4780  0.5157
 4803TIP3    H238605   0.789   7.088  16.836  1.4487 -0.2664  1.4532
 4804TIP3   OH238606   1.045   0.657  17.918 -0.2852  0.2130 -0.1635
 4804TIP3    H138607   1.091   0.574  17.926  0.5155  0.6913  0.2881
 4804TIP3    H238608   1.077   0.710  17.991 -0.5706  1.0176 -0.6035
 4805TIP3   OH238609   7.305   5.161  18.902 -0.3676  0.3311 -0.1758
 4805TIP3    H138610   7.369   5.172  18.832 -0.3814 -0.7373 -0.3671
 4805TIP3    H238611   7.230   5.215  18.875  0.7995  2.4423  0.5554
 4806TIP3   OH238612   6.713   4.029  19.147  0.0404 -0.0866 -0.0148
 4806TIP3    H138613   6.743   4.084  19.219  0.1459 -0.7199  0.4350
 4806TIP3    H238614   6.792   3.989  19.112  0.0041  0.3243 -0.5744
 4807TIP3   OH238615   5.790   7.335  18.662 -0.2021  0.3928 -0.3414
 4807TIP3    H138616   5.861   7.291  18.615  0.1467 -0.2400  0.7410
 4807TIP3    H238617   5.830   7.367  18.743 -1.4884 -1.6266  1.1999
 4808TIP3   OH238618   3.208   6.389  19.344  0.3125  0.0957 -0.0684
 4808TIP3    H138619   3.180   6.321  19.405  2.0351  0.4811  1.2267
 4808TIP3    H238620   3.181   6.356  19.258 -0.2542 -1.4905  0.6680
 4809TIP3   OH238621   6.470   2.340  18.289 -0.1581 -0.1237  0.0228
 4809TIP3    H138622   6.470   2.401  18.363 -0.1029 -0.7082  0.5143
 4809TIP3    H238623   6.562   2.321  18.273 -0.1249  0.6047 -0.7130
 4810TIP3   OH238624   7.064   5.322  18.793 -0.1725  0.0768  0.5398
 4810TIP3    H138625   7.091   5.393  18.735 -1.4633  1.4522  1.5767
 4810TIP3    H238626   6.983   5.288  18.753  0.0071 -0.2938  0.4840
 4811TIP3   OH238627   0.234   6.781  17.864  0.0581  0.2349 -0.6528
 4811TIP3    H138628   0.308   6.840  17.849  1.8800 -1.6531  0.3549
 4811TIP3    H238629   0.211   6.794  17.956 -1.7142  1.6609 -1.2503
 4812TIP3   OH238630   3.935   4.024  19.241 -0.1900 -0.4085  0.0016
 4812TIP3    H138631   4.001   4.092  19.244  0.8023 -1.3305 -0.3960
 4812TIP3    H238632   3.855   4.069  19.212  0.1060  0.8118  1.0196
 4813TIP3   OH238633   5.640   4.046  18.095 -0.1707 -0.0049 -0.2099
 4813TIP3    H138634   5.633   4.128  18.142  0.8075 -0.4138  0.6767
 4813TIP3    H238635   5.724   4.051  18.050 -0.6297 -0.0500 -1.0971
 4814TIP3   OH238636   4.871   6.683  16.908  0.2715  0.5663  0.1669
 4814TIP3    H138637   4.811   6.639  16.848  0.8834  0.8321 -0.6623
 4814TIP3    H238638   4.938   6.721  16.851  0.3166  1.6906  0.9391
 4815TIP3   OH238639   1.821   6.801  18.555 -0.1265  0.0686  0.1092
 4815TIP3    H138640   1.830   6.731  18.490  0.7647  0.9478 -0.7524
 4815TIP3    H238641   1.837   6.881  18.505 -0.5913  0.8456  1.1898
 4816TIP3   OH238642   2.970   6.753  17.588  0.3217  0.5066 -0.5273
 4816TIP3    H138643   3.027   6.822  17.622  0.0665  0.8871 -0.8516
 4816TIP3    H238644   3.011   6.726  17.506  0.1481  0.6389 -0.6598
 4817TIP3   OH238645   2.350   7.522  19.060  0.1364 -0.0997  0.0933
 4817TIP3    H138646   2.289   7.593  19.040  0.8982 -0.0230 -2.2115
 4817TIP3    H238647   2.435   7.555  19.030  0.6984 -1.5835 -0.0192
 4818TIP3   OH238648   6.375   3.600  18.686  1.0648 -0.3569  0.2876
 4818TIP3    H138649   6.336   3.581  18.601  0.5228 -0.3846  0.5350
 4818TIP3    H238650   6.308   3.652  18.732  1.4803 -0.0664  0.5782
 4819TIP3   OH238651   5.966   0.612  19.732 -0.0681  0.1347 -0.8870
 4819TIP3    H138652   5.959   0.685  19.794 -0.6094  1.6796 -2.6709
 4819TIP3    H238653   6.050   0.625  19.689 -0.9459  0.7983 -2.4763
 4820TIP3   OH238654   1.691   5.826  18.795  0.6243 -0.0093 -0.4616
 4820TIP3    H138655   1.650   5.839  18.710  1.3934 -0.6767 -0.9496
 4820TIP3    H238656   1.627   5.859  18.858  0.6954  1.9914 -1.3671
 4821TIP3   OH238657   4.394   2.344  19.227 -0.5706 -0.3086 -0.4491
 4821TIP3    H138658   4.451   2.421  19.218  1.2918 -1.5993 -0.1675
 4821TIP3    H238659   4.320   2.363  19.169  0.0103  1.5292 -0.6605
 4822TIP3   OH238660   3.193   3.045  18.353  0.0461  0.0340  0.2849
 4822TIP3    H138661   3.195   3.112  18.420 -0.3403  0.7963 -0.4442
 4822TIP3    H238662   3.203   2.962  18.401  1.2393  0.6340  1.1213
 4823TIP3   OH238663   2.352   0.161  17.165 -0.1119  0.1747  0.1455
 4823TIP3    H138664   2.439   0.140  17.129 -0.0432 -0.5070  0.6902
 4823TIP3    H238665   2.310   0.076  17.176 -0.5245  0.4456  0.6933
 4824TIP3   OH238666   3.171   1.310  19.709  0.8534  0.5448  0.4822
 4824TIP3    H138667   3.259   1.339  19.734  0.6761  0.1617  1.5875
 4824TIP3    H238668   3.119   1.391  19.708  1.0793  0.6903  0.4364
 4825TIP3   OH238669   4.090   4.370  18.660  0.2915 -0.0512  0.2697
 4825TIP3    H138670   4.025   4.311  18.698 -1.6501  2.5365  1.2136
 4825TIP3    H238671   4.065   4.457  18.690  2.3383  1.4621 -1.9886
 4826TIP3   OH238672   5.078   4.796  18.229 -0.4027  0.1199  0.0719
 4826TIP3    H138673   5.139   4.830  18.294 -1.2152 -0.8355  1.3819
 4826TIP3    H238674   5.010   4.752  18.280 -2.6452  1.8030 -1.2465
 4827TIP3   OH238675   2.628   7.570  19.040 -0.5769 -0.5170  0.9040
 4827TIP3    H138676   2.657   7.490  18.995 -1.4913 -0.2549 -0.1901
 4827TIP3    H238677   2.699   7.632  19.025 -0.7742 -0.4985 -0.0338
 4828TIP3   OH238678   0.271   2.735  18.293  0.1862 -0.4139  0.4212
 4828TIP3    H138679   0.263   2.682  18.372  1.9242  0.0891  1.0001
 4828TIP3    H238680   0.204   2.802  18.302 -0.4578 -1.1049  0.8490
 4829TIP3   OH238681   0.829   1.239  17.223  1.1108 -0.1780  0.5741
 4829TIP3    H138682   0.856   1.243  17.131 -0.6529  2.0035  0.0750
 4829TIP3    H238683   0.751   1.184  17.223  0.4809  0.7100  0.5826
 4830TIP3   OH238684   6.398   5.188  18.075 -0.2757  0.1027  0.0637
 4830TIP3    H138685   6.355   5.111  18.111  1.3851 -0.6768  0.5195
 4830TIP3    H238686   6.405   5.249  18.149  1.0146 -0.5392  0.5120
 4831TIP3   OH238687   6.018   1.338  19.064 -0.5713 -0.2497 -0.5550
 4831TIP3    H138688   5.939   1.335  19.118  0.0802  1.1122  0.5397
 4831TIP3    H238689   5.995   1.395  18.991 -0.4085  0.7599  0.1558
 4832TIP3   OH238690   2.792   2.676  18.380 -0.3501 -0.8515 -0.2437
 4832TIP3    H138691   2.879   2.636  18.380 -0.6769 -1.5837 -0.2527
 4832TIP3    H238692   2.788   2.725  18.462  1.2618  1.9199 -1.6735
 4833TIP3   OH238693   6.329   1.227  18.338 -0.0612  0.4709  0.3812
 4833TIP3    H138694   6.293   1.316  18.329 -2.0455 -0.4704 -2.7870
 4833TIP3    H238695   6.332   1.194  18.248  2.5076 -2.0330  1.2550
 4834TIP3   OH238696   7.265   1.460  17.938  0.3463  0.1734 -0.1730
 4834TIP3    H138697   7.281   1.488  18.028 -0.8295  0.5225 -0.0585
 4834TIP3    H238698   7.219   1.534  17.898 -0.8681 -0.7344 -0.5014
 4835TIP3   OH238699   3.256   0.568  17.467 -0.3949  0.1012 -0.0718
 4835TIP3    H138700   3.204   0.644  17.494  2.0271  1.5657  0.7097
 4835TIP3    H238701   3.243   0.563  17.372 -1.2803  0.9318 -0.0093
 4836TIP3   OH238702   5.170   6.659  18.052 -0.2692  0.4039  0.6686
 4836TIP3    H138703   5.170   6.600  17.977  1.7195 -0.7864  1.5354
 4836TIP3    H238704   5.201   6.742  18.016  1.5797 -0.4008  0.2969
 4837TIP3   OH238705   4.370   0.298  17.669  0.5090  0.1745 -0.2898
 4837TIP3    H138706   4.389   0.205  17.685  0.2260  0.1326 -0.2010
 4837TIP3    H238707   4.289   0.298  17.617 -0.2012  0.4132  0.7907
 4838TIP3   OH238708   6.141   1.094  17.369  0.1640  0.1406  0.2028
 4838TIP3    H138709   6.138   1.072  17.462 -1.0866  0.2966  0.2150
 4838TIP3    H238710   6.232   1.118  17.353  0.4353 -0.0730  1.3412
 4839TIP3   OH238711   0.630   3.570  18.229 -0.1598 -0.4187 -0.3019
 4839TIP3    H138712   0.676   3.495  18.267 -0.4707  0.4089  1.8148
 4839TIP3    H238713   0.689   3.644  18.245 -0.0179 -0.1202 -2.0496
 4840TIP3   OH238714   1.767   4.724  18.831  0.2293  0.2860 -0.0899
 4840TIP3    H138715   1.794   4.802  18.782 -0.9286  0.1291 -1.0416
 4840TIP3    H238716   1.672   4.721  18.819  0.4271 -2.3410 -1.7784
 4841TIP3   OH238717   0.288   1.808  19.412 -0.5069 -0.4656  0.0584
 4841TIP3    H138718   0.319   1.757  19.486  0.9391  1.1276  0.6023
 4841TIP3    H238719   0.224   1.750  19.369  1.2658 -2.8594  0.4129
 4842TIP3   OH238720   6.917   0.492  17.372 -0.2759 -0.6541 -0.2871
 4842TIP3    H138721   7.000   0.465  17.412  0.3250 -0.0760 -1.1183
 4842TIP3    H238722   6.941   0.522  17.285 -1.2898  0.0990 -0.3221
 4843TIP3   OH238723   3.962   7.323  17.265 -0.6542 -0.2025 -0.0932
 4843TIP3    H138724   3.877   7.367  17.264 -1.0881 -1.0191 -0.5129
 4843TIP3    H238725   3.991   7.326  17.174 -0.4326 -0.3042 -0.0258
 4844TIP3   OH238726   4.244   1.553  17.683  0.1722  0.3234  0.4567
 4844TIP3    H138727   4.231   1.645  17.707 -2.3749 -0.8166  4.4929
 4844TIP3    H238728   4.311   1.522  17.744  2.8319 -0.1720 -2.4301
 4845TIP3   OH238729   4.201   3.673  18.277  0.2391 -0.4767 -0.2645
 4845TIP3    H138730   4.246   3.683  18.193 -1.2219 -0.0326 -1.0317
 4845TIP3    H238731   4.249   3.730  18.337 -0.0996  1.0658 -1.3939
 4846TIP3   OH238732   3.526   0.638  19.263 -0.5218  0.2639 -0.1588
 4846TIP3    H138733   3.622   0.628  19.266 -0.2996  1.2108 -2.4644
 4846TIP3    H238734   3.510   0.728  19.290 -0.5502  0.7897 -1.8499
 4847TIP3   OH238735   7.595   2.937  17.731 -0.1323 -0.3386  0.2236
 4847TIP3    H138736   7.597   2.861  17.789 -1.0149 -1.3178 -0.9355
 4847TIP3    H238737   7.591   3.013  17.789 -0.5366 -1.2484  1.4221
 4848TIP3   OH238738   6.468   7.334  19.920  0.0231 -0.0926 -0.4417
 4848TIP3    H138739   6.543   7.320  19.863  1.2079  3.6158 -0.0474
 4848TIP3    H238740   6.506   7.341  20.008 -1.0481 -0.1448  0.0431
 4849TIP3   OH238741   3.132   6.947  17.695 -0.1036 -0.0137 -0.3238
 4849TIP3    H138742   3.185   7.003  17.751  0.4971  0.4891 -1.3799
 4849TIP3    H238743   3.160   6.967  17.606 -1.3577 -0.4712 -0.8521
 4850TIP3   OH238744   2.023   2.843  18.251 -0.4617  0.4189  0.4318
 4850TIP3    H138745   1.957   2.907  18.224  0.4154  0.2316 -2.5360
 4850TIP3    H238746   1.987   2.759  18.221  0.1956  0.0551  0.6442
 4851TIP3   OH238747   5.034   2.488  18.670  0.0865 -0.0504 -0.2600
 4851TIP3    H138748   4.977   2.552  18.628  0.8794  1.3542  0.7121
 4851TIP3    H238749   4.988   2.463  18.750 -0.6244 -1.4043 -1.0572
 4852TIP3   OH238750   6.567   2.493  18.488 -0.2217  0.2064  0.0265
 4852TIP3    H138751   6.607   2.567  18.442  0.4991 -0.8800 -1.1695
 4852TIP3    H238752   6.608   2.493  18.574 -0.1375  1.1097 -0.0010
 4853TIP3   OH238753   3.994   4.634  19.225  0.1981 -0.1294 -0.1201
 4853TIP3    H138754   4.019   4.678  19.306  0.4189 -0.2302 -0.1335
 4853TIP3    H238755   3.950   4.554  19.253  0.3805 -0.2235 -0.0982
 4854TIP3   OH238756   0.485   6.377  19.585 -0.0229  0.3662 -0.2001
 4854TIP3    H138757   0.416   6.441  19.599 -0.9120  0.4528 -4.0486
 4854TIP3    H238758   0.566   6.424  19.604 -0.8317  1.1563  1.4756
 4855TIP3   OH238759   1.009   0.824  18.428  0.1101  0.1012  0.5375
 4855TIP3    H138760   1.093   0.861  18.454  0.8278 -0.1830 -1.2842
 4855TIP3    H238761   1.010   0.734  18.461  0.4544  0.1380  0.6237
 4856TIP3   OH238762   5.965   3.656  19.290  0.0663 -0.5979  0.4487
 4856TIP3    H138763   5.937   3.746  19.305 -1.6100 -0.6964 -1.6266
 4856TIP3    H238764   5.979   3.620  19.377 -0.2650  1.3493  1.3489
 4857TIP3   OH238765   7.284   6.688  17.408  0.4239  0.8469  0.3037
 4857TIP3    H138766   7.306   6.596  17.402 -0.9529  0.4959  0.2406
 4857TIP3    H238767   7.291   6.709  17.501 -2.4222 -0.2231  0.8719
 4858TIP3   OH238768   5.817   6.672  18.654 -0.2622  0.3524  0.6537
 4858TIP3    H138769   5.820   6.592  18.601  0.4966  1.3686 -0.9020
 4858TIP3    H238770   5.899   6.671  18.704 -0.4085 -0.0057  0.8879
 4859TIP3   OH238771   6.223   2.496  19.955  0.7136  0.2920  0.5899
 4859TIP3    H138772   6.143   2.443  19.958  1.0018 -0.2796 -0.9556
 4859TIP3    H238773   6.253   2.489  19.865  2.3799  0.7240  1.0774
 4860TIP3   OH238774   5.427   0.997  19.572  0.5105 -0.3884  0.1145
 4860TIP3    H138775   5.476   0.920  19.601  1.1528  0.1677  0.5420
 4860TIP3    H238776   5.358   1.008  19.638 -0.2602 -1.2167 -0.5312
 4861TIP3   OH238777   1.842   5.730  19.627  0.1070  0.4025  0.3599
 4861TIP3    H138778   1.833   5.800  19.692 -0.8206 -1.2079  2.0456
 4861TIP3    H238779   1.936   5.726  19.608  0.6352 -0.0890  2.7941
 4862TIP3   OH238780   0.236   0.764  17.811  0.0316  0.2905 -0.0738
 4862TIP3    H138781   0.285   0.756  17.729  0.2860  1.2663 -0.0391
 4862TIP3    H238782   0.249   0.680  17.855 -1.8757 -1.1022 -1.9470
 4863TIP3   OH238783   7.296   6.078  18.551  0.3441  0.2643 -0.4202
 4863TIP3    H138784   7.367   6.142  18.558 -1.3151  2.1029  0.4110
 4863TIP3    H238785   7.253   6.099  18.469  0.8015 -0.9445 -0.9957
 4864TIP3   OH238786   3.788   6.429  17.033  0.6606 -0.4728 -0.6781
 4864TIP3    H138787   3.849   6.364  17.069  2.5548  0.5657 -1.8238
 4864TIP3    H238788   3.818   6.513  17.068 -1.6351 -0.1263  0.6394
 4865TIP3   OH238789   6.865   6.293  17.372  0.5550 -0.1663 -0.2729
 4865TIP3    H138790   6.921   6.333  17.437 -0.4754  1.4749 -0.3365
 4865TIP3    H238791   6.820   6.367  17.330 -1.5664 -1.3672 -0.2717
 4866TIP3   OH238792   1.826   5.527  18.144  0.3953 -0.0682 -0.3953
 4866TIP3    H138793   1.774   5.458  18.102  0.9303 -0.5768 -0.2347
 4866TIP3    H238794   1.876   5.566  18.072  0.3314 -0.0571 -0.4340
 4867TIP3   OH238795   4.575   3.286  17.670 -0.1400  0.5192  0.3353
 4867TIP3    H138796   4.550   3.374  17.700 -1.0791  0.6916 -0.8904
 4867TIP3    H238797   4.532   3.226  17.730 -0.1347  0.8863  0.7070
 4868TIP3   OH238798   7.315   3.001  16.912  0.1430  0.1849  0.1022
 4868TIP3    H138799   7.350   3.090  16.913 -0.7914  0.6106 -1.4523
 4868TIP3    H238800   7.232   3.007  16.960  0.4474 -0.0477  0.6793
 4869TIP3   OH238801   6.043   5.797  18.191 -0.6320 -0.1253  0.0356
 4869TIP3    H138802   6.032   5.748  18.110 -0.8634  0.3313 -0.2137
 4869TIP3    H238803   5.954   5.816  18.220 -0.5564 -0.5712  0.5778
 4870TIP3   OH238804   1.739   5.488  18.507  0.3216 -0.4593  0.2180
 4870TIP3    H138805   1.660   5.469  18.558 -0.2548 -0.0048 -0.4804
 4870TIP3    H238806   1.748   5.413  18.449 -0.9318  0.4976 -1.2953
 4871TIP3   OH238807   1.137   2.053  18.003 -0.1662  0.3280 -0.2173
 4871TIP3    H138808   1.162   2.084  17.916 -0.3012  1.9875  0.3095
 4871TIP3    H238809   1.156   1.959  18.001  0.6798  0.5004 -1.7364
 4872TIP3   OH238810   6.186   2.831  19.450  0.3928 -0.0507 -0.1385
 4872TIP3    H138811   6.279   2.821  19.468  0.5536 -0.9113 -1.3770
 4872TIP3    H238812   6.182   2.894  19.378 -0.0441  0.5159  0.3598
 4873TIP3   OH238813   4.951   3.171  16.948  0.1400 -0.2654  0.0092
 4873TIP3    H138814   4.896   3.108  16.900  0.6957  0.7008 -2.0106
 4873TIP3    H238815   5.035   3.126  16.957  0.4074 -0.0241 -1.0626
 4874TIP3   OH238816   2.615   7.309  17.696  0.2610 -0.3095 -0.3547
 4874TIP3    H138817   2.644   7.400  17.704 -2.6400  0.8025 -1.1143
 4874TIP3    H238818   2.617   7.275  17.786  0.5808  0.7832  0.0654
 4875TIP3   OH238819   4.853   3.642  18.502  0.4984  0.5548 -0.5182
 4875TIP3    H138820   4.842   3.560  18.550 -0.7129  1.2274  0.3816
 4875TIP3    H238821   4.859   3.615  18.410 -1.7281 -0.4515 -0.4284
 4876TIP3   OH238822   3.341   6.724  19.742 -0.3338 -0.6174 -0.3724
 4876TIP3    H138823   3.321   6.650  19.686 -0.3508  0.0491 -1.2800
 4876TIP3    H238824   3.434   6.714  19.762 -0.0447 -0.2952 -1.4378
 4877TIP3   OH238825   0.139   7.303  19.034  0.3889  0.1758 -0.2823
 4877TIP3    H138826   0.182   7.293  19.119 -0.2256 -1.0335 -0.0872
 4877TIP3    H238827   0.140   7.397  19.017 -0.3157  0.5473  1.5161
 4878TIP3   OH238828   4.096   4.735  19.452 -0.0133  0.3566 -0.3352
 4878TIP3    H138829   4.099   4.830  19.436  0.0199  0.3751 -0.2150
 4878TIP3    H238830   4.143   4.723  19.534 -2.8070  0.6117  1.4171
 4879TIP3   OH238831   1.044   4.958  17.083  0.0856 -0.3038  0.4881
 4879TIP3    H138832   1.007   4.959  17.172 -0.6573 -0.7701  0.1927
 4879TIP3    H238833   1.127   5.005  17.092 -0.7972  1.2501  1.0725
 4880TIP3   OH238834   2.328   2.492  19.150 -0.1174 -0.8889 -0.3424
 4880TIP3    H138835   2.268   2.417  19.151  0.1238 -1.0842  0.2434
 4880TIP3    H238836   2.397   2.467  19.089 -0.4008 -0.8459 -0.6844
 4881TIP3   OH238837   3.643   0.415  17.938  0.0013 -0.2486  0.3346
 4881TIP3    H138838   3.587   0.363  17.995  0.7231  0.7284  1.9945
 4881TIP3    H238839   3.639   0.369  17.853 -1.1956 -1.6629  1.0973
 4882TIP3   OH238840   4.202   0.345  19.250  0.0382  0.6031  0.5442
 4882TIP3    H138841   4.274   0.298  19.208  0.5406  0.1286  1.8696
 4882TIP3    H238842   4.130   0.282  19.250 -0.4284  1.1052 -0.8534
 4883TIP3   OH238843   7.269   2.832  18.564 -0.0091  0.0248  0.5454
 4883TIP3    H138844   7.344   2.879  18.527  0.2618 -0.6560  0.1952
 4883TIP3    H238845   7.255   2.872  18.650 -1.9308  3.0479 -1.0114
 4884TIP3   OH238846   6.024   3.751  17.444  0.5721 -0.0739 -0.0767
 4884TIP3    H138847   6.032   3.845  17.463  0.3794 -0.0131 -0.2901
 4884TIP3    H238848   5.939   3.726  17.480  0.8557 -0.2909  0.4617
 4885TIP3   OH238849   4.319   0.745  17.711 -0.3224 -0.0535 -0.7590
 4885TIP3    H138850   4.305   0.840  17.721 -1.2203 -0.0104 -2.1131
 4885TIP3    H238851   4.404   0.738  17.667 -0.0845  0.1050 -0.3301
 4886TIP3   OH238852   6.917   6.207  17.915  0.4474 -0.7160 -0.1506
 4886TIP3    H138853   6.842   6.227  17.859  0.7385 -1.5571 -0.8594
 4886TIP3    H238854   6.880   6.198  18.003 -0.0420  0.4191 -0.2256
 4887TIP3   OH238855   1.788   2.741  19.378 -0.3542  0.3554 -0.3392
 4887TIP3    H138856   1.729   2.814  19.357 -0.0576  0.3468 -1.2454
 4887TIP3    H238857   1.734   2.681  19.429 -1.2866  0.1469 -1.5137
 4888TIP3   OH238858   5.741   0.809  19.266  0.2512  0.8722 -0.1353
 4888TIP3    H138859   5.770   0.763  19.186  0.3550  0.4225  0.1559
 4888TIP3    H238860   5.803   0.780  19.333  0.5271  1.7166 -0.0193
 4889TIP3   OH238861   5.536   0.676  18.439  0.5144  0.1854 -0.0983
 4889TIP3    H138862   5.443   0.656  18.425  0.6350 -0.1136 -0.5160
 4889TIP3    H238863   5.553   0.751  18.382  0.7118 -0.2559 -0.6343
 4890TIP3   OH238864   6.345   2.383  19.376  0.2131  0.1129 -0.0709
 4890TIP3    H138865   6.426   2.332  19.377  0.3052  0.1995 -1.3887
 4890TIP3    H238866   6.373   2.470  19.346 -0.3996  0.0653 -0.7901
 4891TIP3   OH238867   6.327   0.648  19.101 -0.0838 -0.0457  0.1258
 4891TIP3    H138868   6.303   0.705  19.028 -0.0043  0.3398  0.3992
 4891TIP3    H238869   6.329   0.560  19.063 -0.6242  0.0804 -0.2022
 4892TIP3   OH238870   2.352   5.526  19.814  0.1291  0.6617 -0.7844
 4892TIP3    H138871   2.260   5.501  19.813  0.0573  0.8734  0.0650
 4892TIP3    H238872   2.397   5.452  19.773 -0.2242 -0.2885  0.4711
 4893TIP3   OH238873   2.359   3.623  18.165  0.1054  0.0558 -0.5618
 4893TIP3    H138874   2.377   3.558  18.096 -2.2616 -1.5155  0.1690
 4893TIP3    H238875   2.336   3.570  18.242 -0.8019  1.7741  0.4119
 4894TIP3   OH238876   0.269   6.803  18.818  0.2533  0.3584 -0.3781
 4894TIP3    H138877   0.196   6.759  18.863 -0.7444  0.0552 -2.1991
 4894TIP3    H238878   0.326   6.732  18.789  2.6088  0.6503  2.9586
 4895TIP3   OH238879   1.038   4.391  18.335  0.1365  0.0362 -0.3615
 4895TIP3    H138880   1.012   4.301  18.314  2.8765 -0.9788  0.2655
 4895TIP3    H238881   1.081   4.423  18.256 -0.0460  0.5034 -0.2761
 4896TIP3   OH238882   6.967   6.197  19.015  0.3092  0.2184 -0.5995
 4896TIP3    H138883   7.030   6.245  18.962  0.3660 -0.2239 -0.9380
 4896TIP3    H238884   6.883   6.240  18.997  0.0132 -1.0184 -2.4410
 4897TIP3   OH238885   5.113   0.545  19.506  0.3563 -0.3251  0.2418
 4897TIP3    H138886   5.070   0.511  19.584 -0.2292  0.8843  0.4604
 4897TIP3    H238887   5.187   0.597  19.539 -0.0034  0.3449  0.0134
 4898TIP3   OH238888   4.321   7.441  19.745  0.0140 -0.1027 -0.3869
 4898TIP3    H138889   4.277   7.512  19.792 -0.1564 -0.7544  0.4438
 4898TIP3    H238890   4.401   7.425  19.794 -1.0060 -1.9848  0.7530
 4899TIP3   OH238891   1.756   3.071  18.581 -0.3877 -0.5651  0.1218
 4899TIP3    H138892   1.763   2.987  18.535  0.5894  0.3007 -1.3910
 4899TIP3    H238893   1.668   3.070  18.620 -1.0499 -1.5862 -1.3071
 4900TIP3   OH238894   1.274   4.902  19.410  0.5919 -0.1204  0.0879
 4900TIP3    H138895   1.358   4.857  19.410  0.7024  0.0846  0.3338
 4900TIP3    H238896   1.293   4.989  19.377  0.5231  0.0102  0.3895
 4901TIP3   OH238897   1.247   3.587  18.700 -0.6980  0.2720  0.0392
 4901TIP3    H138898   1.300   3.535  18.639  0.4559  1.4876 -0.0534
 4901TIP3    H238899   1.305   3.603  18.774 -1.3248  0.6767  0.4471
 4902TIP3   OH238900   1.048   1.023  17.526 -0.3008 -0.4021  0.2633
 4902TIP3    H138901   1.119   0.976  17.568 -0.5539  0.3399  1.5889
 4902TIP3    H238902   1.049   1.110  17.567 -0.6609  0.3101 -1.1823
 4903TIP3   OH238903   2.634   3.757  18.465  0.1327 -0.8522  0.6647
 4903TIP3    H138904   2.668   3.735  18.378  0.6340 -0.6195  0.7953
 4903TIP3    H238905   2.591   3.677  18.495 -1.6485 -0.3954 -0.5323
 4904TIP3   OH238906   3.310   3.981  18.339  0.6805  0.3683 -0.1689
 4904TIP3    H138907   3.394   3.953  18.375 -0.5677 -3.0677  0.4379
 4904TIP3    H238908   3.320   3.972  18.245  0.9268 -0.2296 -0.0874
 4905TIP3   OH238909   5.715   2.451  17.662 -0.0367  0.4932 -0.2294
 4905TIP3    H138910   5.750   2.378  17.610  0.5724  1.3269 -1.0079
 4905TIP3    H238911   5.654   2.496  17.604 -0.6222  0.4487  0.3440
 4906TIP3   OH238912   6.814   1.586  19.911 -0.3568 -0.3072 -0.1710
 4906TIP3    H138913   6.722   1.564  19.902 -0.3747  0.4639 -2.2715
 4906TIP3    H238914   6.857   1.502  19.930 -1.3390 -0.8401 -0.2688
 4907TIP3   OH238915   1.746   0.640  19.429 -1.0297  0.4581 -0.1021
 4907TIP3    H138916   1.694   0.591  19.493 -0.6461  1.8970  1.3742
 4907TIP3    H238917   1.726   0.732  19.447  1.5809  1.0404  0.1673
 4908TIP3   OH238918   2.909   4.234  17.430 -0.4138 -0.3344 -0.2873
 4908TIP3    H138919   2.944   4.151  17.399  2.6660  0.2474  1.2675
 4908TIP3    H238920   2.922   4.295  17.357 -1.4057 -0.8775 -0.9341
 4909TIP3   OH238921   3.431   0.122  17.448 -0.0163  0.7838 -0.0054
 4909TIP3    H138922   3.520   0.106  17.417  0.0313  0.3071  0.3622
 4909TIP3    H238923   3.377   0.061  17.399 -0.4381  2.4238 -1.6849
 4910TIP3   OH238924   0.163   0.598  19.482  0.4185 -0.2939 -0.1044
 4910TIP3    H138925   0.224   0.578  19.411 -0.9636  0.2325 -1.5098
 4910TIP3    H238926   0.168   0.523  19.541  2.3956 -0.2435 -0.1609
 4911TIP3   OH238927   7.138   4.233  17.807 -0.3378 -0.8290  0.0590
 4911TIP3    H138928   7.080   4.182  17.751  1.6534 -0.4849 -2.5330
 4911TIP3    H238929   7.125   4.324  17.779  0.1696 -0.5582  0.6806
 4912TIP3   OH238930   1.686   2.246  19.822 -0.0319  0.1513  0.3348
 4912TIP3    H138931   1.752   2.304  19.859 -0.2690  0.7045 -0.0967
 4912TIP3    H238932   1.626   2.229  19.894 -0.6716  1.4808  0.1488
 4913TIP3   OH238933   5.236   4.109  19.630  0.4881 -0.9543 -0.0146
 4913TIP3    H138934   5.268   4.194  19.660  0.7816 -0.8910 -0.5081
 4913TIP3    H238935   5.172   4.083  19.697 -0.4260  0.1496 -0.4404
 4914TIP3   OH238936   5.192   7.261  19.322 -0.1240 -0.0892 -0.2330
 4914TIP3    H138937   5.179   7.166  19.323 -0.2697 -0.0843 -1.2240
 4914TIP3    H238938   5.211   7.283  19.414  1.2327 -1.2594 -0.1926
 4915TIP3   OH238939   3.748   6.882  17.557  0.3383 -0.1652 -0.7505
 4915TIP3    H138940   3.768   6.790  17.543 -0.0848 -0.2222 -1.0038
 4915TIP3    H238941   3.652   6.885  17.562  0.3706  0.1977 -0.3087
 4916TIP3   OH238942   0.632   4.510  18.221  0.2129 -0.1238  0.2305
 4916TIP3    H138943   0.657   4.522  18.130  1.0108 -1.3669  0.2632
 4916TIP3    H238944   0.549   4.558  18.230 -0.8125 -1.4488 -1.6165
 4917TIP3   OH238945   2.108   3.340  18.625  0.4066 -0.5381 -0.2466
 4917TIP3    H138946   2.031   3.298  18.585 -0.1767  1.2563 -1.1154
 4917TIP3    H238947   2.181   3.282  18.603 -0.5112 -1.6557 -0.4561
 4918TIP3   OH238948   5.224   5.483  19.388 -0.2925 -0.1497  0.8722
 4918TIP3    H138949   5.146   5.531  19.363 -0.5026 -1.3243 -0.8672
 4918TIP3    H238950   5.191   5.404  19.432 -0.0660 -0.4207  0.5564
 4919TIP3   OH238951   6.434   1.199  19.958 -0.2140  0.4355  0.1674
 4919TIP3    H138952   6.510   1.143  19.945 -0.5111  0.1791 -0.5443
 4919TIP3    H238953   6.428   1.250  19.877 -0.3595  0.9801  0.5215
 4920TIP3   OH238954   4.742   5.748  19.357  0.2936 -0.0165 -0.3037
 4920TIP3    H138955   4.707   5.689  19.290 -0.1519  0.4353 -0.4821
 4920TIP3    H238956   4.785   5.690  19.420  0.8634 -0.4350 -1.0594
 4921TIP3   OH238957   4.039   5.504  19.983 -0.3170  0.1449  0.2277
 4921TIP3    H138958   4.078   5.549  20.058 -0.4107  1.8343 -0.6678
 4921TIP3    H238959   3.945   5.524  19.990 -0.3755  0.0031 -0.1398
 4922TIP3   OH238960   1.690   0.863  18.558  0.4055  0.2314  0.4764
 4922TIP3    H138961   1.770   0.834  18.514  0.3639  1.6752 -0.6501
 4922TIP3    H238962   1.697   0.828  18.647 -0.3699 -4.4087 -1.0214
 4923TIP3   OH238963   6.409   1.567  17.124  0.0203  0.0913 -0.4531
 4923TIP3    H138964   6.429   1.609  17.041  1.4719  3.1635  1.2516
 4923TIP3    H238965   6.336   1.618  17.159  0.3728 -0.2024  0.7614
 4924TIP3   OH238966   0.929   1.376  19.623  0.3742 -0.2032  0.2169
 4924TIP3    H138967   0.896   1.465  19.614 -0.1032 -0.5718 -2.7764
 4924TIP3    H238968   0.851   1.323  19.641 -0.0907 -0.4700 -2.2093
 4925TIP3   OH238969   0.250   7.335  19.767  0.3653  0.0978 -0.0065
 4925TIP3    H138970   0.318   7.279  19.730  1.4470  0.6132  1.0930
 4925TIP3    H238971   0.188   7.349  19.696  1.9160  0.3756 -1.3702
 4926TIP3   OH238972   3.981   1.346  19.715  0.1345  0.1921  0.2407
 4926TIP3    H138973   3.910   1.368  19.654 -0.1223  0.7100  0.7214
 4926TIP3    H238974   3.943   1.278  19.771 -0.7141  1.8600  1.8033
 4927TIP3   OH238975   4.460   4.315  18.050 -0.1331  0.6645 -0.2852
 4927TIP3    H138976   4.467   4.405  18.019  1.0825  0.8188  0.3861
 4927TIP3    H238977   4.545   4.296  18.090 -0.1302 -1.0206 -1.0220
 4928TIP3   OH238978   4.482   7.169  19.276  0.1176 -0.1559  0.4131
 4928TIP3    H138979   4.555   7.125  19.232  0.9689  1.5951 -0.0289
 4928TIP3    H238980   4.439   7.219  19.206 -0.6162 -0.0152  0.9527
 4929TIP3   OH238981   0.222   7.119  16.577 -0.5948 -0.0416  0.1107
 4929TIP3    H138982   0.258   7.057  16.513 -1.5393  0.7450 -1.2371
 4929TIP3    H238983   0.299   7.165  16.611 -0.0421 -0.7615 -0.1453
 4930TIP3   OH238984   4.399   0.153  18.893 -0.1770 -0.6702  0.5300
 4930TIP3    H138985   4.452   0.099  18.952  0.5722  0.4669  0.9396
 4930TIP3    H238986   4.437   0.241  18.900 -0.5448 -0.3495 -1.0959
 4931TIP3   OH238987   1.398   0.941  17.550  0.1560  0.1395 -0.1344
 4931TIP3    H138988   1.447   0.952  17.631 -1.1323  1.4070  0.5044
 4931TIP3    H238989   1.459   0.969  17.482  0.5928  0.9964  0.5819
 4932TIP3   OH238990   0.119   7.419  18.183 -0.1230 -0.2965 -0.2344
 4932TIP3    H138991   0.194   7.467  18.150 -0.7221 -0.2360 -1.5919
 4932TIP3    H238992   0.043   7.463  18.145 -0.6793 -2.4893 -1.8689
 4933TIP3   OH238993   0.767   0.536  18.039  0.2913  0.0254 -0.4658
 4933TIP3    H138994   0.809   0.537  17.954  0.6122 -2.4451 -0.4346
 4933TIP3    H238995   0.839   0.543  18.102  0.2990 -0.4375 -0.4154
 4934TIP3   OH238996   0.142   1.010  17.828 -0.2118 -0.1652 -0.9201
 4934TIP3    H138997   0.190   0.929  17.810  1.0205  0.5923 -1.1757
 4934TIP3    H238998   0.209   1.072  17.857 -1.2981  0.4292  0.4547
 4935TIP3   OH238999   7.217   2.990  18.776  0.0264 -0.3498 -0.1485
 4935TIP3    H139000   7.125   3.015  18.790  0.1999  0.9981 -1.2111
 4935TIP3    H239001   7.265   3.033  18.847 -0.0595 -0.4210 -0.0466
 4936TIP3   OH239002   1.855   4.979  18.353  0.3007  0.5820 -0.5010
 4936TIP3    H139003   1.933   4.955  18.404  0.1725  1.2270  0.0105
 4936TIP3    H239004   1.879   4.960  18.262  0.5901 -0.4442 -0.2285
 4937TIP3   OH239005   5.598   5.682  19.903  0.7245 -0.2634  0.0244
 4937TIP3    H139006   5.655   5.694  19.978  0.5049  0.7295  0.0381
 4937TIP3    H239007   5.565   5.769  19.883  1.1941 -0.4270 -1.5594
 4938TIP3   OH239008   7.111   7.013  18.959 -0.1455 -0.6086 -0.4073
 4938TIP3    H139009   7.029   7.009  19.008 -0.9786 -1.2548 -1.7959
 4938TIP3    H239010   7.178   7.024  19.026 -1.0364 -3.1837  1.0520
 4939TIP3   OH239011   6.758   3.509  18.250  0.6783  0.1309 -0.5075
 4939TIP3    H139012   6.831   3.448  18.240  0.2225 -1.0655  2.5804
 4939TIP3    H239013   6.785   3.568  18.320  0.1839  2.1891 -1.9389
 4940TIP3   OH239014   5.038   4.244  17.524 -0.0930  0.1029  0.3310
 4940TIP3    H139015   5.116   4.296  17.544  0.1893  0.3092 -1.1906
 4940TIP3    H239016   5.058   4.201  17.441 -2.0243  1.0796 -0.7214
 4941TIP3   OH239017   1.822   4.199  19.711 -0.1440 -0.6734  0.1540
 4941TIP3    H139018   1.734   4.183  19.745 -0.5645  1.1416  0.0254
 4941TIP3    H239019   1.853   4.276  19.759 -0.5458  1.7028 -3.0498
 4942TIP3   OH239020   7.638   1.406  18.627 -0.7204 -0.2924  0.3993
 4942TIP3    H139021   7.695   1.379  18.555 -0.6085  0.4193  0.2180
 4942TIP3    H239022   7.632   1.501  18.619  0.8229  0.0582  2.4362
 4943TIP3   OH239023   5.516   4.552  16.832 -0.3065  0.2920 -0.3827
 4943TIP3    H139024   5.439   4.570  16.778 -0.1958  1.6204 -0.1188
 4943TIP3    H239025   5.590   4.580  16.778 -0.1403  0.8460  0.1284
 4944TIP3   OH239026   2.729   5.091  17.194  1.0715  0.3471  0.4444
 4944TIP3    H139027   2.817   5.079  17.159  1.2757 -0.2875  1.1638
 4944TIP3    H239028   2.711   5.010  17.242  0.2140  0.5933  0.5471
 4945TIP3   OH239029   3.204   4.728  19.353  0.0260  0.9019 -0.0686
 4945TIP3    H139030   3.200   4.686  19.267  1.1234  0.1983  0.2022
 4945TIP3    H239031   3.207   4.655  19.415  0.5824  1.3858  0.4877
 4946TIP3   OH239032   7.093   6.025  17.811  0.0062 -0.4280  0.5612
 4946TIP3    H139033   7.023   6.074  17.854 -0.5788 -0.8176  0.0698
 4946TIP3    H239034   7.095   6.059  17.721 -0.6210 -1.4965  0.1203
 4947TIP3   OH239035   0.444   0.457  17.203  0.0763  0.2594  0.1600
 4947TIP3    H139036   0.518   0.400  17.225  0.2277  0.0070 -0.9664
 4947TIP3    H239037   0.379   0.399  17.164 -0.7155  0.4890  1.0746
 4948TIP3   OH239038   2.156   5.405  17.622  0.4247  0.0146 -0.8681
 4948TIP3    H139039   2.174   5.318  17.587  0.7946  0.5362 -2.0009
 4948TIP3    H239040   2.100   5.389  17.698  1.1019 -1.2584 -0.6150
 4949TIP3   OH239041   2.883   4.632  17.327 -0.1086 -0.0994 -0.0759
 4949TIP3    H139042   2.905   4.540  17.310  0.7513 -0.4052  2.2599
 4949TIP3    H239043   2.841   4.630  17.413  0.8048  1.7735  0.4541
 4950TIP3   OH239044   1.089   2.802  17.933  0.1398 -0.3264  0.1525
 4950TIP3    H139045   1.069   2.709  17.946  0.5279 -0.2682  1.2815
 4950TIP3    H239046   1.164   2.819  17.989 -2.7149  1.7082  3.8455
 4951TIP3   OH239047   1.680   6.741  19.100  0.0122  0.4418  0.5236
 4951TIP3    H139048   1.685   6.667  19.039 -1.6602  0.4341  0.3545
 4951TIP3    H239049   1.684   6.702  19.187 -2.8955 -0.1536  0.5043
 4952TIP3   OH239050   1.079   6.166  17.867  0.0858 -0.0522  0.2895
 4952TIP3    H139051   1.068   6.143  17.775  0.6766  0.4524  0.0866
 4952TIP3    H239052   1.105   6.258  17.866  1.2853 -0.3591  0.8821
 4953TIP3   OH239053   4.689   4.678  19.164  0.1704 -0.1914  0.4586
 4953TIP3    H139054   4.707   4.647  19.075 -0.5079 -1.9423  0.8900
 4953TIP3    H239055   4.774   4.677  19.207  0.3653 -0.2234  0.0793
 4954TIP3   OH239056   0.273   0.545  17.984  0.2502 -0.8390 -0.2253
 4954TIP3    H139057   0.351   0.494  18.006  0.9445 -0.1066 -0.9011
 4954TIP3    H239058   0.214   0.535  18.059  0.3865 -2.5741 -0.3211
 4955TIP3   OH239059   7.439   2.448  18.072 -0.1611  0.1897  0.1763
 4955TIP3    H139060   7.499   2.522  18.063 -0.0780  0.1592  0.4854
 4955TIP3    H239061   7.380   2.456  17.996 -0.4345  0.8340  0.4465
 4956TIP3   OH239062   6.760   6.157  19.748  0.4395 -0.9146 -0.2414
 4956TIP3    H139063   6.670   6.127  19.763 -0.5554  2.0168  0.2921
 4956TIP3    H239064   6.751   6.230  19.687  2.0877  1.1264  1.7809
 4957TIP3   OH239065   1.657   4.033  17.504  0.4165 -0.0947 -0.9016
 4957TIP3    H139066   1.749   4.055  17.491 -0.0518  1.2615 -2.1301
 4957TIP3    H239067   1.652   4.003  17.595  1.8549  0.9120 -0.4647
 4958TIP3   OH239068   2.493   3.112  17.987  0.1398 -0.0943  0.0799
 4958TIP3    H139069   2.566   3.068  18.030  0.1806  0.0506  0.1606
 4958TIP3    H239070   2.505   3.205  18.009 -0.8411 -0.2240  1.2219
 4959TIP3   OH239071   5.829   6.932  18.541 -0.3917 -0.3819  0.8548
 4959TIP3    H139072   5.816   6.840  18.565 -1.2539 -0.4370  0.2119
 4959TIP3    H239073   5.747   6.975  18.565 -0.4377 -0.0125  0.0584
 4960TIP3   OH239074   5.383   7.511  19.596  0.3890 -0.4132 -0.7808
 4960TIP3    H139075   5.297   7.551  19.598  0.8319  0.7210  2.5519
 4960TIP3    H239076   5.431   7.557  19.527 -0.7427  1.0958 -0.5875
 4961TIP3   OH239077   4.012   1.273  17.996  0.3801  0.8392 -0.3093
 4961TIP3    H139078   4.017   1.277  17.901  1.5392  1.3829 -0.2435
 4961TIP3    H239079   4.049   1.188  18.019  0.4799  0.8772 -0.3279
 4962TIP3   OH239080   4.340   6.798  17.393  0.1213 -0.1785 -0.4967
 4962TIP3    H139081   4.282   6.734  17.434 -0.8780  0.5563 -0.7133
 4962TIP3    H239082   4.401   6.745  17.342 -0.5063 -0.9757 -0.4484
 4963TIP3   OH239083   4.686   2.690  18.321 -0.1038 -0.1977  0.0181
 4963TIP3    H139084   4.594   2.708  18.342 -0.4209 -1.2173 -0.4200
 4963TIP3    H239085   4.691   2.595  18.314  0.0021 -0.0735 -4.0847
 4964TIP3   OH239086   4.897   7.604  19.102 -0.1237 -0.0644  0.1514
 4964TIP3    H139087   4.851   7.668  19.156  2.3062  1.6891  0.2781
 4964TIP3    H239088   4.877   7.519  19.143 -1.9006  0.7428  1.0851
 4965TIP3   OH239089   6.335   2.119  18.179 -0.0190  0.1403 -0.1377
 4965TIP3    H139090   6.375   2.205  18.193 -0.7201  0.5666 -0.6733
 4965TIP3    H239091   6.245   2.129  18.209 -0.6503  0.1725 -1.9272
 4966TIP3   OH239092   0.388   6.837  20.036  0.3447  0.3394 -0.6243
 4966TIP3    H139093   0.362   6.783  20.110 -0.7536  2.1779  0.4284
 4966TIP3    H239094   0.305   6.858  19.992  0.8122  0.6455 -1.3793
 4967TIP3   OH239095   3.260   5.439  18.938 -0.0619  0.4176 -0.3508
 4967TIP3    H139096   3.313   5.488  18.874  2.3640 -1.5948 -0.0410
 4967TIP3    H239097   3.299   5.351  18.939 -2.3166 -0.6540  1.3005
 4968TIP3   OH239098   0.569   5.430  19.164 -0.2081 -0.0701 -0.2410
 4968TIP3    H139099   0.633   5.371  19.124 -0.9831 -0.5877 -0.7505
 4968TIP3    H239100   0.532   5.379  19.236  0.2498  0.3871  0.3254
 4969TIP3   OH239101   1.951   4.388  18.238  0.0178 -0.3461 -0.1800
 4969TIP3    H139102   1.883   4.444  18.200 -0.0021 -0.6245 -0.5657
 4969TIP3    H239103   1.944   4.402  18.332  0.3882  0.7264 -0.3042
 4970TIP3   OH239104   6.403   7.288  18.381 -0.0176 -0.1626 -0.4579
 4970TIP3    H139105   6.491   7.278  18.417 -0.5463 -1.6128  0.5037
 4970TIP3    H239106   6.380   7.202  18.346 -1.2206  0.0576 -0.2715
 4971TIP3   OH239107   4.008   6.421  17.938 -0.4380  0.2298 -0.1265
 4971TIP3    H139108   4.021   6.494  17.997 -1.6179 -0.4786  1.0829
 4971TIP3    H239109   4.086   6.367  17.948  0.0124  0.8393 -0.3185
 4972TIP3   OH239110   6.003   0.418  18.184  0.4853  0.0400  0.7892
 4972TIP3    H139111   5.982   0.487  18.122  0.6631  0.2024  0.9086
 4972TIP3    H239112   6.012   0.339  18.130  0.1197  0.0765  0.6720
 4973TIP3   OH239113   3.066   0.156  19.448  0.7602 -0.3338 -0.7559
 4973TIP3    H139114   3.155   0.180  19.475  0.3778 -1.4526  1.7917
 4973TIP3    H239115   3.043   0.221  19.381  1.9716  2.6736  1.5112
 4974TIP3   OH239116   5.080   6.234  18.212 -0.2397  0.0345  0.5303
 4974TIP3    H139117   5.101   6.141  18.216 -0.7784 -0.1026  0.2151
 4974TIP3    H239118   5.095   6.266  18.301  0.9090 -0.1350  0.4088
 4975TIP3   OH239119   4.935   5.934  19.281  0.1064  0.3703 -0.7140
 4975TIP3    H139120   4.866   5.871  19.302  0.8540  0.2446  1.6841
 4975TIP3    H239121   4.987   5.890  19.214 -0.7378 -0.5804 -0.7837
 4976TIP3   OH239122   0.147   4.190  19.455  0.3457 -0.2210  0.1980
 4976TIP3    H139123   0.235   4.158  19.471  0.7988  0.3706 -1.0068
 4976TIP3    H239124   0.153   4.285  19.467 -0.4762 -0.3045  1.5372
 4977TIP3   OH239125   1.057   1.335  17.430 -0.2833 -0.2060 -0.0808
 4977TIP3    H139126   1.034   1.306  17.518  1.2730 -2.2742 -0.2925
 4977TIP3    H239127   0.986   1.303  17.375  0.1048 -1.3683  0.0656
 4978TIP3   OH239128   0.962   4.281  19.249 -0.0833  0.5826  0.0075
 4978TIP3    H139129   0.933   4.280  19.340  0.3026 -0.3468  0.1300
 4978TIP3    H239130   1.019   4.358  19.243 -0.1774  0.6996  0.5233
 4979TIP3   OH239131   3.849   1.695  18.192 -0.0863 -0.3625 -0.3519
 4979TIP3    H139132   3.875   1.608  18.162 -1.4606 -0.9431  0.0616
 4979TIP3    H239133   3.762   1.708  18.154 -0.1021  0.6312 -0.0088
 4980TIP3   OH239134   5.280   1.777  19.284 -0.0427 -0.4919 -0.0792
 4980TIP3    H139135   5.367   1.805  19.255 -0.4384  0.6964 -0.1959
 4980TIP3    H239136   5.242   1.735  19.207  0.4301 -1.0330 -0.0238
 4981TIP3   OH239137   5.726   6.954  18.275  0.5689 -0.1377  0.2903
 4981TIP3    H139138   5.756   6.978  18.363  1.8780  1.0238 -0.4107
 4981TIP3    H239139   5.631   6.946  18.282  0.6163  0.3484  1.7242
 4982TIP3   OH239140   6.149   2.577  18.666  0.4854 -0.0543  1.0929
 4982TIP3    H139141   6.114   2.501  18.620  0.5124 -0.3154  1.4987
 4982TIP3    H239142   6.210   2.617  18.604  1.0222 -0.7845  1.1490
 4983TIP3   OH239143   6.263   5.442  18.774 -0.0427  0.1676 -0.3418
 4983TIP3    H139144   6.347   5.402  18.798  0.4224 -0.2939 -2.5847
 4983TIP3    H239145   6.197   5.377  18.799  0.4421 -0.4758 -0.7201
 4984TIP3   OH239146   5.513   5.064  18.999 -0.8879  0.0068  0.3617
 4984TIP3    H139147   5.485   5.016  18.921 -0.5514 -0.3831  0.4770
 4984TIP3    H239148   5.433   5.076  19.050 -0.9139 -0.7723  0.5151
 4985TIP3   OH239149   5.379   7.177  17.572  0.8064  0.0239 -0.1357
 4985TIP3    H139150   5.423   7.124  17.505  1.5578  0.3468  0.0986
 4985TIP3    H239151   5.378   7.265  17.537 -1.1238 -0.2449 -0.8620
 4986TIP3   OH239152   5.761   2.178  18.298 -0.2952 -0.3887  0.2330
 4986TIP3    H139153   5.669   2.166  18.320 -0.2603  0.1744  0.7068
 4986TIP3    H239154   5.767   2.267  18.263  0.0650 -0.4301  0.1814
 4987TIP3   OH239155   1.802   2.856  19.772  0.1524  0.3934 -0.0205
 4987TIP3    H139156   1.883   2.850  19.721  0.5723  0.2788  0.6394
 4987TIP3    H239157   1.831   2.847  19.863 -0.5498  0.8410  0.2562
 4988TIP3   OH239158   2.001   4.931  17.254  0.1684 -0.1626 -0.1367
 4988TIP3    H139159   2.044   4.893  17.331 -0.2599  1.2604  0.8389
 4988TIP3    H239160   1.910   4.942  17.282  0.2683  1.4774 -0.4157
 4989TIP3   OH239161   5.757   5.608  17.675 -0.4122  0.1796  0.1114
 4989TIP3    H139162   5.842   5.622  17.716  0.7552  0.3210 -2.1619
 4989TIP3    H239163   5.739   5.689  17.627 -1.5629 -0.0607  0.0912
 4990TIP3   OH239164   7.132   4.338  19.042  0.1659 -0.0359  0.2487
 4990TIP3    H139165   7.040   4.334  19.014  0.0426  0.3557  0.5909
 4990TIP3    H239166   7.156   4.431  19.032  0.3991 -0.0623  0.5600
 4991TIP3   OH239167   6.411   1.770  18.610 -0.2410 -0.5306  0.3523
 4991TIP3    H139168   6.463   1.734  18.682 -0.7208  0.4343  1.2077
 4991TIP3    H239169   6.470   1.769  18.535  0.9019  0.2051  1.2125
 4992TIP3   OH239170   4.727   4.324  18.111 -0.7336  0.0615  0.0580
 4992TIP3    H139171   4.743   4.413  18.141  1.0138 -0.3698  0.4860
 4992TIP3    H239172   4.796   4.306  18.048 -1.0361 -1.0109  0.0059
 4993TIP3   OH239173   7.326   7.648  17.930 -0.8223 -0.3441 -0.5228
 4993TIP3    H139174   7.275   7.581  17.884 -0.8327 -0.1545 -0.7878
 4993TIP3    H239175   7.279   7.730  17.915 -3.0058 -0.7418  2.9774
 4994TIP3   OH239176   0.555   2.034  19.056 -0.7215 -0.0389 -0.0844
 4994TIP3    H139177   0.592   2.019  19.143 -0.3417 -0.4071 -0.3060
 4994TIP3    H239178   0.472   2.079  19.072 -0.7945 -0.3676  0.4838
 4995TIP3   OH239179   4.413   0.472  18.857  0.0156 -0.7611  0.6031
 4995TIP3    H139180   4.432   0.448  18.948  1.3844 -1.1087  0.2407
 4995TIP3    H239181   4.453   0.559  18.847  1.0104 -1.2756 -0.0218
 4996TIP3   OH239182   6.980   1.679  18.101 -0.1525  0.0421  0.2565
 4996TIP3    H139183   6.902   1.733  18.112  0.4033  0.8894  0.1612
 4996TIP3    H239184   6.964   1.602  18.154 -1.1793  0.0730  0.0086
 4997TIP3   OH239185   1.567   3.634  19.695 -0.2309  0.4109  0.2208
 4997TIP3    H139186   1.516   3.651  19.616 -0.6508 -2.1901 -0.1465
 4997TIP3    H239187   1.503   3.642  19.766 -0.3976  0.3691  0.0773
 4998TIP3   OH239188   6.923   7.050  19.343 -0.2635 -0.0607 -0.3737
 4998TIP3    H139189   6.997   6.990  19.330  0.2809 -0.3102  2.9744
 4998TIP3    H239190   6.849   6.993  19.361  0.0817  0.1368  2.0168
 4999TIP3   OH239191   6.824   7.545  17.181  0.3070 -0.2523  0.6604
 4999TIP3    H139192   6.895   7.484  17.162 -1.0739 -1.7321 -0.0142
 4999TIP3    H239193   6.767   7.497  17.241 -0.7618  0.4389  0.2180
 5000TIP3   OH239194   2.738   7.598  19.579  0.2263  0.1671  0.3945
 5000TIP3    H139195   2.686   7.518  19.587  0.5285 -0.2900 -1.5934
 5000TIP3    H239196   2.700   7.658  19.642 -1.7373 -0.6691  0.0781
 5001TIP3   OH239197   5.254   0.855  19.343 -0.4433  0.2964  0.3528
 5001TIP3    H139198   5.165   0.849  19.377 -1.0173  0.7134 -1.0085
 5001TIP3    H239199   5.268   0.949  19.326  0.4795  0.3117  1.1063
 5002TIP3   OH239200   2.210   1.357  19.748 -0.1486 -0.1598  0.1123
 5002TIP3    H139201   2.159   1.436  19.729 -0.3406 -0.7774 -2.4006
 5002TIP3    H239202   2.301   1.384  19.736 -0.2102 -0.2762 -0.6755
 5003TIP3   OH239203   3.458   5.449  18.406 -0.1363 -0.0705  0.4186
 5003TIP3    H139204   3.553   5.439  18.407 -0.1460 -0.3359 -0.5259
 5003TIP3    H239205   3.441   5.506  18.331 -0.9970 -3.3764 -2.1250
 5004TIP3   OH239206   6.832   7.306  17.521 -0.2655  1.0015 -0.0871
 5004TIP3    H139207   6.832   7.211  17.531  0.5857  0.8955 -0.9170
 5004TIP3    H239208   6.770   7.322  17.450  2.3557  0.6659 -2.6706
 5005TIP3   OH239209   4.033   2.117  18.703 -0.8757  0.2119  0.1830
 5005TIP3    H139210   3.957   2.175  18.696 -1.6527 -0.6831  1.0463
 5005TIP3    H239211   4.001   2.032  18.673 -0.1543 -0.1280  0.3735
 5006TIP3   OH239212   4.062   7.274  18.508  0.0905  0.3084 -0.6188
 5006TIP3    H139213   3.968   7.284  18.525  0.3719 -1.1689  2.4041
 5006TIP3    H239214   4.071   7.185  18.475  0.6541 -0.6581  1.9557
 5007TIP3   OH239215   5.743   1.200  19.751  0.2303  0.2242  0.1344
 5007TIP3    H139216   5.805   1.271  19.733 -2.2275  2.5253  0.0517
 5007TIP3    H239217   5.732   1.200  19.846  1.3795 -1.1973  0.3076
 5008TIP3   OH239218   2.341   3.063  18.924  0.1837  0.1306 -0.6411
 5008TIP3    H139219   2.267   3.093  18.871 -1.3898 -2.1367  0.1611
 5008TIP3    H239220   2.308   2.989  18.973  2.0442  1.0831  2.3432
 5009TIP3   OH239221   4.780   5.672  18.097  0.3310  0.1165 -0.1718
 5009TIP3    H139222   4.772   5.759  18.136  0.8606  0.1335 -0.0986
 5009TIP3    H239223   4.867   5.671  18.058 -0.2631  0.1880 -1.5714
 5010TIP3   OH239224   1.634   7.282  18.377 -0.4111 -0.1362 -0.0882
 5010TIP3    H139225   1.645   7.189  18.357  0.5074 -0.2933  1.1078
 5010TIP3    H239226   1.612   7.284  18.470 -0.4577  0.8551 -0.1153
 5011TIP3   OH239227   4.034   3.896  18.430 -0.0967 -0.3927  0.0876
 5011TIP3    H139228   4.046   3.957  18.357  1.3818 -2.5123 -1.5744
 5011TIP3    H239229   4.101   3.921  18.493 -2.2931  2.3745  1.5487
 5012TIP3   OH239230   3.980   5.775  19.455  0.0321  0.1485 -0.2116
 5012TIP3    H139231   4.069   5.795  19.486  0.9278 -2.2396 -0.9706
 5012TIP3    H239232   3.950   5.705  19.513 -1.1163  0.4986 -0.3655
 5013TIP3   OH239233   7.190   3.696  18.041 -0.0693  0.1810  0.3028
 5013TIP3    H139234   7.136   3.621  18.017 -0.6577  1.1178 -1.4826
 5013TIP3    H239235   7.131   3.754  18.090  0.2207 -0.2246  1.1526
 5014TIP3   OH239236   3.385   7.428  18.599  0.2274  0.3559 -0.2957
 5014TIP3    H139237   3.424   7.474  18.525 -1.3266  0.2070 -1.2533
 5014TIP3    H239238   3.448   7.439  18.671  1.5275  0.9344 -1.4875
 5015TIP3   OH239239   3.663   6.958  18.882  0.1148  0.3122  0.2275
 5015TIP3    H139240   3.751   6.968  18.845  0.1646 -2.5540 -0.6949
 5015TIP3    H239241   3.605   6.995  18.815  0.5603  1.4344  0.4506
 5016TIP3   OH239242   4.150   4.963  19.005  0.2533  0.0394  0.0232
 5016TIP3    H139243   4.240   4.955  18.975  0.0361 -0.2395 -0.5880
 5016TIP3    H239244   4.152   5.033  19.070  1.3206 -1.5400  1.7895
 5017TIP3   OH239245   2.440   5.780  18.275 -0.1119 -0.3767 -0.0413
 5017TIP3    H139246   2.494   5.766  18.197 -1.1406 -1.8380 -0.5381
 5017TIP3    H239247   2.397   5.695  18.290 -2.9793  0.9111 -0.2359
 5018TIP3   OH239248   3.770   2.031  18.485 -0.2001 -0.5614 -0.1165
 5018TIP3    H139249   3.808   1.960  18.537  0.0993  0.4834  1.1432
 5018TIP3    H239250   3.702   2.068  18.541 -0.3854  0.1176 -0.7726
 5019TIP3   OH239251   6.075   0.330  19.134  0.2379  0.2765  0.2525
 5019TIP3    H139252   6.164   0.347  19.101 -0.6296  2.0720 -1.3823
 5019TIP3    H239253   6.071   0.235  19.144  2.1182  0.0794 -0.3191
 5020TIP3   OH239254   2.106   5.249  19.630  0.5963 -0.7399 -0.2614
 5020TIP3    H139255   2.016   5.218  19.620 -0.4453  2.3243 -1.5796
 5020TIP3    H239256   2.097   5.339  19.661  3.1873 -0.1664 -0.9128
 5021TIP3   OH239257   0.280   6.566  19.578  0.7938 -0.1451  0.5681
 5021TIP3    H139258   0.311   6.651  19.546  0.2599  0.1306  0.7725
 5021TIP3    H239259   0.198   6.586  19.623 -1.8154 -1.2596 -3.1629
 5022TIP3   OH239260   5.100   2.821  17.625  0.5096  0.3132 -0.4474
 5022TIP3    H139261   5.099   2.739  17.575  0.3961 -1.2329  1.9519
 5022TIP3    H239262   5.011   2.828  17.660  0.7567  1.0259  0.0505
 5023TIP3   OH239263   5.377   1.674  16.883 -0.0199 -0.4456 -0.1643
 5023TIP3    H139264   5.418   1.731  16.818 -0.6574 -0.0075 -0.1847
 5023TIP3    H239265   5.303   1.724  16.917 -0.2705 -1.0480  0.2081
 5024TIP3   OH239266   3.848   7.679  19.839  0.2141 -0.7771  0.2939
 5024TIP3    H139267   3.838   7.740  19.912  0.7641 -2.2627  1.6856
 5024TIP3    H239268   3.907   7.724  19.778  0.2852  0.2372  1.0785
 5025TIP3   OH239269   2.843   2.232  18.730 -0.4337  0.0231  0.0738
 5025TIP3    H139270   2.785   2.297  18.692 -0.0785  0.6480  0.5868
 5025TIP3    H239271   2.796   2.201  18.808 -0.7695 -0.6185 -0.3715
 5026TIP3   OH239272   6.072   3.828  19.066  0.0060  0.3944 -0.4238
 5026TIP3    H139273   6.048   3.757  19.125  0.8995 -0.6416 -1.2621
 5026TIP3    H239274   6.164   3.810  19.043 -0.3519  0.6669 -2.2130
 5027TIP3   OH239275   2.145   0.789  19.073 -0.3560 -0.3973  0.5818
 5027TIP3    H139276   2.126   0.861  19.132 -0.0796  0.7067 -0.6271
 5027TIP3    H239277   2.062   0.771  19.029  0.0485  0.6859 -0.6873
 5028TIP3   OH239278   6.247   2.171  17.030 -0.0911  0.4281 -0.0528
 5028TIP3    H139279   6.296   2.221  16.965 -1.9770 -0.1299 -2.0299
 5028TIP3    H239280   6.201   2.237  17.081  0.0276  0.8210 -0.4502
 5029TIP3   OH239281   2.568   6.056  18.003  0.1707  0.2769  0.5455
 5029TIP3    H139282   2.516   5.975  18.001  1.2488 -0.4450  0.9511
 5029TIP3    H239283   2.550   6.098  17.918  0.9401 -1.2674 -0.4317
 5030TIP3   OH239284   1.101   0.176  18.635 -0.1084 -0.5350  0.3128
 5030TIP3    H139285   1.079   0.095  18.589  0.4348 -0.4813 -0.0519
 5030TIP3    H239286   1.043   0.242  18.595 -0.7557 -0.7948  0.8125
 5031TIP3   OH239287   0.759   2.599  19.287  0.3587  0.1579  0.1081
 5031TIP3    H139288   0.796   2.562  19.208  1.5191  0.6003  0.4201
 5031TIP3    H239289   0.821   2.667  19.313 -0.0747  0.1201  1.3094
 5032TIP3   OH239290   5.681   2.517  16.927 -0.1319  0.3908 -0.8230
 5032TIP3    H139291   5.672   2.424  16.909  0.5859  0.2446 -0.4591
 5032TIP3    H239292   5.772   2.537  16.904  0.4905  0.4421  1.4707
 5033TIP3   OH239293   5.904   6.856  19.467  0.1011  0.1694  0.0806
 5033TIP3    H139294   5.823   6.896  19.437  1.1090  1.0985 -1.5911
 5033TIP3    H239295   5.906   6.770  19.425  0.4130  0.5263 -0.6428
 5034TIP3   OH239296   0.251   3.988  19.185  0.3604  0.2570 -0.3091
 5034TIP3    H139297   0.208   4.041  19.252  1.8870  0.0049  0.9171
 5034TIP3    H239298   0.340   4.021  19.181  1.0262 -1.4495 -0.3338
 5035TIP3   OH239299   1.192   1.502  17.250 -0.2018 -1.0781  0.1365
 5035TIP3    H139300   1.112   1.494  17.198  1.7618 -1.1617 -3.1620
 5035TIP3    H239301   1.176   1.449  17.328 -4.2556  1.0155  0.9665
 5036TIP3   OH239302   2.732   3.075  18.226  0.2884 -0.1115 -0.4255
 5036TIP3    H139303   2.740   3.018  18.150 -2.3005  1.1926 -1.8286
 5036TIP3    H239304   2.683   3.023  18.290  1.0515 -0.6531 -0.2710
 5037TIP3   OH239305   7.244   0.145  18.268 -0.4858  0.2303  0.3140
 5037TIP3    H139306   7.249   0.240  18.261 -1.0624  0.4027  1.8545
 5037TIP3    H239307   7.257   0.127  18.362 -0.5358 -1.1916  0.0701
 5038TIP3   OH239308   2.009   0.948  19.635  0.1926  0.1617 -0.9653
 5038TIP3    H139309   1.915   0.927  19.640  0.1855  0.4148  0.2560
 5038TIP3    H239310   2.013   1.021  19.574 -0.5421  0.7918 -0.2979
 5039TIP3   OH239311   1.050   6.356  17.190  0.0816  0.4095 -0.0494
 5039TIP3    H139312   1.042   6.394  17.103  0.2195  1.3977  0.3663
 5039TIP3    H239313   1.025   6.425  17.250  1.4514  0.2414  0.7743
 5040TIP3   OH239314   6.471   3.258  17.991  0.2354  0.0170  0.0259
 5040TIP3    H139315   6.453   3.239  17.899 -1.7274  0.5302  0.2635
 5040TIP3    H239316   6.431   3.343  18.006  1.2114  0.2949  1.1734
 5041TIP3   OH239317   5.040   0.714  18.869  0.2500 -0.0460  0.1660
 5041TIP3    H139318   5.132   0.731  18.890 -0.0344  0.2321  1.2190
 5041TIP3    H239319   4.995   0.797  18.887 -0.0928  0.0854 -1.1530
 5042TIP3   OH239320   2.081   0.514  18.547 -0.2057 -0.5740  0.2151
 5042TIP3    H139321   2.086   0.469  18.462 -0.6291 -0.2079 -0.0116
 5042TIP3    H239322   2.155   0.575  18.546  0.7863 -1.7252  0.8141
 5043TIP3   OH239323   5.804   3.561  17.505  0.0972 -0.3384  0.4215
 5043TIP3    H139324   5.842   3.545  17.418 -1.5637  1.7908 -0.7985
 5043TIP3    H239325   5.736   3.494  17.514 -1.4061  0.9056 -1.0805
 5044TIP3   OH239326   4.189   1.076  18.788 -0.0922  0.1711 -0.2294
 5044TIP3    H139327   4.121   1.009  18.782  0.2812 -0.2857  0.4249
 5044TIP3    H239328   4.197   1.110  18.699  1.4825 -2.4442 -1.2273
 5045TIP3   OH239329   3.079   4.366  18.880 -0.5721  0.4653  0.5759
 5045TIP3    H139330   3.167   4.363  18.918 -0.4940  0.0728  0.3635
 5045TIP3    H239331   3.076   4.451  18.835 -0.0085  0.1451 -0.1034
 5046TIP3   OH239332   2.195   4.827  17.923  0.1366 -0.1404  0.6176
 5046TIP3    H139333   2.187   4.869  18.009  1.4836  1.4341  0.0249
 5046TIP3    H239334   2.227   4.739  17.943  0.0958  0.0775  1.7432
 5047TIP3   OH239335   4.845   1.585  18.385 -0.1143  0.0960 -0.2691
 5047TIP3    H139336   4.784   1.658  18.378 -1.3522 -0.7785  1.0141
 5047TIP3    H239337   4.871   1.584  18.477 -2.0346 -2.5033  0.3635
 5048TIP3   OH239338   1.627   2.411  19.402  0.1441 -0.3025 -0.2432
 5048TIP3    H139339   1.670   2.327  19.420 -0.6438 -0.3513  1.7693
 5048TIP3    H239340   1.553   2.388  19.346  0.6802 -0.7422 -0.7894
 5049TIP3   OH239341   5.322   3.007  18.386  0.5601 -0.2063  0.5222
 5049TIP3    H139342   5.309   3.095  18.351  1.4256 -0.5938 -0.8379
 5049TIP3    H239343   5.416   2.993  18.382  0.3536 -1.5305 -0.1563
 5050TIP3   OH239344   1.797   4.167  18.199  0.4595 -0.2276  0.1026
 5050TIP3    H139345   1.728   4.231  18.218  1.9240  1.1767  0.9993
 5050TIP3    H239346   1.879   4.215  18.216  1.6375 -2.7234  2.1739
 5051TIP3   OH239347   2.025   4.813  19.264 -0.1919  0.3299 -0.2616
 5051TIP3    H139348   2.114   4.843  19.243  0.2212  0.7022  1.8306
 5051TIP3    H239349   1.968   4.863  19.205  0.8249  1.8156 -0.0120
 5052TIP3   OH239350   3.835   5.365  18.810 -0.4004 -0.1225  0.2711
 5052TIP3    H139351   3.745   5.345  18.783  0.0857 -0.5980 -1.0272
 5052TIP3    H239352   3.867   5.284  18.850 -0.5060  0.0143  0.6371
 5053TIP3   OH239353   5.458   6.428  19.736  0.4262  0.0495  0.4935
 5053TIP3    H139354   5.439   6.505  19.682  2.7636 -0.7821 -1.7103
 5053TIP3    H239355   5.472   6.357  19.673  1.6902 -1.3776  2.2607
 5054TIP3   OH239356   1.384   5.036  19.741  1.1432 -0.3744 -0.0342
 5054TIP3    H139357   1.329   4.961  19.765  1.5507 -0.3043  1.2140
 5054TIP3    H239358   1.334   5.112  19.772  1.7240 -0.2800  0.6883
 5055TIP3   OH239359   1.169   5.885  19.027  0.1493  0.1701 -0.7335
 5055TIP3    H139360   1.186   5.791  19.023 -0.5662  0.0453 -1.1132
 5055TIP3    H239361   1.229   5.919  19.093  0.4102 -0.5541 -0.6005
 5056TIP3   OH239362   3.540   5.576  17.630  0.2243 -0.2279  0.3063
 5056TIP3    H139363   3.527   5.637  17.557  0.0384 -0.8412 -0.1881
 5056TIP3    H239364   3.474   5.508  17.616  1.0730 -1.0678  0.2608
 5057TIP3   OH239365   7.456   6.344  17.461 -0.0865  0.0821  0.2129
 5057TIP3    H139366   7.480   6.366  17.551  0.6523 -1.2219  0.3580
 5057TIP3    H239367   7.535   6.305  17.423 -1.3363 -2.6145  0.1343
 5058TIP3   OH239368   1.697   1.259  17.601  1.1518  0.2467 -0.3219
 5058TIP3    H139369   1.714   1.165  17.607 -0.0659  0.0779  1.1713
 5058TIP3    H239370   1.707   1.291  17.690 -3.3166  0.5723  0.2897
 5059TIP3   OH239371   0.381   3.722  19.250 -0.2309  0.3868 -0.1991
 5059TIP3    H139372   0.350   3.805  19.214 -2.6304  0.2593  1.3574
 5059TIP3    H239373   0.462   3.745  19.296 -0.5508  1.7593 -0.2586
 5060TIP3   OH239374   2.820   4.379  18.630 -0.4011 -0.0285 -0.0789
 5060TIP3    H139375   2.907   4.383  18.590 -0.6565  1.0116 -0.5592
 5060TIP3    H239376   2.760   4.401  18.559 -1.1122 -1.2792  0.1146
 5061TIP3   OH239377   0.625   3.291  17.236  0.0607  0.0655 -0.5509
 5061TIP3    H139378   0.532   3.289  17.214 -0.1642 -2.3133  0.3618
 5061TIP3    H239379   0.661   3.361  17.181 -2.4238  1.8115 -0.1063
 5062TIP3   OH239380   2.054   0.515  17.862 -0.4747 -0.3512  0.1903
 5062TIP3    H139381   2.149   0.508  17.871 -0.4387 -0.2693 -0.1304
 5062TIP3    H239382   2.038   0.607  17.842 -0.4016 -0.8430 -2.4325
 5063TIP3   OH239383   4.560   2.117  17.614 -0.5525  0.5864 -0.6228
 5063TIP3    H139384   4.560   2.108  17.709  2.0089  0.8405 -0.5362
 5063TIP3    H239385   4.467   2.115  17.589 -1.2313 -0.3297  1.7705
 5064TIP3   OH239386   4.954   0.453  16.986 -0.5111 -0.3857  0.1045
 5064TIP3    H139387   5.006   0.421  17.060 -1.0195 -0.6227  0.3698
 5064TIP3    H239388   4.974   0.392  16.915  0.0487 -0.1034  0.0193
 5065TIP3   OH239389   5.533   2.483  17.460 -0.6950 -0.1541  0.0465
 5065TIP3    H139390   5.558   2.549  17.395 -1.0916 -1.0180 -1.0239
 5065TIP3    H239391   5.545   2.399  17.415  3.6589 -1.2239  2.5669
 5066TIP3   OH239392   4.259   6.341  17.997  0.2757  0.4725  0.4276
 5066TIP3    H139393   4.271   6.350  18.091  0.5249 -0.2260  0.4653
 5066TIP3    H239394   4.245   6.248  17.982  0.6886  0.5075 -0.2706
 5067TIP3   OH239395   2.526   5.713  16.843  0.7130  0.8052 -0.5254
 5067TIP3    H139396   2.601   5.697  16.899  0.9605  0.2231 -1.0031
 5067TIP3    H239397   2.462   5.647  16.869  0.4674  1.1368 -0.2884
 5068TIP3   OH239398   0.914   0.218  19.375 -0.1936  0.2078 -0.2577
 5068TIP3    H139399   0.892   0.210  19.468  4.6604 -1.2724  1.0524
 5068TIP3    H239400   0.907   0.128  19.341 -1.9199  0.7365 -1.4145
 5069TIP3   OH239401   5.507   5.944  19.834 -0.1531  0.0938 -0.0762
 5069TIP3    H139402   5.462   5.959  19.751 -0.6032  0.7751  0.2892
 5069TIP3    H239403   5.457   5.993  19.899  0.7836  0.4158  0.4338
 5070TIP3   OH239404   2.153   2.928  18.014  0.0878 -0.1247 -0.3164
 5070TIP3    H139405   2.082   2.879  17.973 -0.7804 -0.3734  1.4294
 5070TIP3    H239406   2.133   2.928  18.107  1.3773  1.4566  0.0131
 5071TIP3   OH239407   2.443   2.931  18.663  0.0156  0.5313  0.6480
 5071TIP3    H139408   2.431   3.009  18.718 -0.4121 -0.5752  2.2198
 5071TIP3    H239409   2.355   2.896  18.652  0.3418 -0.5277  1.2434
 5072TIP3   OH239410   6.945   0.695  17.900  0.4237 -0.8032  0.3380
 5072TIP3    H139411   6.945   0.750  17.978  5.0401  1.2553 -0.8012
 5072TIP3    H239412   6.885   0.740  17.839  1.9173  1.5350  0.4537
 5073TIP3   OH239413   6.142   2.252  19.238  0.0382 -0.2707 -0.2340
 5073TIP3    H139414   6.208   2.269  19.306 -0.2344  0.5218 -0.1495
 5073TIP3    H239415   6.182   2.187  19.181  0.6011 -0.3443  0.2345
 5074TIP3   OH239416   7.190   6.327  18.857 -0.1075 -0.1516  0.4726
 5074TIP3    H139417   7.207   6.254  18.916  0.8042  0.1446  0.5923
 5074TIP3    H239418   7.277   6.363  18.837 -0.4677  0.2695 -0.3842
 5075TIP3   OH239419   0.149   2.389  19.268 -0.0012  0.1321 -0.1001
 5075TIP3    H139420   0.205   2.392  19.190  0.0806  0.1730 -0.0405
 5075TIP3    H239421   0.194   2.328  19.327  0.7585  1.2666  0.5347
 5076TIP3   OH239422   1.398   6.005  19.785  0.0725 -0.5140  0.2449
 5076TIP3    H139423   1.412   6.097  19.809 -1.0324  0.0835 -1.2085
 5076TIP3    H239424   1.478   5.980  19.738  0.2399 -0.1753  0.3445
 5077TIP3   OH239425   6.329   1.078  19.264 -0.5378 -0.0504  0.6780
 5077TIP3    H139426   6.420   1.057  19.283  0.2721  2.7582  0.3191
 5077TIP3    H239427   6.290   1.097  19.350 -0.2654  0.4976  0.6879
 5078TIP3   OH239428   2.987   5.772  18.968 -0.0718 -0.1565  0.3470
 5078TIP3    H139429   2.964   5.695  18.915 -1.6647 -0.1212  0.9255
 5078TIP3    H239430   2.938   5.844  18.927 -0.8172 -0.0082  1.4446
 5079TIP3   OH239431   1.683   0.522  19.190 -0.2503  0.3867 -0.4582
 5079TIP3    H139432   1.691   0.441  19.242  3.0990  1.4971  0.9827
 5079TIP3    H239433   1.711   0.591  19.249  0.3852  2.1854 -2.7392
 5080TIP3   OH239434   4.658   1.187  19.517  0.8385  0.0522 -0.0594
 5080TIP3    H139435   4.605   1.136  19.456  0.1564  0.8520 -0.1528
 5080TIP3    H239436   4.730   1.221  19.464  0.5430  0.2996 -0.3062
 5081TIP3   OH239437   3.828   5.207  17.948  0.1341 -0.1211  0.1137
 5081TIP3    H139438   3.845   5.113  17.942 -1.3252 -0.4543  0.8272
 5081TIP3    H239439   3.808   5.222  18.040  0.6877  0.9685  0.0690
 5082TIP3   OH239440   4.646   0.649  18.948 -0.1490 -0.0232 -0.1159
 5082TIP3    H139441   4.677   0.664  18.859  1.0972 -1.0302  0.1215
 5082TIP3    H239442   4.725   0.650  19.002 -0.6113 -1.6296  0.6533
 5083TIP3   OH239443   3.760   3.065  18.690  0.6491  0.3384  0.3602
 5083TIP3    H139444   3.837   3.010  18.675  0.5057  0.3415 -0.4138
 5083TIP3    H239445   3.712   3.021  18.760  1.6306  0.6333  1.2267
 5084TIP3   OH239446   7.633   2.120  19.996  0.0225  0.1580  0.2611
 5084TIP3    H139447   7.650   2.027  20.004 -0.8651  0.0344  0.8295
 5084TIP3    H239448   7.549   2.134  20.041 -1.0859  0.8215 -1.8718
 5085TIP3   OH239449   1.463   1.519  19.779  0.0797 -0.0034  0.4507
 5085TIP3    H139450   1.462   1.427  19.805  0.8038 -1.6566 -4.3153
 5085TIP3    H239451   1.375   1.535  19.744  0.2156  0.9052  0.5009
 5086TIP3   OH239452   5.550   1.783  19.215  0.0433  0.1130  0.2261
 5086TIP3    H139453   5.556   1.755  19.306  0.2725  0.1462  0.2225
 5086TIP3    H239454   5.622   1.737  19.171 -0.7463 -0.7701 -0.1647
 5087TIP3   OH239455   7.601   1.818  18.834 -0.5865  0.6155  0.3786
 5087TIP3    H139456   7.582   1.878  18.907  0.1552  1.3964 -0.0579
 5087TIP3    H239457   7.592   1.731  18.873  1.5816  0.9910  1.9396
 5088TIP3   OH239458   7.369   0.822  19.138 -0.4139 -0.4456 -0.0240
 5088TIP3    H139459   7.383   0.917  19.129  0.1425 -0.5815 -0.6282
 5088TIP3    H239460   7.452   0.788  19.170 -0.9421 -0.6010  1.2527
 5089TIP3   OH239461   1.140   5.382  19.244 -0.1083  0.4189  0.2974
 5089TIP3    H139462   1.143   5.424  19.330 -0.9161  0.3695  0.3577
 5089TIP3    H239463   1.216   5.417  19.197  1.6190 -1.1828  1.7482
 5090TIP3   OH239464   4.153   5.088  17.741 -0.0753 -0.3089  0.5208
 5090TIP3    H139465   4.182   5.086  17.649 -2.6415 -0.5285 -0.3548
 5090TIP3    H239466   4.194   5.166  17.777 -0.0365  0.5163 -1.1976
 5091TIP3   OH239467   0.746   4.428  19.038  0.2460  0.0116 -0.1781
 5091TIP3    H139468   0.768   4.340  19.009 -0.3383 -0.4950  0.8546
 5091TIP3    H239469   0.826   4.479  19.024  1.1784 -1.1114  0.8862
 5092TIP3   OH239470   1.528   4.326  17.932 -0.0705 -0.5398 -0.3213
 5092TIP3    H139471   1.437   4.321  17.960 -0.5536  0.8374 -1.4957
 5092TIP3    H239472   1.527   4.297  17.841  0.3772  0.8759 -0.8082
 5093TIP3   OH239473   6.925   2.548  18.803 -0.5608 -0.1867 -0.3953
 5093TIP3    H139474   6.899   2.584  18.718 -0.9074 -0.0114 -0.2163
 5093TIP3    H239475   7.013   2.583  18.818 -1.6598  2.2817  0.7260
 5094TIP3   OH239476   3.906   3.718  17.956  0.5430  0.4316  0.2295
 5094TIP3    H139477   3.843   3.647  17.941  1.9677 -0.7494 -0.3327
 5094TIP3    H239478   3.914   3.723  18.051 -0.3769  0.5961  0.3102
 5095TIP3   OH239479   7.651   7.010  17.083 -0.7515 -0.3399  0.1747
 5095TIP3    H139480   7.569   7.017  17.034 -0.6503 -0.3033  0.0101
 5095TIP3    H239481   7.678   6.919  17.071 -1.8862 -0.9852  2.0323
 5096TIP3   OH239482   6.705   5.891  18.643  0.1423  0.2614  0.1055
 5096TIP3    H139483   6.709   5.798  18.666 -0.7954  0.7166  2.4005
 5096TIP3    H239484   6.795   5.914  18.622  0.6890 -0.8104  1.1427
 5097TIP3   OH239485   7.502   6.050  17.140 -0.6833  0.1079  0.5220
 5097TIP3    H139486   7.512   6.140  17.110 -1.9350 -0.8255 -3.4225
 5097TIP3    H239487   7.591   6.016  17.144 -0.3209  0.3795 -2.6105
 5098TIP3   OH239488   7.445   2.883  17.319  0.5628 -0.3150  0.3058
 5098TIP3    H139489   7.388   2.857  17.246 -0.1998 -0.6889  1.0226
 5098TIP3    H239490   7.459   2.977  17.305  1.4211 -0.6007 -0.9819
 5099TIP3   OH239491   3.476   2.116  20.083 -0.1209 -0.1447  0.3181
 5099TIP3    H139492   3.516   2.195  20.119  0.2406 -0.1026 -0.1690
 5099TIP3    H239493   3.549   2.058  20.063 -0.3470 -0.3698  0.1206
 5100TIP3   OH239494   4.688   6.121  18.585  0.2732  0.0500 -0.4716
 5100TIP3    H139495   4.733   6.161  18.511  1.2126 -0.2898 -0.0952
 5100TIP3    H239496   4.656   6.037  18.551  0.9010 -0.2086 -0.4460
 5101TIP3   OH239497   6.292   3.114  20.057 -0.0154 -0.5879  0.1936
 5101TIP3    H139498   6.351   3.188  20.043 -1.6245  0.6788 -0.3147
 5101TIP3    H239499   6.347   3.037  20.050  1.4989  0.5123 -0.6504
 5102TIP3   OH239500   1.491   2.518  18.018 -0.3541 -0.3017 -0.4396
 5102TIP3    H139501   1.426   2.521  18.088  0.7139 -0.4078  0.5732
 5102TIP3    H239502   1.574   2.502  18.062  0.3547 -0.3065 -1.7256
 5103TIP3   OH239503   1.908   6.893  17.808 -0.4701 -0.2415 -0.3734
 5103TIP3    H139504   1.965   6.968  17.827 -1.4940  0.1811  1.1836
 5103TIP3    H239505   1.896   6.896  17.713 -0.4566  1.5585 -0.3527
 5104TIP3   OH239506   7.096   5.791  17.351  0.5102 -0.1322  0.0217
 5104TIP3    H139507   7.101   5.886  17.365  0.3254 -0.1333  0.0982
 5104TIP3    H239508   7.006   5.768  17.375  0.6422 -0.3723  0.3014
 5105TIP3   OH239509   7.189   6.462  18.465  0.1164  0.5566 -0.0553
 5105TIP3    H139510   7.145   6.451  18.550  2.4284 -1.7900  0.9740
 5105TIP3    H239511   7.207   6.556  18.461 -0.7669  0.8568  1.6657
 5106TIP3   OH239512   3.287   2.453  19.879 -0.2226 -0.3514 -0.7399
 5106TIP3    H139513   3.329   2.514  19.940  0.2523 -1.3170 -0.0726
 5106TIP3    H239514   3.206   2.496  19.854 -0.4647  0.0453  0.6323
 5107TIP3   OH239515   2.743   6.039  18.990 -0.1459 -0.4359  0.7549
 5107TIP3    H139516   2.723   6.044  18.896 -0.1728  1.0923  0.8309
 5107TIP3    H239517   2.658   6.034  19.033 -0.1631 -0.1047  0.7563
 5108TIP3   OH239518   6.967   0.057  18.060 -0.7291  0.3298  0.2810
 5108TIP3    H139519   7.058   0.080  18.041 -0.5236 -0.1532  0.6793
 5108TIP3    H239520   6.936   0.012  17.981 -0.5166  0.1829  0.2819
 5109TIP3   OH239521   6.977   0.090  19.176 -0.1637 -0.8513 -0.0249
 5109TIP3    H139522   7.018   0.040  19.105 -2.2339 -0.8640 -1.3102
 5109TIP3    H239523   6.951   0.023  19.239 -0.5900 -1.1347 -0.4909
 5110TIP3   OH239524   4.886   5.642  18.647  0.1595 -0.5496  0.3283
 5110TIP3    H139525   4.916   5.620  18.558  0.3533 -2.5110  0.8207
 5110TIP3    H239526   4.792   5.652  18.638  0.4294  1.8806 -0.5334
 5111TIP3   OH239527   4.029   4.062  18.219 -0.4055 -0.2980  0.2198
 5111TIP3    H139528   4.094   4.059  18.149 -1.4706 -1.3775 -0.7655
 5111TIP3    H239529   3.997   4.152  18.218  0.2837 -0.0471 -0.0141
 5112TIP3   OH239530   0.960   0.388  19.161 -0.0815 -0.0759  0.2917
 5112TIP3    H139531   0.944   0.308  19.211 -3.9582 -0.5349 -1.3544
 5112TIP3    H239532   0.974   0.358  19.071  0.7261  1.0239  0.0222
 5113TIP3   OH239533   5.630   4.813  17.893  0.4468  0.1723 -0.2846
 5113TIP3    H139534   5.534   4.810  17.889  0.3734  2.2201 -2.0136
 5113TIP3    H239535   5.659   4.772  17.812  1.1547 -1.6135  0.8047
 5114TIP3   OH239536   0.463   5.303  18.550  0.1595 -0.1191  0.2653
 5114TIP3    H139537   0.530   5.339  18.609 -0.8606  1.5653  0.4788
 5114TIP3    H239538   0.482   5.343  18.465 -0.2005 -0.1097  0.1867
 5115TIP3   OH239539   2.417   5.011  18.941  0.3567  0.0782 -0.1867
 5115TIP3    H139540   2.407   5.073  19.013 -1.1400 -1.5486  1.0822
 5115TIP3    H239541   2.462   4.936  18.980  0.7333 -0.2978 -1.2959
 5116TIP3   OH239542   3.069   4.012  19.478  0.6815 -0.2949 -0.2988
 5116TIP3    H139543   3.028   3.933  19.443 -1.0719  0.3135  0.2415
 5116TIP3    H239544   3.122   3.981  19.551 -0.9411 -0.9113  0.6773
 5117TIP3   OH239545   6.862   4.944  18.047  0.0645  0.0251 -0.1500
 5117TIP3    H139546   6.769   4.924  18.060 -0.1761  0.2884 -1.3931
 5117TIP3    H239547   6.891   4.880  17.982  0.3486  0.9519 -0.9571
 5118TIP3   OH239548   1.481   2.733  19.479  0.5465  0.0047 -0.5464
 5118TIP3    H139549   1.490   2.670  19.550 -0.1009  1.3890  0.8327
 5118TIP3    H239550   1.520   2.814  19.514  1.1334  0.4559 -2.1563
 5119TIP3   OH239551   2.027   0.320  19.429  0.0536 -0.1589  0.0596
 5119TIP3    H139552   1.934   0.331  19.406 -0.1001 -0.3278  0.5880
 5119TIP3    H239553   2.061   0.409  19.433  0.2220 -0.1362 -1.3500
 5120TIP3   OH239554   6.168   2.761  19.795  0.6399  0.2272 -0.4836
 5120TIP3    H139555   6.166   2.720  19.882  0.4935  1.0110 -0.1146
 5120TIP3    H239556   6.098   2.717  19.747  1.0825 -0.6077 -0.3967
 5121TIP3   OH239557   1.450   6.846  19.415  0.0086 -0.0317  0.2059
 5121TIP3    H139558   1.368   6.866  19.462 -1.7350 -0.9688 -2.2128
 5121TIP3    H239559   1.465   6.923  19.360 -0.2721 -0.5571 -0.6332
 5122TIP3   OH239560   5.529   4.428  18.583  0.5970  0.1215  0.2344
 5122TIP3    H139561   5.484   4.346  18.562 -0.6769  0.7880  0.2356
 5122TIP3    H239562   5.567   4.456  18.500 -0.4524  0.3847 -0.1823
 5123TIP3   OH239563   7.339   7.067  17.706 -0.1937 -0.5354  0.5306
 5123TIP3    H139564   7.389   7.014  17.644  0.4931 -0.7274  1.2420
 5123TIP3    H239565   7.250   7.068  17.670  0.2030 -0.6126 -0.4737
 5124TIP3   OH239566   2.147   1.500  18.400 -0.1485  0.2267 -0.0178
 5124TIP3    H139567   2.119   1.425  18.452  3.2696 -0.1505  1.5226
 5124TIP3    H239568   2.175   1.462  18.317 -0.6357  0.1532 -0.1564
 5125TIP3   OH239569   2.205   3.891  19.454 -0.1683  0.0880 -0.2792
 5125TIP3    H139570   2.153   3.861  19.379 -0.1506 -0.6390 -0.0074
 5125TIP3    H239571   2.144   3.939  19.509 -0.1583  0.7304 -0.8067
 5126TIP3   OH239572   2.362   1.968  19.411 -0.6138  0.1600 -0.0886
 5126TIP3    H139573   2.366   2.006  19.324 -0.8863 -1.8137 -1.0161
 5126TIP3    H239574   2.294   2.019  19.457  1.1732  2.7883 -0.1402
 5127TIP3   OH239575   0.105   6.537  18.729  0.4073  0.4306 -0.6567
 5127TIP3    H139576   0.145   6.454  18.706 -1.0884 -0.6177  0.2817
 5127TIP3    H239577   0.134   6.554  18.819  1.4472  1.4210 -1.1605
 5128TIP3   OH239578   2.217   0.816  19.490 -0.1056 -0.3775 -0.3447
 5128TIP3    H139579   2.181   0.885  19.545  1.5727  1.5640 -1.5471
 5128TIP3    H239580   2.308   0.807  19.520  0.4510 -0.2011 -1.8964
 5129TIP3   OH239581   5.089   7.499  19.415 -0.4700  0.1421  0.0586
 5129TIP3    H139582   5.103   7.446  19.336 -1.4225 -0.5331  0.3250
 5129TIP3    H239583   5.080   7.589  19.382  0.8891  0.1181 -0.4223
 5130TIP3   OH239584   4.294   1.994  19.627  0.1859 -0.0626 -0.4395
 5130TIP3    H139585   4.351   2.060  19.666 -0.3022 -0.2809  0.6640
 5130TIP3    H239586   4.341   1.965  19.548  0.8907  0.8323 -0.3600
 5131TIP3   OH239587   4.896   6.335  18.991 -0.2749 -0.1519  0.2860
 5131TIP3    H139588   4.937   6.285  18.920 -0.6713 -0.0098 -0.0482
 5131TIP3    H239589   4.848   6.404  18.946 -0.2631  0.1368  0.7132
 5132TIP3   OH239590   3.022   2.764  18.110 -0.3411  0.3161 -0.4996
 5132TIP3    H139591   2.938   2.721  18.095 -0.6570  0.6548  0.2534
 5132TIP3    H239592   3.003   2.857  18.103 -0.1123  0.4099  0.0386
 5133TIP3   OH239593   3.396   5.763  17.486 -0.0282 -0.0608  0.4494
 5133TIP3    H139594   3.350   5.741  17.405  0.8992  0.7299 -0.3362
 5133TIP3    H239595   3.486   5.782  17.457  0.2105  0.6645  1.6020
 5134TIP3   OH239596   5.197   0.393  17.983 -0.3078  0.5842 -0.3313
 5134TIP3    H139597   5.111   0.354  17.966 -0.4646  1.0908 -0.7382
 5134TIP3    H239598   5.216   0.372  18.074 -0.2434 -0.7142 -0.6118
 5135TIP3   OH239599   5.248   6.322  19.443 -0.5124  0.0227 -0.2646
 5135TIP3    H139600   5.270   6.363  19.359 -0.1892 -0.2853 -0.3335
 5135TIP3    H239601   5.191   6.249  19.420  1.3803 -1.4909 -0.4687
 5136TIP3   OH239602   0.020   5.240  18.112 -0.2741  0.2727  0.1023
 5136TIP3    H139603   0.083   5.259  18.182  0.9337  0.2828 -0.9665
 5136TIP3    H239604  -0.024   5.161  18.141  2.0445 -1.2479 -0.2827
 5137TIP3   OH239605   4.816   4.598  17.346  0.6883  0.0530 -0.2086
 5137TIP3    H139606   4.764   4.567  17.272  1.0979 -0.0560 -0.4527
 5137TIP3    H239607   4.755   4.597  17.420  0.2668  0.2014 -0.5499
 5138TIP3   OH239608   3.116   7.336  19.649 -0.1980 -0.3528  0.2322
 5138TIP3    H139609   3.081   7.382  19.572  1.2557 -0.0304 -0.2686
 5138TIP3    H239610   3.185   7.393  19.681 -0.0783 -0.9991  1.1563
 5139TIP3   OH239611   4.105   2.100  17.792  0.5677 -0.5164  0.1861
 5139TIP3    H139612   4.051   2.021  17.797  1.3810 -1.0155  1.6844
 5139TIP3    H239613   4.056   2.165  17.843  1.4123 -1.0195  1.6934
 5140TIP3   OH239614   2.553   5.281  20.001 -0.4026  0.1375  0.9087
 5140TIP3    H139615   2.525   5.357  20.051  0.9736  0.3196  1.4418
 5140TIP3    H239616   2.596   5.318  19.924 -0.3987 -0.1090  0.7922
 5141TIP3   OH239617   7.561   1.161  18.301  0.1907 -0.4816  0.3163
 5141TIP3    H139618   7.611   1.113  18.235  0.1591 -0.7167  0.4593
 5141TIP3    H239619   7.553   1.250  18.267  1.9663 -0.0434  0.9541
 5142TIP3   OH239620   5.043   3.715  16.502  0.6796  0.3743  0.1962
 5142TIP3    H139621   5.040   3.650  16.432 -1.3597  1.0323 -0.4049
 5142TIP3    H239622   5.130   3.705  16.541  1.8055 -0.1637 -2.2811
 5143TIP3   OH239623   4.298   7.447  17.493  0.3001  0.2979  0.0779
 5143TIP3    H139624   4.286   7.538  17.467 -0.5416  0.0820 -0.3397
 5143TIP3    H239625   4.371   7.416  17.438  0.2583  0.5827 -0.1416
 5144TIP3   OH239626   3.842   3.125  19.345 -0.2950  0.5214  0.4821
 5144TIP3    H139627   3.916   3.167  19.302 -0.1833  0.2798  0.4372
 5144TIP3    H239628   3.769   3.137  19.283 -0.1837  0.3570  0.3179
 5145TIP3   OH239629   5.268   6.956  17.697 -0.7448  0.4493  0.1556
 5145TIP3    H139630   5.309   7.033  17.658  0.4245 -0.5710 -0.6885
 5145TIP3    H239631   5.182   6.951  17.655 -0.2450  0.4549 -0.8991
 5146TIP3   OH239632   0.199   0.300  17.062 -0.0548  0.1701 -0.1168
 5146TIP3    H139633   0.123   0.281  17.006 -0.6065  0.3937  0.5443
 5146TIP3    H239634   0.226   0.214  17.095 -0.5214  0.1703  0.2794
 5147TIP3   OH239635   1.928   5.890  18.329  0.5201 -0.7063  0.3995
 5147TIP3    H139636   1.921   5.919  18.420 -1.0576 -1.0052  0.3931
 5147TIP3    H239637   1.852   5.833  18.316 -0.9782  1.6389 -1.9489
 5148TIP3   OH239638   3.798   5.870  18.842 -0.1838 -0.2858 -0.3582
 5148TIP3    H139639   3.888   5.848  18.868 -0.4887  0.8678  1.9144
 5148TIP3    H239640   3.808   5.947  18.786  0.3329 -1.3948 -1.8708
 5149TIP3   OH239641   1.190   6.708  17.793  0.3265 -0.3102 -0.2142
 5149TIP3    H139642   1.195   6.795  17.832 -0.4828 -0.6052  0.5998
 5149TIP3    H239643   1.098   6.698  17.768  0.0288 -1.5333  1.1942
 5150TIP3   OH239644   5.141   2.663  19.461 -0.3367  0.3520 -0.0624
 5150TIP3    H139645   5.140   2.744  19.512 -1.8988 -0.0686  0.6391
 5150TIP3    H239646   5.221   2.668  19.409 -0.5794  2.5505 -0.3434
 5151TIP3   OH239647   5.930   5.771  19.136 -0.1672 -0.1501 -0.1108
 5151TIP3    H139648   5.963   5.805  19.219 -0.7687 -0.3867  0.2337
 5151TIP3    H239649   5.835   5.773  19.145 -0.2367 -1.8220 -0.1123
 5152TIP3   OH239650   0.804   2.926  18.067 -0.5083  0.4080  0.2833
 5152TIP3    H139651   0.866   2.909  18.138  1.1767  0.1304 -1.1742
 5152TIP3    H239652   0.728   2.966  18.110  0.5956  0.5884  2.1728
 5153TIP3   OH239653   2.494   0.149  19.049 -0.1456 -0.3821  0.2554
 5153TIP3    H139654   2.556   0.085  19.014 -1.9122 -1.6090 -0.7939
 5153TIP3    H239655   2.505   0.226  18.993 -0.4342 -1.0485 -0.7403
 5154TIP3   OH239656   2.308   4.461  20.075  0.2587 -0.6873  0.2619
 5154TIP3    H139657   2.401   4.482  20.070  0.2004 -0.1965  1.0418
 5154TIP3    H239658   2.279   4.498  20.159 -0.7676 -0.3331 -0.2292
 5155TIP3   OH239659   2.949   1.466  18.337  0.6624  0.2995  0.2577
 5155TIP3    H139660   3.043   1.458  18.348  0.6201 -0.0647  0.3711
 5155TIP3    H239661   2.919   1.378  18.314  0.1405  0.0201  1.8705
 5156TIP3   OH239662   2.285   0.770  18.191  0.1969  0.8245  0.3066
 5156TIP3    H139663   2.366   0.779  18.142  0.6625 -0.1987  0.8724
 5156TIP3    H239664   2.312   0.745  18.279 -0.8086 -2.9302 -0.3032
 5157TIP3   OH239665   6.763   3.135  17.130 -0.3302  0.0675 -0.2345
 5157TIP3    H139666   6.838   3.191  17.149 -0.3773 -0.1687  0.6730
 5157TIP3    H239667   6.800   3.048  17.117 -0.4523 -0.0646  0.2932
 5158TIP3   OH239668   3.190   3.622  18.010  0.4945  0.2492  0.2545
 5158TIP3    H139669   3.216   3.616  17.918  0.5521 -0.7839  0.3282
 5158TIP3    H239670   3.262   3.669  18.051  1.1995 -0.6041  0.0344
 5159TIP3   OH239671   4.369   0.733  18.681 -0.2732 -0.1407 -0.1369
 5159TIP3    H139672   4.295   0.678  18.658 -0.6298  0.0549  0.5299
 5159TIP3    H239673   4.332   0.803  18.735  0.5559 -0.7388  1.2810
 5160TIP3   OH239674   7.664   3.782  19.418 -0.2354  0.3003 -0.0763
 5160TIP3    H139675   7.631   3.745  19.500 -0.6783  0.1829 -0.3048
 5160TIP3    H239676   7.637   3.873  19.419 -1.4117 -0.0295 -0.6992
 5161TIP3   OH239677   1.607   2.152  19.557  0.2258 -0.6515 -0.1545
 5161TIP3    H139678   1.665   2.079  19.533  0.4686 -0.9514  1.2555
 5161TIP3    H239679   1.623   2.165  19.651  0.1056  1.1523 -0.3544
 5162TIP3   OH239680   0.045   0.588  17.553 -0.3690 -0.1828 -0.6904
 5162TIP3    H139681   0.129   0.550  17.578 -0.2073 -0.2368 -1.3064
 5162TIP3    H239682  -0.011   0.575  17.629  0.5232  0.9259  0.1976
 5163TIP3   OH239683   5.462   7.047  18.939  0.4118  0.3639  0.7144
 5163TIP3    H139684   5.489   7.049  18.847 -0.9778  0.1857  0.2682
 5163TIP3    H239685   5.543   7.053  18.988  1.1146  1.6355 -0.5256
 5164TIP3   OH239686   2.531   3.359  19.027 -0.0130  0.4603  0.6491
 5164TIP3    H139687   2.534   3.355  19.123  0.2373 -0.0639  0.6192
 5164TIP3    H239688   2.443   3.328  19.005 -0.7022  2.1895  0.7836
 5165TIP3   OH239689   7.501   1.985  19.591  0.5432  0.0607  0.2695
 5165TIP3    H139690   7.455   2.068  19.586  1.1629  0.3850 -0.1016
 5165TIP3    H239691   7.591   2.005  19.563  0.0924 -1.2204 -2.4472
 5166TIP3   OH239692   5.099   5.231  19.479 -0.3323 -0.1962  0.7513
 5166TIP3    H139693   5.046   5.261  19.552  0.5774 -0.6202  1.6026
 5166TIP3    H239694   5.127   5.142  19.504 -0.4548 -0.5638 -0.3505
 5167TIP3   OH239695   2.839   1.945  18.905 -0.0055 -0.2260  0.3217
 5167TIP3    H139696   2.838   1.872  18.967 -3.2322 -1.8457 -1.3589
 5167TIP3    H239697   2.876   1.909  18.825  0.1178  0.5388  0.0275
 5168TIP3   OH239698   6.440   7.058  19.035  0.0573 -0.4813  0.4902
 5168TIP3    H139699   6.440   7.128  19.102  0.6303 -2.1768  2.3637
 5168TIP3    H239700   6.358   7.012  19.050 -1.0757  0.6375 -1.7790
 5169TIP3   OH239701   4.776   7.163  18.917  0.2028  0.0534 -0.1586
 5169TIP3    H139702   4.781   7.169  19.012 -1.0858  0.0478 -0.0801
 5169TIP3    H239703   4.741   7.075  18.900  1.9864 -0.6055 -0.7155
 5170TIP3   OH239704   0.964   4.255  17.909 -0.2608  0.0263 -0.1660
 5170TIP3    H139705   0.963   4.349  17.924 -0.1489  0.2267 -1.3670
 5170TIP3    H239706   0.965   4.217  17.997 -1.5081  1.1156  0.3440
 5171TIP3   OH239707   0.928   6.198  18.788 -0.4389  0.2576  0.3849
 5171TIP3    H139708   0.991   6.260  18.826 -1.6018  1.3792  0.5545
 5171TIP3    H239709   0.932   6.216  18.694  1.1064 -1.2509  0.1177
 5172TIP3   OH239710   7.271   1.887  17.466  0.7803  0.3404  0.2179
 5172TIP3    H139711   7.234   1.953  17.407  0.8451 -0.9903 -1.3771
 5172TIP3    H239712   7.359   1.919  17.485  0.5942  1.0186 -0.0010
 5173TIP3   OH239713   1.204   6.407  17.495 -0.2351  0.0536  0.1903
 5173TIP3    H139714   1.141   6.462  17.448  0.1186 -1.1053 -1.7624
 5173TIP3    H239715   1.277   6.465  17.514 -0.6564  0.7088 -0.1535
 5174TIP3   OH239716   4.515   3.572  19.501  0.1863  0.0977 -0.3335
 5174TIP3    H139717   4.515   3.545  19.409 -0.9245  0.9939 -0.6198
 5174TIP3    H239718   4.469   3.656  19.501  2.5879  1.4916  0.6653
 5175TIP3   OH239719   2.853   0.905  19.631 -0.2690 -0.6403  0.8605
 5175TIP3    H139720   2.780   0.963  19.650 -0.0769 -0.1989  0.2753
 5175TIP3    H239721   2.926   0.963  19.611  0.3489 -1.0705  1.7788
 5176TIP3   OH239722   7.547   0.217  17.481  0.1166 -0.0887 -0.3575
 5176TIP3    H139723   7.587   0.289  17.433 -0.6327  1.3491  1.0989
 5176TIP3    H239724   7.467   0.254  17.519  1.4622 -0.5857  3.3707
 5177TIP3   OH239725   7.595   5.397  17.574  0.1622  0.2240  0.1393
 5177TIP3    H139726   7.550   5.398  17.489  0.0225  2.7499  0.1762
 5177TIP3    H239727   7.638   5.311  17.577 -1.2806 -0.6389 -1.6842
 5178TIP3   OH239728   6.738   0.631  18.742  0.7050  0.1487  0.1635
 5178TIP3    H139729   6.823   0.595  18.716  0.7787  1.4373 -1.5632
 5178TIP3    H239730   6.759   0.715  18.782  0.1929  1.6410 -2.4873
 5179TIP3   OH239731   5.195   0.366  18.976 -0.7505  0.5820 -0.4056
 5179TIP3    H139732   5.287   0.392  18.989 -0.0541 -1.5362 -0.8028
 5179TIP3    H239733   5.158   0.369  19.064  0.2937 -0.5670  0.1084
 5180TIP3   OH239734   2.447   4.596  19.678  0.2078  0.4190 -0.2035
 5180TIP3    H139735   2.446   4.656  19.603  0.6053 -0.3744 -0.8560
 5180TIP3    H239736   2.539   4.573  19.689  0.0442 -0.1734 -0.0426
 5181TIP3   OH239737   3.384   4.842  18.373  0.0898 -0.1257  0.1384
 5181TIP3    H139738   3.344   4.756  18.365  2.1006 -1.1439  0.3998
 5181TIP3    H239739   3.418   4.846  18.462  1.3302  0.3170 -0.3310
 5182TIP3   OH239740   5.479   3.815  18.742  0.3300 -0.2898 -0.5592
 5182TIP3    H139741   5.461   3.738  18.797 -1.9395 -1.7664 -3.1330
 5182TIP3    H239742   5.417   3.881  18.772  1.2289  0.0416  0.6415
 5183TIP3   OH239743   7.215   5.716  17.836  0.3339 -0.1440  0.0903
 5183TIP3    H139744   7.198   5.679  17.749 -0.5036 -0.2366  0.2835
 5183TIP3    H239745   7.242   5.641  17.889 -0.8184 -0.4045  0.3356
 5184TIP3   OH239746   1.107   6.426  18.811 -0.3926  0.2342 -0.1134
 5184TIP3    H139747   1.112   6.490  18.882 -2.5388 -0.2522  0.5423
 5184TIP3    H239748   1.112   6.479  18.731  0.4559  0.9492  0.4016
 5185TIP3   OH239749   4.728   4.717  17.102 -0.2906 -0.3396  0.7529
 5185TIP3    H139750   4.691   4.770  17.032  0.6651 -0.0938  0.4121
 5185TIP3    H239751   4.748   4.633  17.061 -0.6779 -0.5522  0.9905
 5186TIP3   OH239752   7.432   6.430  18.771  0.2209  0.4136 -0.6982
 5186TIP3    H139753   7.411   6.521  18.749  0.5811  0.4754 -0.7865
 5186TIP3    H239754   7.438   6.429  18.867 -2.1843 -0.0286 -0.4763
 5187TIP3   OH239755   2.827   3.218  19.541 -0.6571  0.2949  0.4377
 5187TIP3    H139756   2.873   3.253  19.465  0.2154 -2.3616 -0.3485
 5187TIP3    H239757   2.896   3.190  19.601 -1.3022 -0.3696  0.8919
 5188TIP3   OH239758   0.690   7.261  18.231 -0.5122  0.3430 -0.2095
 5188TIP3    H139759   0.706   7.199  18.160 -0.0335 -0.9882  1.0189
 5188TIP3    H239760   0.596   7.256  18.246 -0.3105 -1.0622  0.7161
 5189TIP3   OH239761   7.409   5.969  18.274  0.5812  0.2710  0.1441
 5189TIP3    H139762   7.408   5.924  18.189 -0.4898  0.2348  0.1519
 5189TIP3    H239763   7.318   5.995  18.288  1.0796  2.0187  0.3798
 5190TIP3   OH239764   1.366   0.630  19.219  0.4552  0.6323  0.2080
 5190TIP3    H139765   1.409   0.545  19.217  0.1191  0.4260  1.2037
 5190TIP3    H239766   1.292   0.622  19.158 -0.0177 -0.0482  0.8506
 5191TIP3   OH239767   0.193   0.332  19.546 -0.2014 -0.1445 -0.2492
 5191TIP3    H139768   0.142   0.263  19.502 -0.9944 -1.4738  2.5382
 5191TIP3    H239769   0.284   0.302  19.539 -0.1104  0.4856 -2.2738
 5192TIP3   OH239770   2.661   1.649  19.556 -0.7034 -0.1125 -0.2983
 5192TIP3    H139771   2.570   1.623  19.568 -1.0290  0.9628 -0.2857
 5192TIP3    H239772   2.707   1.611  19.631 -1.2019 -0.3873 -0.1262
 5193TIP3   OH239773   6.157   3.157  18.200  0.0469  0.2135 -0.1951
 5193TIP3    H139774   6.221   3.131  18.266  0.6025  1.2201 -0.3153
 5193TIP3    H239775   6.132   3.246  18.224 -0.1629  0.3836 -1.0215
 5194TIP3   OH239776   5.576   4.329  17.253  0.1217  0.1914 -0.3809
 5194TIP3    H139777   5.534   4.272  17.317  1.9858 -2.1953 -1.1192
 5194TIP3    H239778   5.529   4.312  17.171 -1.6679  2.5517  0.0723
 5195TIP3   OH239779   0.411   0.912  19.234 -0.4565  0.1158 -0.1650
 5195TIP3    H139780   0.484   0.948  19.285 -1.1061  0.5753  0.4742
 5195TIP3    H239781   0.451   0.881  19.153  0.7458 -1.4463  0.9738
 5196TIP3   OH239782   4.561   4.284  18.435  0.1045  0.0497 -0.1635
 5196TIP3    H139783   4.479   4.324  18.465  1.6403  2.5288  1.0517
 5196TIP3    H239784   4.575   4.211  18.495 -0.5375  0.4542  0.5072
 5197TIP3   OH239785   7.540   7.217  19.114  0.9533  0.0498  0.6376
 5197TIP3    H139786   7.628   7.181  19.128  1.5220  1.6043  1.2327
 5197TIP3    H239787   7.546   7.308  19.141 -0.4670  0.6043 -0.7289
 5198TIP3   OH239788   6.084   7.368  19.427  0.5370  0.2295  0.9416
 5198TIP3    H139789   6.067   7.327  19.512 -0.1420 -0.0035  0.7040
 5198TIP3    H239790   5.997   7.393  19.395  0.8632  1.0551  0.6776
 5199TIP3   OH239791   2.615   3.477  19.738  0.0836 -0.6422  0.1884
 5199TIP3    H139792   2.636   3.561  19.695  0.3312  0.0206  1.5618
 5199TIP3    H239793   2.524   3.487  19.766  0.4614 -0.3784  1.3562
 5200TIP3   OH239794   3.801   4.229  18.241  0.5451 -0.0872  0.1838
 5200TIP3    H139795   3.806   4.223  18.146 -2.6242 -4.4433 -0.0351
 5200TIP3    H239796   3.738   4.300  18.257  1.0683  0.6574 -0.9502
 5201TIP3   OH239797   5.601   4.990  19.374  0.2475 -0.2057 -0.4369
 5201TIP3    H139798   5.647   5.046  19.437 -0.3308 -0.8976  0.6469
 5201TIP3    H239799   5.559   4.922  19.429 -1.0191 -0.3117 -1.4805
 5202TIP3   OH239800   3.039   5.893  18.303 -0.6691 -0.0545 -0.2390
 5202TIP3    H139801   3.095   5.833  18.253  0.7777  0.1152  1.0768
 5202TIP3    H239802   3.100   5.959  18.337 -1.3011 -0.9861  2.9492
 5203TIP3   OH239803   0.528   4.540  18.933 -0.3307 -0.1738 -0.2119
 5203TIP3    H139804   0.579   4.521  19.011 -0.5883  0.0980  0.0250
 5203TIP3    H239805   0.590   4.534  18.861 -0.0655 -0.2974  0.0271
 5204TIP3   OH239806   0.286   6.289  19.004 -0.5097  0.1307 -0.1319
 5204TIP3    H139807   0.291   6.384  19.010 -0.8820  0.1676 -0.3812
 5204TIP3    H239808   0.375   6.262  18.979  0.3184  0.1930  2.4836
 5205TIP3   OH239809   4.484   5.563  19.403 -0.2242  0.0651  0.2274
 5205TIP3    H139810   4.571   5.543  19.369 -0.1394  1.1315 -0.2033
 5205TIP3    H239811   4.424   5.519  19.343 -0.0086 -0.1627  0.1753
 5206TIP3   OH239812   1.828   1.333  18.440 -0.5600  0.7750  0.0748
 5206TIP3    H139813   1.879   1.268  18.393 -1.4200 -0.1813  0.4407
 5206TIP3    H239814   1.782   1.382  18.371  1.8007  2.5640 -0.3759
 5207TIP3   OH239815   0.922   5.956  18.908  0.8776 -0.0196  0.1968
 5207TIP3    H139816   1.000   5.939  18.961 -0.6967  1.0268  3.1206
 5207TIP3    H239817   0.934   6.045  18.874  1.4341 -0.2904 -0.3309
 5208TIP3   OH239818   6.235   0.193  18.380 -0.1096  0.2563  0.0815
 5208TIP3    H139819   6.207   0.249  18.452  0.6847  0.8808 -0.0729
 5208TIP3    H239820   6.155   0.174  18.331 -0.7261 -0.4658  1.3032
 5209TIP3   OH239821   1.092   0.475  19.394  0.4485  0.1768 -0.6620
 5209TIP3    H139822   1.030   0.409  19.425 -0.2991  1.7721  1.5024
 5209TIP3    H239823   1.102   0.456  19.300 -2.0742 -1.1421 -0.7694
 5210TIP3   OH239824   1.162   5.912  19.879 -0.3055  0.1965 -0.2671
 5210TIP3    H139825   1.113   5.964  19.815 -1.0732 -0.1573  0.0197
 5210TIP3    H239826   1.253   5.938  19.865 -0.2024 -1.1210 -2.7163
 5211TIP3   OH239827   1.870   5.082  19.579 -0.1472 -0.2078  0.0195
 5211TIP3    H139828   1.792   5.082  19.635  0.5381 -3.0490  1.1499
 5211TIP3    H239829   1.837   5.070  19.490 -1.0404 -1.2949  0.4787
 5212TIP3   OH239830   1.212   0.225  18.231  0.3699  0.1363  0.1769
 5212TIP3    H139831   1.206   0.274  18.313  1.0699  0.1158  0.2448
 5212TIP3    H239832   1.299   0.247  18.197  0.3262 -0.3455 -0.2456
 5213TIP3   OH239833   5.105   0.080  19.304 -0.3059  0.4728 -0.3196
 5213TIP3    H139834   5.144   0.143  19.365 -1.1706 -0.5639  1.3898
 5213TIP3    H239835   5.013   0.104  19.300 -0.8834 -1.2152  1.1896
 5214TIP3   OH239836   6.267   2.060  19.069  0.0215  0.7201 -0.2845
 5214TIP3    H139837   6.329   2.000  19.028 -2.1587 -1.0092 -1.2718
 5214TIP3    H239838   6.182   2.038  19.030 -1.7791  0.8376  3.1538
 5215TIP3   OH239839   1.629   0.578  17.249  0.2834 -0.0742  0.4766
 5215TIP3    H139840   1.569   0.618  17.187  0.8477 -1.1137 -0.7735
 5215TIP3    H239841   1.711   0.569  17.201  0.8316 -0.6049  1.4790
 5216TIP3   OH239842   4.315   7.675  18.232 -0.0642 -0.3233 -0.1277
 5216TIP3    H139843   4.403   7.672  18.270 -0.0082 -3.2557 -0.2415
 5216TIP3    H239844   4.268   7.604  18.275 -2.5686  1.4280  0.2144
 5217TIP3   OH239845   5.869   4.006  18.331 -0.2507 -0.1186 -0.1128
 5217TIP3    H139846   5.786   4.054  18.335 -0.2329 -0.1517  0.8973
 5217TIP3    H239847   5.934   4.066  18.367  0.3747  0.2858 -1.8370
 5218TIP3   OH239848   6.624   6.297  19.013  0.0498 -0.5386  0.1452
 5218TIP3    H139849   6.547   6.260  18.969  0.1790  0.8211 -1.3129
 5218TIP3    H239850   6.592   6.378  19.052  0.5328 -0.4463  0.3523
 5219TIP3   OH239851   1.589   4.132  19.081 -0.0798  0.2247  0.2559
 5219TIP3    H139852   1.516   4.114  19.021  1.6459 -3.2902 -1.0956
 5219TIP3    H239853   1.659   4.165  19.024  0.2323  1.0009  1.0820
 5220TIP3   OH239854   3.615   3.190  18.053 -0.3326  0.0919  0.0248
 5220TIP3    H139855   3.611   3.253  17.981 -2.1724 -1.7324 -1.6024
 5220TIP3    H239856   3.525   3.180  18.081 -0.1623 -2.0925 -0.0607
 5221TIP3   OH239857   7.145   6.373  17.829  0.1042  0.5552  0.0104
 5221TIP3    H139858   7.091   6.295  17.844 -0.8460  0.4679 -3.0960
 5221TIP3    H239859   7.170   6.403  17.916 -0.9571 -2.2099  1.3614
 5222TIP3   OH239860   0.466   4.938  17.170  0.1022 -0.1400 -0.1573
 5222TIP3    H139861   0.483   4.865  17.111 -1.0520  0.4720 -1.2910
 5222TIP3    H239862   0.513   5.012  17.132  1.0181 -0.1959  0.8206
 5223TIP3   OH239863   3.513   4.767  19.089  0.2698  0.2439  0.1869
 5223TIP3    H139864   3.437   4.789  19.036 -0.0775 -0.5639  0.3440
 5223TIP3    H239865   3.516   4.835  19.156 -0.4385  0.1565  0.3106
 5224TIP3   OH239866   5.744   4.344  18.069 -0.3410  0.6052  0.7321
 5224TIP3    H139867   5.808   4.293  18.018 -2.0773 -0.2502 -0.7014
 5224TIP3    H239868   5.753   4.311  18.158  2.0448  1.3825  0.8536
 5225TIP3   OH239869   2.365   7.567  19.760 -0.0103 -0.0643 -0.6564
 5225TIP3    H139870   2.392   7.557  19.668 -0.9435 -0.3959 -0.9047
 5225TIP3    H239871   2.271   7.586  19.755  0.1877  1.2089  0.1802
 5226TIP3   OH239872   3.490   7.406  19.082 -0.2743 -0.1998  0.2238
 5226TIP3    H139873   3.506   7.371  19.170 -0.7721  1.9360  1.2428
 5226TIP3    H239874   3.572   7.450  19.059 -1.5602  3.5255  1.8709
 5227TIP3   OH239875   5.699   5.189  19.208  0.0823 -0.1139 -0.6480
 5227TIP3    H139876   5.668   5.117  19.263 -1.3789  1.8500  1.3033
 5227TIP3    H239877   5.639   5.190  19.133 -0.5996 -0.2553 -0.1145
 5228TIP3   OH239878   6.254   5.979  19.103 -0.5708  0.0382 -0.6471
 5228TIP3    H139879   6.343   5.965  19.072 -0.9284 -0.6561 -1.3907
 5228TIP3    H239880   6.204   5.906  19.067 -1.3137  0.0642  0.2941
 5229TIP3   OH239881   1.836   1.914  18.428  0.0237 -0.1409 -0.1291
 5229TIP3    H139882   1.880   1.962  18.358  1.4488 -2.2060 -0.7560
 5229TIP3    H239883   1.836   1.823  18.399 -1.5116 -0.7341  1.5067
 5230TIP3   OH239884   3.609   3.077  18.415  0.3288 -0.5177  0.3745
 5230TIP3    H139885   3.678   3.065  18.349 -0.3645 -0.6829 -0.3263
 5230TIP3    H239886   3.656   3.075  18.498  1.1387 -0.9299 -0.0780
 5231TIP3   OH239887   2.160   2.398  18.083 -0.2830  0.1890 -0.1132
 5231TIP3    H139888   2.084   2.449  18.108 -0.9534 -0.4581 -0.7721
 5231TIP3    H239889   2.153   2.317  18.133 -0.7941 -0.4562 -1.1967
 5232TIP3   OH239890   5.125   5.842  19.553 -0.2730 -0.0639 -0.3498
 5232TIP3    H139891   5.071   5.813  19.479 -0.9596 -0.9943  0.4826
 5232TIP3    H239892   5.169   5.762  19.582  1.4628  0.6547 -0.9055
 5233TIP3   OH239893   2.994   3.569  19.151 -0.0795 -0.1907  0.6021
 5233TIP3    H139894   3.009   3.617  19.069 -5.2494  0.4059 -0.3515
 5233TIP3    H239895   2.948   3.490  19.124  0.1288 -1.1406  2.8173
 5234TIP3   OH239896   2.897   7.559  17.381 -0.0808  0.4568  0.1608
 5234TIP3    H139897   2.958   7.625  17.346 -0.6945  1.3034  0.6592
 5234TIP3    H239898   2.927   7.544  17.470 -1.1758  1.6375  0.7613
 5235TIP3   OH239899   5.611   2.350  19.724 -0.9705 -0.1301  0.0187
 5235TIP3    H139900   5.543   2.293  19.758 -2.8701  1.1733 -1.4154
 5235TIP3    H239901   5.625   2.321  19.634  0.6826 -0.6184  0.3957
 5236TIP3   OH239902   0.839   1.926  17.988 -0.3701  0.5902  0.3234
 5236TIP3    H139903   0.848   1.839  17.948  1.9394  1.0070 -0.2036
 5236TIP3    H239904   0.780   1.973  17.929  2.2747  0.9215 -2.3140
 5237TIP3   OH239905   1.224   3.609  18.142 -0.9029 -0.1952  0.1841
 5237TIP3    H139906   1.191   3.605  18.053  0.3242  0.9094 -0.3465
 5237TIP3    H239907   1.194   3.527  18.182 -2.5071 -0.1575 -0.8384
 5238TIP3   OH239908   7.572   7.501  18.064  0.2176  0.6464 -0.2322
 5238TIP3    H139909   7.539   7.472  17.979  3.2203 -1.7688 -0.7054
 5238TIP3    H239910   7.518   7.454  18.128 -0.2309  0.3393 -0.8306
 5239TIP3   OH239911   2.945   3.612  20.003  0.0067 -0.0234  0.1518
 5239TIP3    H139912   2.955   3.688  19.945 -3.3380  1.1270  0.8559
 5239TIP3    H239913   2.910   3.543  19.946  1.3778 -0.5289 -0.1203
 5240TIP3   OH239914   1.307   1.909  18.691  0.4074  0.0054  0.1376
 5240TIP3    H139915   1.305   1.868  18.604  1.0534 -0.9578  0.5699
 5240TIP3    H239916   1.360   1.850  18.745  0.6429  0.9745  1.0016
 5241TIP3   OH239917   5.602   2.337  18.586 -0.2591  0.0705 -0.0421
 5241TIP3    H139918   5.637   2.410  18.638 -0.5944  0.5229 -0.4486
 5241TIP3    H239919   5.601   2.263  18.647 -2.0714  0.9474  1.0628
 5242TIP3   OH239920   5.805   4.239  17.124 -0.0098  0.5577  0.2245
 5242TIP3    H139921   5.772   4.211  17.038  0.2178  0.7840  0.0614
 5242TIP3    H239922   5.732   4.287  17.163  0.4205  1.8907 -0.5355
 5243TIP3   OH239923   2.476   4.312  18.061 -0.4962  0.8632  0.7229
 5243TIP3    H139924   2.470   4.326  17.966  1.5259 -0.6155  0.3128
 5243TIP3    H239925   2.395   4.349  18.096 -2.2836 -0.3520 -1.8200
 5244TIP3   OH239926   1.695   0.163  18.818 -0.2003  0.0319 -0.6010
 5244TIP3    H139927   1.652   0.142  18.901  0.2244 -0.6428 -0.5370
 5244TIP3    H239928   1.732   0.250  18.832  0.7601 -0.4906  0.3095
 5245TIP3   OH239929   3.854   7.026  17.327 -0.0056  0.3582 -0.0459
 5245TIP3    H139930   3.822   6.996  17.412  2.8318 -0.7943  0.7123
 5245TIP3    H239931   3.949   7.023  17.334  0.3353  0.5907 -3.1583
 5246TIP3   OH239932   6.707   2.120  17.088  0.0984  0.0958  0.2426
 5246TIP3    H139933   6.634   2.137  17.147  0.7638  0.1465  1.0651
 5246TIP3    H239934   6.717   2.024  17.090  0.3163  0.1232  0.4492
 5247TIP3   OH239935   5.575   1.756  18.575  0.6116  0.2177  0.4076
 5247TIP3    H139936   5.607   1.833  18.529 -0.7873 -0.3099 -1.5765
 5247TIP3    H239937   5.540   1.791  18.657 -0.2553  1.7618 -0.5658
 5248TIP3   OH239938   0.425   6.623  19.164 -0.3123 -0.1364  0.8481
 5248TIP3    H139939   0.423   6.695  19.227 -0.8462 -0.5890  1.3595
 5248TIP3    H239940   0.333   6.596  19.156 -0.0886 -0.9385  0.8718
 5249TIP3   OH239941   6.005   0.662  17.734 -0.5737 -0.0026 -0.0654
 5249TIP3    H139942   5.965   0.743  17.768 -0.2477  1.1930 -2.3519
 5249TIP3    H239943   6.056   0.629  17.807 -2.3496  0.7082  1.6053
 5250TIP3   OH239944   2.206   4.527  19.806 -0.0391  0.1221  0.1467
 5250TIP3    H139945   2.283   4.567  19.765 -0.2212 -1.3198 -1.7287
 5250TIP3    H239946   2.242   4.477  19.879  0.8312 -0.4748 -0.6625
 5251TIP3   OH239947   0.771   6.283  18.281  0.0871 -0.7098  0.0158
 5251TIP3    H139948   0.694   6.245  18.238 -0.3561 -0.0608  0.2100
 5251TIP3    H239949   0.839   6.217  18.271  0.1221 -0.4510 -2.0180
 5252TIP3   OH239950   4.477   1.620  17.440 -0.2384 -0.1592 -0.0854
 5252TIP3    H139951   4.473   1.678  17.516 -2.2622 -0.5303  0.1391
 5252TIP3    H239952   4.386   1.611  17.412  0.2872 -1.4180 -1.5060
 5253TIP3   OH239953   5.035   3.959  18.866  0.2219  0.8396  0.2377
 5253TIP3    H139954   4.975   4.021  18.906 -0.2961  0.0244  0.7501
 5253TIP3    H239955   4.983   3.916  18.798  0.8337  1.5684 -0.7384
 5254TIP3   OH239956   2.979   6.801  19.285 -0.3825  0.6212  0.0729
 5254TIP3    H139957   2.945   6.836  19.368  2.7890 -0.1006  1.8441
 5254TIP3    H239958   3.074   6.794  19.299  0.0303 -1.5929 -2.8764
 5255TIP3   OH239959   3.311   0.649  18.385 -0.4477  0.1622 -0.5213
 5255TIP3    H139960   3.284   0.739  18.401 -1.6455 -0.1306 -0.8074
 5255TIP3    H239961   3.260   0.621  18.309  0.2935 -0.5940 -0.7628
 5256TIP3   OH239962   5.454   2.332  17.771  0.1932  0.2147 -0.0680
 5256TIP3    H139963   5.534   2.384  17.776  1.2379 -1.4264  1.1531
 5256TIP3    H239964   5.462   2.285  17.688  0.7192 -0.2906  0.2672
 5257TIP3   OH239965   5.124   2.254  18.520 -0.0775  0.1312 -0.8920
 5257TIP3    H139966   5.106   2.344  18.548 -0.0134 -0.1733  0.1850
 5257TIP3    H239967   5.042   2.207  18.536  0.3561 -0.3345  0.0286
 5258TIP3   OH239968   3.450   4.037  17.532 -0.1151  0.0985 -0.1426
 5258TIP3    H139969   3.520   4.013  17.470  0.8095 -0.8706  1.2254
 5258TIP3    H239970   3.413   3.953  17.559 -1.6011  0.5900 -0.5797
 5259TIP3   OH239971   2.173   3.451  18.931  0.7348 -0.3629 -0.0237
 5259TIP3    H139972   2.125   3.401  18.864 -1.0137  0.4520  0.5450
 5259TIP3    H239973   2.197   3.385  18.996  0.3436 -0.8113 -0.3208
 5260TIP3   OH239974   2.970   3.804  18.543 -0.1952  0.0729  0.0724
 5260TIP3    H139975   2.914   3.827  18.469  0.7986 -0.9643 -1.0432
 5260TIP3    H239976   2.926   3.730  18.585 -0.2380 -0.0150 -0.1273
 5261TIP3   OH239977   6.567   5.639  18.826  0.0113  0.2844 -0.2799
 5261TIP3    H139978   6.630   5.578  18.865 -0.7539 -1.4848 -1.6570
 5261TIP3    H239979   6.545   5.699  18.898 -1.1698 -2.6781  2.0766
 5262TIP3   OH239980   2.236   1.329  18.190  0.4057  0.6253  0.1394
 5262TIP3    H139981   2.238   1.234  18.181  0.7769  0.7361 -1.2009
 5262TIP3    H239982   2.251   1.362  18.101 -1.3197  1.9424  0.2758
 5263TIP3   OH239983   5.562   3.283  16.282 -0.1774 -0.0060  0.4393
 5263TIP3    H139984   5.635   3.332  16.318 -0.3782  1.2124 -0.7739
 5263TIP3    H239985   5.492   3.348  16.271 -1.4946 -1.1370  1.6173
 5264TIP3   OH239986   2.283   5.337  17.212  0.1615  0.3315  0.4202
 5264TIP3    H139987   2.332   5.259  17.186  0.1274  0.2539  0.5934
 5264TIP3    H239988   2.193   5.319  17.186  0.4763  1.1077 -1.3344
 5265TIP3   OH239989   1.086   0.743  19.518 -0.3827  0.4818  0.0776
 5265TIP3    H139990   1.108   0.656  19.482 -0.9222  0.2737  0.2309
 5265TIP3    H239991   0.990   0.741  19.526 -0.3950  1.0903  0.0952
 5266TIP3   OH239992   7.308   1.538  18.211 -0.5011  0.1173  0.1625
 5266TIP3    H139993   7.280   1.543  18.302 -1.2320 -0.7630 -0.0015
 5266TIP3    H239994   7.288   1.624  18.175 -1.4039  0.0635  0.5094
 5267TIP3   OH239995   4.882   4.940  18.601 -0.0925  0.0883 -0.2023
 5267TIP3    H139996   4.930   4.858  18.586  0.3845  0.4076 -0.4267
 5267TIP3    H239997   4.840   4.927  18.686 -0.4553 -0.5990 -0.4746
 5268TIP3   OH239998   7.344   1.364  18.774  0.5439 -0.4957 -0.5715
 5268TIP3    H139999   7.360   1.426  18.703 -0.0904  1.4268  0.8721
 5268TIP3    H240000   7.403   1.393  18.844  0.1347 -1.4540  0.1953
 5269TIP3   OH240001   5.314   6.575  17.492 -0.4026 -0.1764  0.3549
 5269TIP3    H140002   5.295   6.507  17.427 -0.2033 -1.2095  1.3401
 5269TIP3    H240003   5.234   6.627  17.497 -1.1662 -1.3454  0.7456
 5270TIP3   OH240004   7.165   5.494  17.255 -0.1130  0.0703  0.1522
 5270TIP3    H140005   7.074   5.484  17.283 -0.6521  0.9225 -1.1748
 5270TIP3    H240006   7.200   5.405  17.252 -1.1514 -0.3411 -0.1132
 5271TIP3   OH240007   4.367   7.200  18.998  0.3423  0.0809  0.1509
 5271TIP3    H140008   4.290   7.189  18.942  1.2447 -2.5913 -0.7444
 5271TIP3    H240009   4.427   7.252  18.945  0.3357 -0.5569 -0.5084
 5272TIP3   OH240010   2.281   7.420  18.647 -0.0142  0.2728  0.0803
 5272TIP3    H140011   2.352   7.484  18.648  0.0401  0.2166 -0.0542
 5272TIP3    H240012   2.326   7.336  18.635 -0.0669  0.1831  0.5021
 5273TIP3   OH240013   7.086   3.038  17.031  0.0052  0.5613 -0.2931
 5273TIP3    H140014   7.012   2.979  17.026  0.7730 -0.3001 -2.9476
 5273TIP3    H240015   7.058   3.107  17.091 -2.8283  0.1407 -1.0114
 5274TIP3   OH240016   5.707   3.189  16.750 -0.3012 -0.0460  0.1782
 5274TIP3    H140017   5.653   3.112  16.731 -0.2801  0.2797 -1.3472
 5274TIP3    H240018   5.770   3.158  16.814 -1.2148 -0.8978  0.7039
 5275TIP3   OH240019   3.328   1.766  18.919 -0.2945 -0.5827 -0.2111
 5275TIP3    H140020   3.404   1.708  18.919  1.2232  1.1673 -3.0679
 5275TIP3    H240021   3.357   1.844  18.966  0.0527  0.3780 -1.9061
 5276TIP3   OH240022   2.646   2.140  18.227 -0.1249  0.0698  0.0862
 5276TIP3    H140023   2.689   2.055  18.230 -0.2453  0.0097  2.1929
 5276TIP3    H240024   2.553   2.121  18.241 -0.1340  0.5313  0.7363
 5277TIP3   OH240025   1.547   1.049  19.644 -0.1594  0.8555  0.8672
 5277TIP3    H140026   1.540   1.140  19.614 -0.0456  0.7440  0.4982
 5277TIP3    H240027   1.461   1.011  19.626 -0.6417  1.2368  2.2176
 5278TIP3   OH240028   3.266   3.856  18.744  0.1561  0.3754 -0.6172
 5278TIP3    H140029   3.231   3.819  18.662 -1.4247  0.8765 -0.2079
 5278TIP3    H240030   3.244   3.949  18.739 -0.7975  0.2468  0.7705
 5279TIP3   OH240031   4.551   0.851  17.182 -0.1437  0.4331  0.3579
 5279TIP3    H140032   4.523   0.760  17.192  1.8823 -0.2058  0.5046
 5279TIP3    H240033   4.621   0.848  17.117 -0.2629  1.9393  0.1284
 5280TIP3   OH240034   4.023   2.008  19.687  0.3428 -0.1235  0.5459
 5280TIP3    H140035   4.116   1.992  19.671 -0.1842 -2.7488 -0.3546
 5280TIP3    H240036   4.006   2.094  19.648  2.1102 -0.1396 -0.3517
 5281TIP3   OH240037   6.412   0.975  17.441 -0.2442 -0.2372  0.1017
 5281TIP3    H140038   6.366   0.896  17.467  0.2392 -0.8768 -0.8743
 5281TIP3    H240039   6.471   0.994  17.514 -0.6724 -0.5302  0.5282
 5282TIP3   OH240040   4.751   7.607  18.099  0.1888  0.5805  0.5758
 5282TIP3    H140041   4.785   7.588  18.011 -1.1466 -0.1321  0.1789
 5282TIP3    H240042   4.826   7.594  18.157  0.7524 -0.3323 -0.3176
 5283TIP3   OH240043   5.985   3.932  18.819 -0.3330  0.4800 -0.1617
 5283TIP3    H140044   6.011   3.902  18.905  2.1861  1.5831 -0.4529
 5283TIP3    H240045   5.889   3.932  18.821 -0.3968 -2.3542  1.5688
 5284TIP3   OH240046   2.823   7.227  19.831  0.2765  0.2986 -0.2121
 5284TIP3    H140047   2.773   7.181  19.763 -0.1779 -0.0688  0.3651
 5284TIP3    H240048   2.910   7.239  19.793 -0.3814  1.3991 -1.4357
 5285TIP3   OH240049   6.740   6.061  17.715  0.3738  0.2373  0.5390
 5285TIP3    H140050   6.783   5.976  17.717 -0.3122 -0.1134  0.8676
 5285TIP3    H240051   6.693   6.067  17.798 -1.3106 -0.0017 -0.3350
 5286TIP3   OH240052   3.632   1.265  18.171  0.3924  0.2115  0.1782
 5286TIP3    H140053   3.596   1.177  18.157 -2.5907  0.9164  2.3301
 5286TIP3    H240054   3.687   1.255  18.249  1.1251  0.0204 -0.3583
 5287TIP3   OH240055   5.010   5.233  19.722  0.3113  0.0715 -0.4566
 5287TIP3    H140056   4.916   5.239  19.737 -0.4137  0.3107 -4.0644
 5287TIP3    H240057   5.038   5.158  19.774 -1.8227  0.1165  0.8654
 5288TIP3   OH240058   6.250   5.954  18.818  0.0609  0.7035  0.4129
 5288TIP3    H140059   6.205   6.010  18.882  0.0939  0.5470  0.5757
 5288TIP3    H240060   6.213   5.867  18.833 -0.0711  0.7015  0.0871
 5289TIP3   OH240061   4.527   5.157  17.153 -0.1929  0.5475  0.0133
 5289TIP3    H140062   4.507   5.192  17.240 -1.9648 -0.6059  0.1026
 5289TIP3    H240063   4.511   5.230  17.094  0.8220  1.2789  0.5960
 5290TIP3   OH240064   7.139   3.643  18.479 -0.0307 -0.7972 -0.4446
 5290TIP3    H140065   7.044   3.636  18.479 -0.1963  0.6501  1.5430
 5290TIP3    H240066   7.156   3.736  18.468  1.1469 -0.9935 -0.3861
 5291TIP3   OH240067   0.380   1.121  17.923  0.0101  0.0496  0.0784
 5291TIP3    H140068   0.463   1.127  17.877  0.4554 -0.4101  0.7946
 5291TIP3    H240069   0.403   1.089  18.010 -0.6506  2.2396  1.1243
 5292TIP3   OH240070   5.014   5.664  19.355  0.4295  0.1036  0.0080
 5292TIP3    H140071   4.984   5.689  19.267 -2.0970 -0.4868  0.6327
 5292TIP3    H240072   4.956   5.592  19.380  1.5223 -0.1656  1.9280
 5293TIP3   OH240073   3.064   0.957  18.998  0.3322  0.1485  0.1167
 5293TIP3    H140074   3.108   0.980  18.917 -1.6039 -0.0401 -1.0498
 5293TIP3    H240075   3.009   1.032  19.018  1.3033  0.4909  1.6892
 5294TIP3   OH240076   5.403   6.308  19.212 -0.1724 -0.6161 -0.2177
 5294TIP3    H140077   5.462   6.308  19.136 -1.4756 -2.1991 -1.3070
 5294TIP3    H240078   5.317   6.287  19.176 -1.2629  0.6709  1.4541
 5295TIP3   OH240079   4.776   1.592  19.125 -0.2800 -0.1256  0.0353
 5295TIP3    H140080   4.819   1.656  19.067 -2.8859  1.5940 -0.1673
 5295TIP3    H240081   4.846   1.564  19.184  1.1813  2.4292 -0.2847
 5296TIP3   OH240082   4.897   6.537  19.376 -0.5990 -0.3055 -0.5591
 5296TIP3    H140083   4.930   6.546  19.466  0.8779  1.8926 -1.2390
 5296TIP3    H240084   4.805   6.512  19.387 -0.8160  1.1616  1.6378
 5297TIP3   OH240085   1.471   1.239  18.855 -0.1306  0.2790 -0.0035
 5297TIP3    H140086   1.444   1.330  18.844  1.2794  0.9664  1.7389
 5297TIP3    H240087   1.562   1.237  18.824 -0.6658 -0.9584 -1.6109
 5298TIP3   OH240088   6.896   2.150  19.605  0.3651  0.4076 -0.1432
 5298TIP3    H140089   6.933   2.187  19.685 -1.0988 -1.1919  1.3939
 5298TIP3    H240090   6.890   2.056  19.624 -2.3004  0.2928 -1.1100
 5299TIP3   OH240091   0.458   1.781  17.934  0.2843 -0.5810  0.2144
 5299TIP3    H140092   0.553   1.771  17.944  0.4671  0.9269  0.2058
 5299TIP3    H240093   0.421   1.730  18.006  0.9872 -2.9337 -0.9942
 5300TIP3   OH240094   2.560   1.150  18.846 -0.3980  0.2691  0.1019
 5300TIP3    H140095   2.632   1.135  18.908  0.9750  1.2260 -1.2020
 5300TIP3    H240096   2.560   1.072  18.790 -0.0171  0.5113 -0.2373
 5301TIP3   OH240097   5.820   0.292  18.474  0.0029  0.2258  0.1994
 5301TIP3    H140098   5.729   0.316  18.459 -0.0259 -0.9175 -1.7939
 5301TIP3    H240099   5.815   0.211  18.526 -0.2677 -1.3279 -2.1229
 5302TIP3   OH240100   1.378   2.431  17.780 -0.0405  0.2273 -0.4090
 5302TIP3    H140101   1.415   2.468  17.861 -0.1661  1.6126 -0.9508
 5302TIP3    H240102   1.450   2.433  17.717  0.0733 -0.9102 -0.3350
 5303TIP3   OH240103   1.932   5.611  18.652  0.1555  0.3414 -0.4530
 5303TIP3    H140104   1.993   5.603  18.579  0.7733  1.1150 -0.0319
 5303TIP3    H240105   1.847   5.587  18.615  0.3501  1.3269 -1.5832
 5304TIP3   OH240106   3.101   6.124  18.480 -0.2721  0.1833 -0.2559
 5304TIP3    H140107   3.083   6.148  18.389  0.9259  2.5313  0.0254
 5304TIP3    H240108   3.172   6.183  18.506  1.8188 -2.7282  1.2033
 5305TIP3   OH240109   7.428   7.253  19.401 -0.2772  0.0593 -0.1397
 5305TIP3    H140110   7.489   7.244  19.328 -2.1311 -1.2710 -1.6267
 5305TIP3    H240111   7.465   7.198  19.470  0.9082  0.3864 -0.4968
 5306TIP3   OH240112   6.872   6.902  19.763  0.3502 -0.0659  0.0810
 5306TIP3    H140113   6.809   6.926  19.831  0.7025 -0.5603  0.5970
 5306TIP3    H240114   6.890   6.983  19.717 -0.9661  0.0169 -0.3403
 5307TIP3   OH240115   0.312   1.426  18.747 -0.1744 -0.4012  0.5561
 5307TIP3    H140116   0.285   1.400  18.659 -0.2490  1.0361  0.1325
 5307TIP3    H240117   0.385   1.367  18.768 -0.5897 -1.2011 -0.1845
 5308TIP3   OH240118   4.600   5.510  17.409 -0.5153 -0.3553  0.0213
 5308TIP3    H140119   4.677   5.498  17.464  0.3441  0.1549 -1.0100
 5308TIP3    H240120   4.552   5.428  17.416  0.7730 -1.1638 -0.2641
 5309TIP3   OH240121   3.108   0.571  18.048 -0.5315  0.4247  0.2546
 5309TIP3    H140122   3.113   0.666  18.039  3.1790  0.4593  0.8088
 5309TIP3    H240123   3.193   0.540  18.017 -1.1078 -2.5946  1.3327
 5310TIP3   OH240124   2.019   6.475  17.234  0.0265  0.2878  0.8710
 5310TIP3    H140125   2.007   6.566  17.262 -2.5862  0.2343  0.2022
 5310TIP3    H240126   1.961   6.424  17.290  2.4665 -1.2367  2.1740
 5311TIP3   OH240127   0.316   2.080  18.608 -0.4134 -0.6009 -0.1795
 5311TIP3    H140128   0.259   2.010  18.641  0.8049 -1.4999  0.1026
 5311TIP3    H240129   0.389   2.083  18.670 -1.5643  2.6173  1.2473
 5312TIP3   OH240130   0.094   6.010  19.221 -0.4841  0.4406  0.0234
 5312TIP3    H140131   0.190   6.006  19.231 -0.5702  0.8701  1.1336
 5312TIP3    H240132   0.081   6.039  19.131  0.4346  0.6636 -0.0506
 5313TIP3   OH240133   0.205   7.057  17.533  0.1114  0.4922 -0.3458
 5313TIP3    H140134   0.154   7.055  17.615  0.6824 -0.1445  0.0093
 5313TIP3    H240135   0.177   6.978  17.486  0.2730  0.5026 -0.4582
 5314TIP3   OH240136   1.120   4.072  18.952  0.0713  0.0467  0.8707
 5314TIP3    H140137   1.168   3.990  18.943  0.4046  0.2545  0.7530
 5314TIP3    H240138   1.119   4.090  19.046  0.4534  0.1808  0.8474
 5315TIP3   OH240139   1.593   1.594  17.837  0.1992 -0.3010  0.1000
 5315TIP3    H140140   1.539   1.624  17.911  1.0672  0.2799  0.5059
 5315TIP3    H240141   1.587   1.665  17.773 -0.1261 -0.5766 -0.1835
 5316TIP3   OH240142   4.552   7.648  19.061 -0.0488  0.4764  0.0261
 5316TIP3    H140143   4.533   7.610  18.975 -0.0642 -0.9472  0.6347
 5316TIP3    H240144   4.575   7.574  19.116 -2.7802  0.9376  2.0291
 5317TIP3   OH240145   1.063   6.843  18.407  0.0740  0.1704  0.3827
 5317TIP3    H140146   1.157   6.838  18.393 -0.1398  0.8654 -1.8310
 5317TIP3    H240147   1.053   6.896  18.486  1.5314 -0.4237  0.9939
 5318TIP3   OH240148   1.006   5.349  17.831  0.1883 -0.7040 -0.0668
 5318TIP3    H140149   0.918   5.385  17.821 -0.0596 -1.2798  0.0099
 5318TIP3    H240150   0.992   5.261  17.865  0.7694 -1.0052 -0.5821
 5319TIP3   OH240151   0.052   6.343  19.733  0.5212 -0.2327  0.1202
 5319TIP3    H140152  -0.026   6.312  19.779  1.9250 -1.6942  1.6369
 5319TIP3    H240153   0.070   6.274  19.668 -0.8222  1.3028 -2.0174
 5320TIP3   OH240154   3.504   2.585  18.997 -0.7327 -0.3728 -0.1317
 5320TIP3    H140155   3.510   2.533  19.078  0.2785 -0.4299 -0.2287
 5320TIP3    H240156   3.565   2.542  18.937  0.8167  1.4201  0.0702
 5321TIP3   OH240157   4.827   1.881  18.606  0.5129  0.1122  0.1816
 5321TIP3    H140158   4.785   1.860  18.690  0.8028  0.5898  0.4447
 5321TIP3    H240159   4.777   1.830  18.542 -1.3837  1.6678  0.3016
 5322TIP3   OH240160   1.640   7.672  18.606 -0.5848  0.5171  0.2796
 5322TIP3    H140161   1.663   7.732  18.677 -1.6578  0.1069  0.9959
 5322TIP3    H240162   1.554   7.702  18.576 -0.0383  0.8421 -1.0466
 5323TIP3   OH240163   0.836   3.584  17.941 -0.2998  0.2991  0.5583
 5323TIP3    H140164   0.800   3.582  18.029 -0.7065 -0.4949  0.3891
 5323TIP3    H240165   0.760   3.571  17.884  0.3340 -3.1808  0.2603
 5324TIP3   OH240166   4.845   3.358  18.586  0.1989 -0.0375  0.0837
 5324TIP3    H140167   4.760   3.361  18.631  0.8599 -1.8232  1.6079
 5324TIP3    H240168   4.840   3.278  18.533  0.8966 -0.0929  0.1005
 5325TIP3   OH240169   6.074   0.055  19.167  0.1812 -0.1536 -0.0705
 5325TIP3    H140170   6.105   0.013  19.247  0.5776 -0.3304 -0.3150
 5325TIP3    H240171   6.145   0.042  19.104 -0.6527 -1.1278 -0.8386
 5326TIP3   OH240172   0.445   6.917  17.780 -0.0553  0.2648 -0.6293
 5326TIP3    H140173   0.461   6.972  17.703 -2.6374 -0.0617 -1.4909
 5326TIP3    H240174   0.464   6.973  17.855 -0.3026  1.5485 -1.4985
 5327TIP3   OH240175   6.824   5.755  17.447 -0.1620 -0.1758 -0.2151
 5327TIP3    H140176   6.765   5.708  17.505  0.1984  0.9256  1.0844
 5327TIP3    H240177   6.779   5.837  17.427  0.5572  0.3024  0.0966
 5328TIP3   OH240178   7.320   4.867  17.429 -0.0839 -0.2820 -0.5178
 5328TIP3    H140179   7.400   4.839  17.386 -1.1022 -0.9211 -2.0864
 5328TIP3    H240180   7.320   4.962  17.421  0.5351 -0.2685 -0.4310
 5329TIP3   OH240181   3.657   4.854  19.726 -0.0187 -0.4090 -0.3247
 5329TIP3    H140182   3.726   4.894  19.779  0.1118 -0.6768 -0.2866
 5329TIP3    H240183   3.658   4.761  19.752 -1.3182 -0.1733  0.7005
 5330TIP3   OH240184   5.208   3.698  19.296 -0.3242 -0.5065  0.1184
 5330TIP3    H140185   5.120   3.704  19.259 -0.3861 -0.4754  0.2699
 5330TIP3    H240186   5.231   3.788  19.320 -0.6298 -0.6417  0.9473
 5331TIP3   OH240187   3.949   2.064  18.080 -0.2419 -0.2290 -0.2288
 5331TIP3    H140188   3.947   2.149  18.035 -1.8603 -0.7520 -1.2360
 5331TIP3    H240189   3.927   2.084  18.171 -2.1401  0.3106 -0.7552
 5332TIP3   OH240190   3.335   3.772  19.484 -0.0949  0.0421 -0.0710
 5332TIP3    H140191   3.274   3.724  19.427 -1.4652  1.7771 -0.1326
 5332TIP3    H240192   3.286   3.787  19.565  1.1931 -0.7661  0.8986
 5333TIP3   OH240193   0.525   2.050  18.774 -0.3566  0.0444 -0.1420
 5333TIP3    H140194   0.603   2.096  18.744  0.0578 -0.1466  0.6093
 5333TIP3    H240195   0.536   2.044  18.869 -0.4556 -1.4963 -0.2113
 5334TIP3   OH240196   7.550   4.939  19.047 -0.4774 -0.2587  0.3735
 5334TIP3    H140197   7.558   5.034  19.041  1.4490 -0.3525  0.8624
 5334TIP3    H240198   7.627   4.906  18.999 -0.3772 -1.5253  1.3632
 5335TIP3   OH240199   6.282   5.722  17.429 -0.1958  0.0252  0.6339
 5335TIP3    H140200   6.208   5.674  17.393  0.0734 -1.1993  1.6374
 5335TIP3    H240201   6.352   5.711  17.364 -0.9705  1.5567 -0.5255
 5336TIP3   OH240202   1.046   7.330  19.745  0.3519  0.2083  0.7048
 5336TIP3    H140203   1.124   7.280  19.722 -0.2436 -0.5907  0.3351
 5336TIP3    H240204   1.069   7.421  19.729  0.6761 -0.1424 -1.0559
 5337TIP3   OH240205   6.956   5.022  19.080  0.4633 -0.1369 -0.3943
 5337TIP3    H140206   6.908   5.007  19.161  0.9494 -0.8258 -0.2318
 5337TIP3    H240207   6.975   5.116  19.081  0.1320 -0.0687  0.0969
 5338TIP3   OH240208   7.290   1.796  19.498  0.2031  0.2835  0.3240
 5338TIP3    H140209   7.321   1.790  19.588 -0.4814 -0.1219  0.5397
 5338TIP3    H240210   7.350   1.857  19.456  2.7236 -2.1914  0.1053
 5339TIP3   OH240211   5.370   2.251  19.347 -0.0498  0.3875  0.5899
 5339TIP3    H140212   5.401   2.334  19.384 -1.4082  1.2638 -0.1570
 5339TIP3    H240213   5.359   2.270  19.254 -0.6450 -0.5653  0.4606
 5340TIP3   OH240214   0.375   3.978  16.985 -0.6857 -0.1130 -0.5251
 5340TIP3    H140215   0.334   4.049  17.034  0.6343 -0.3913  1.0799
 5340TIP3    H240216   0.331   3.898  17.015  0.5050 -0.3435  0.7143
 5341TIP3   OH240217   3.106   1.363  19.023  0.3245 -0.1081 -0.5103
 5341TIP3    H140218   3.138   1.450  19.046  3.4849 -1.4029  0.5170
 5341TIP3    H240219   3.141   1.347  18.936  0.9647 -0.8271 -0.1389
 5342TIP3   OH240220   5.962   0.937  17.828 -0.1874 -0.1687 -0.4930
 5342TIP3    H140221   5.904   1.008  17.856 -1.3762 -1.3227  0.1075
 5342TIP3    H240222   6.020   0.923  17.903 -0.8013 -0.6516 -0.0875
 5343TIP3   OH240223   4.220   7.498  18.454  0.5759 -0.1754 -0.0356
 5343TIP3    H140224   4.189   7.407  18.460 -0.1468  0.0953  0.5366
 5343TIP3    H240225   4.143   7.551  18.474  0.7701  0.6000 -1.2193
 5344TIP3   OH240226   5.646   5.618  18.086 -0.2003  0.5335  0.0140
 5344TIP3    H140227   5.628   5.568  18.006 -1.8407  2.5688 -0.9807
 5344TIP3    H240228   5.570   5.675  18.097  0.7812  1.5767  2.0595
 5345TIP3   OH240229   5.011   5.716  19.078  0.7455  0.3085 -0.3566
 5345TIP3    H140230   4.934   5.723  19.021  1.3922  0.0148 -1.2872
 5345TIP3    H240231   5.052   5.634  19.051 -0.5335 -1.4606  2.5528
 5346TIP3   OH240232   2.741   0.318  18.361 -0.0707 -0.0701 -0.4125
 5346TIP3    H140233   2.780   0.343  18.444 -1.4064  0.7337  0.0068
 5346TIP3    H240234   2.796   0.359  18.295  1.2657 -1.0814  0.0284
 5347TIP3   OH240235   0.594   6.118  18.490 -0.5808  0.3007 -0.3963
 5347TIP3    H140236   0.541   6.080  18.420 -0.5445  1.2555 -0.9540
 5347TIP3    H240237   0.673   6.150  18.446  0.5775 -1.2388  0.4396
 5348TIP3   OH240238   0.134   3.588  19.297 -0.6317  0.2376  0.3268
 5348TIP3    H140239   0.080   3.657  19.334 -0.8429  0.2561 -0.0081
 5348TIP3    H240240   0.216   3.632  19.272 -0.5724  0.2660  0.5745
 5349TIP3   OH240241   6.881   0.307  18.778 -0.1398  0.6915 -0.2824
 5349TIP3    H140242   6.880   0.349  18.864  1.1689 -0.5398  0.3843
 5349TIP3    H240243   6.854   0.376  18.717 -0.7335  1.6920  1.0626
 5350TIP3   OH240244   7.304   4.896  18.089 -0.5397  0.2082 -0.2252
 5350TIP3    H140245   7.336   4.839  18.158  0.0996 -1.6177 -1.9578
 5350TIP3    H240246   7.369   4.889  18.019 -1.2993  1.7728 -1.1453
 5351TIP3   OH240247   3.783   3.830  17.008  0.2515 -0.6071  0.1974
 5351TIP3    H140248   3.722   3.831  16.934  0.1540 -0.2694  0.2820
 5351TIP3    H240249   3.755   3.755  17.061 -0.5604 -0.0118  0.6286
 5352TIP3   OH240250   5.328   5.411  18.155  0.2328  0.4541 -0.3864
 5352TIP3    H140251   5.268   5.436  18.084 -0.5098 -1.4539 -0.4978
 5352TIP3    H240252   5.314   5.477  18.223  0.0872  1.6405 -1.5363
 5353TIP3   OH240253   6.674   2.263  17.684 -0.6379  0.3215 -0.2270
 5353TIP3    H140254   6.656   2.240  17.775  0.6975 -2.4800 -0.5698
 5353TIP3    H240255   6.603   2.323  17.660 -3.1686 -1.7455  1.5617
 5354TIP3   OH240256   3.481   1.808  18.506 -0.6110  0.5075 -0.2728
 5354TIP3    H140257   3.541   1.831  18.577 -1.0853  0.6038  0.1045
 5354TIP3    H240258   3.483   1.883  18.447 -0.9255  0.8390  0.1276
 5355TIP3   OH240259   6.015   1.045  19.238  0.1726  0.4223  0.0242
 5355TIP3    H140260   5.924   1.064  19.262  0.0292 -0.0781 -0.1178
 5355TIP3    H240261   6.017   0.950  19.224  0.2889  0.6747 -1.8151
 5356TIP3   OH240262   1.438   2.641  18.578  0.3830  0.0880  0.9461
 5356TIP3    H140263   1.409   2.719  18.530 -0.4009  0.4284  1.9204
 5356TIP3    H240264   1.480   2.586  18.512 -1.9406 -0.1372 -0.4584
 5357TIP3   OH240265   5.040   3.495  19.091 -0.0954  0.1807 -0.0844
 5357TIP3    H140266   5.052   3.475  18.998  1.3944  3.7029 -0.8044
 5357TIP3    H240267   5.122   3.535  19.118 -0.6902 -0.2585  2.6725
 5358TIP3   OH240268   5.308   4.075  16.711  0.3107 -0.2456  0.4152
 5358TIP3    H140269   5.220   4.110  16.725 -0.3441 -2.0404  1.0661
 5358TIP3    H240270   5.343   4.127  16.639 -1.6874 -0.1523 -0.5730
 5359TIP3   OH240271   1.459   7.304  16.946 -0.3905  0.0313 -0.1117
 5359TIP3    H140272   1.483   7.390  16.980 -0.0046 -0.7424  1.7216
 5359TIP3    H240273   1.366   7.311  16.925 -0.1700  1.1161 -0.7600
 5360TIP3   OH240274   0.685   1.481  19.347  0.4844  0.0524 -0.4638
 5360TIP3    H140275   0.593   1.466  19.322  0.1332  0.2883  0.6079
 5360TIP3    H240276   0.725   1.395  19.342 -0.6586 -0.7747  2.2892
 5361TIP3   OH240277   0.817   5.687  17.542 -0.1672 -0.5682 -0.0225
 5361TIP3    H140278   0.852   5.641  17.466 -0.3223 -1.3735  0.3803
 5361TIP3    H240279   0.724   5.663  17.544 -0.3589  0.1495 -0.0796
 5362TIP3   OH240280   4.713   2.879  18.720  0.1510 -0.1878 -0.2830
 5362TIP3    H140281   4.649   2.812  18.743  0.9495 -0.9192 -0.1223
 5362TIP3    H240282   4.689   2.955  18.772  0.0761 -0.8173  0.6264
 5363TIP3   OH240283   7.208   7.465  19.486 -0.5735  0.1826  0.1965
 5363TIP3    H140284   7.130   7.480  19.434 -0.5221  0.7465  0.2777
 5363TIP3    H240285   7.260   7.403  19.435 -0.4875  0.7836 -0.4549
 5364TIP3   OH240286   3.421   5.538  18.712 -0.0715 -0.1687  0.0377
 5364TIP3    H140287   3.459   5.625  18.700 -0.8437  0.2594  0.6148
 5364TIP3    H240288   3.446   5.490  18.633 -1.3062  1.1897 -1.2474
 5365TIP3   OH240289   1.050   2.913  19.255  0.5316  0.4110 -0.7860
 5365TIP3    H140290   1.109   2.952  19.191  1.5580 -0.9986 -0.7231
 5365TIP3    H240291   1.108   2.870  19.318 -0.5319 -0.1125 -0.1398
 5366TIP3   OH240292   1.747   0.932  18.072  0.4149 -0.1660 -0.2509
 5366TIP3    H140293   1.673   0.926  18.011 -0.9396  0.0663  1.3043
 5366TIP3    H240294   1.823   0.906  18.020 -0.9265 -1.6516 -1.5704
 5367TIP3   OH240295   3.618   0.006  18.897 -0.0995 -0.1330  0.0338
 5367TIP3    H140296   3.557   0.071  18.863  0.1618  0.0265 -0.1341
 5367TIP3    H240297   3.663   0.050  18.969  0.1494 -0.0928 -0.1454
 5368TIP3   OH240298   7.166   6.307  17.441  0.2126 -0.4691  0.0022
 5368TIP3    H140299   7.261   6.316  17.451  0.7189 -1.2741 -2.9197
 5368TIP3    H240300   7.143   6.372  17.375 -1.0936 -0.9618 -0.0459
 5369TIP3   OH240301   5.548   0.015  19.447  0.4381  0.0119 -0.1824
 5369TIP3    H140302   5.564   0.098  19.492 -0.0197 -0.6260  1.1779
 5369TIP3    H240303   5.631  -0.005  19.404  0.9310  0.5426  0.5116
 5370TIP3   OH240304   3.190   7.632  19.274 -0.6996 -0.1107 -0.0726
 5370TIP3    H140305   3.170   7.717  19.313 -1.1953 -0.5149  0.5676
 5370TIP3    H240306   3.209   7.652  19.182  1.8573  1.0481  0.6169
 5371TIP3   OH240307   1.701   1.231  18.654 -0.3676  0.0620 -0.0911
 5371TIP3    H140308   1.726   1.287  18.581 -0.4538  1.8937  1.2159
 5371TIP3    H240309   1.781   1.183  18.676  0.0529  0.5685 -0.4764
 5372TIP3   OH240310   1.943   1.483  19.258 -0.4857 -0.5098  0.6971
 5372TIP3    H140311   1.897   1.439  19.329 -0.7802 -0.1965  0.7072
 5372TIP3    H240312   2.028   1.441  19.253 -0.1823 -0.0425  1.7242
 5373TIP3   OH240313   1.932   1.939  19.732 -0.3372 -0.3441  0.3701
 5373TIP3    H140314   1.964   1.921  19.821 -2.4645 -0.9539  1.0734
 5373TIP3    H240315   1.926   2.034  19.728 -0.7694 -0.3367  1.0917
 5374TIP3   OH240316   0.505   2.500  19.290 -0.4735 -0.1586  0.1927
 5374TIP3    H140317   0.461   2.578  19.325 -0.6603 -1.7999  4.2185
 5374TIP3    H240318   0.596   2.526  19.280  0.0727  0.1045  4.1491
 5375TIP3   OH240319   3.352   3.272  17.338  0.0878 -0.2765  0.4477
 5375TIP3    H140320   3.287   3.237  17.400 -0.0703 -0.8748 -0.0441
 5375TIP3    H240321   3.415   3.318  17.393  0.0322 -0.9292  1.0761
 5376TIP3   OH240322   6.980   4.951  18.390  0.3984  0.1979 -0.8410
 5376TIP3    H140323   6.945   5.019  18.448 -0.0951 -0.0034 -0.9020
 5376TIP3    H240324   7.013   4.999  18.314  0.1922  0.3867 -0.8129
 5377TIP3   OH240325   0.799   7.599  17.460  0.1544 -0.1286 -0.2842
 5377TIP3    H140326   0.817   7.583  17.367 -1.1170  1.0438 -0.7603
 5377TIP3    H240327   0.729   7.663  17.460  1.5742  1.5365  1.5166
 5378TIP3   OH240328   7.621   0.426  17.349  0.7627 -0.1978  0.3869
 5378TIP3    H140329   7.640   0.494  17.414  3.4671  0.9948 -1.4302
 5378TIP3    H240330   7.615   0.474  17.266 -0.5628 -1.8790 -0.5560
 5379TIP3   OH240331   6.615   3.064  18.147  0.5847 -0.0791 -0.4750
 5379TIP3    H140332   6.566   3.132  18.102  0.0392 -1.3261 -1.8265
 5379TIP3    H240333   6.593   2.984  18.101  0.4608 -1.3546  1.6724
 5380TIP3   OH240334   5.248   6.211  18.514  0.2477 -0.2904  0.1950
 5380TIP3    H140335   5.255   6.116  18.512 -0.4033 -0.3577  0.7297
 5380TIP3    H240336   5.224   6.232  18.605 -1.8786  0.2001 -0.4176
 5381TIP3   OH240337   4.767   3.796  19.122  0.0392  0.3776  0.0980
 5381TIP3    H140338   4.763   3.817  19.029  0.4775  0.3248  0.0662
 5381TIP3    H240339   4.683   3.825  19.157  0.0482  0.7978 -0.2289
 5382TIP3   OH240340   7.325   5.593  18.122 -0.3267 -0.4546 -0.7057
 5382TIP3    H140341   7.300   5.500  18.122 -2.0001 -0.0621 -2.5863
 5382TIP3    H240342   7.298   5.624  18.209 -1.7395 -1.2566 -0.8263
 5383TIP3   OH240343   2.232   6.439  19.469  0.2248  0.3517 -0.4007
 5383TIP3    H140344   2.293   6.490  19.416  0.6053  0.7519  0.4013
 5383TIP3    H240345   2.252   6.464  19.559 -0.7892  0.1083 -0.0953
 5384TIP3   OH240346   4.020   3.698  17.175  0.1266 -0.0195 -0.1840
 5384TIP3    H140347   4.066   3.625  17.134  1.9238  0.0398  1.6029
 5384TIP3    H240348   3.930   3.690  17.143  1.0311 -0.9304 -2.7328
 5385TIP3   OH240349   6.192   3.517  19.154 -0.1480  0.3728 -0.3910
 5385TIP3    H140350   6.129   3.508  19.082 -1.3411 -0.2257  0.6897
 5385TIP3    H240351   6.241   3.596  19.133 -0.4579  0.2083 -1.8707
 5386TIP3   OH240352   4.237   1.301  18.604  0.1582 -0.7363  0.1684
 5386TIP3    H140353   4.303   1.308  18.534  0.1302  0.3047  0.2285
 5386TIP3    H240354   4.287   1.303  18.685  0.0846 -0.2629  0.2075
 5387TIP3   OH240355   0.872   2.809  19.412  0.2102 -0.4634 -0.3757
 5387TIP3    H140356   0.938   2.830  19.346  0.8741 -0.8854  0.1438
 5387TIP3    H240357   0.912   2.834  19.495 -0.5213 -0.1675 -0.1022
 5388TIP3   OH240358   3.717   4.064  19.741  0.1195 -0.7276 -0.0901
 5388TIP3    H140359   3.760   3.985  19.774 -0.0592 -0.6848  0.2461
 5388TIP3    H240360   3.786   4.109  19.692  0.7389 -0.1830  1.2405
 5389TIP3   OH240361   4.592   0.117  19.449  0.0342  0.0165  0.0797
 5389TIP3    H140362   4.538   0.040  19.463 -0.7677 -0.0762 -2.8373
 5389TIP3    H240363   4.532   0.191  19.455 -0.2075  0.0162 -1.7102
 5390TIP3   OH240364   1.199   1.792  18.462  0.0258  0.4149 -1.0943
 5390TIP3    H140365   1.186   1.718  18.404  0.0712 -0.5657  0.0951
 5390TIP3    H240366   1.124   1.789  18.522  1.1590 -0.0654  0.3724
 5391TIP3   OH240367   5.690   1.040  12.077  0.0431  0.8291  0.0414
 5391TIP3    H140368   5.708   1.052  11.984  0.8237 -0.3885  0.0123
 5391TIP3    H240369   5.768   1.073  12.121  0.3263 -0.0109  0.1773
 5392TIP3   OH240370   2.552   1.943  12.992 -0.7277  0.1222  0.2471
 5392TIP3    H140371   2.509   1.858  12.996 -0.3215 -0.0380  1.8151
 5392TIP3    H240372   2.504   1.991  12.924 -1.1493 -1.2299 -0.4546
 5393TIP3   OH240373   1.944   6.252  11.214  0.4044 -0.1907  0.2932
 5393TIP3    H140374   1.895   6.334  11.222  0.1049 -0.3642  0.2495
 5393TIP3    H240375   1.894   6.188  11.264 -0.0329 -0.6344 -0.6872
 5394TIP3   OH240376   6.608   3.338  12.639 -0.0876 -0.1311  0.5337
 5394TIP3    H140377   6.553   3.323  12.562  0.9539 -0.3909 -0.1956
 5394TIP3    H240378   6.691   3.370  12.602  0.5367 -0.5570  1.5307
 5395TIP3   OH240379   0.313   0.231  11.462 -0.1818  0.0303  0.2961
 5395TIP3    H140380   0.406   0.245  11.443 -0.1172 -0.9355 -0.1694
 5395TIP3    H240381   0.309   0.219  11.557  0.2955 -0.7897  0.2202
 5396TIP3   OH240382   0.588   5.898  10.936 -0.9019 -0.0829 -0.1636
 5396TIP3    H140383   0.541   5.907  10.852  0.8032  1.8270 -0.9909
 5396TIP3    H240384   0.625   5.810  10.932 -1.3833 -0.2696 -1.1237
 5397TIP3   OH240385   3.824   1.050  11.682 -0.1061  0.4860  0.2306
 5397TIP3    H140386   3.732   1.040  11.705 -0.4221  2.6253  0.1232
 5397TIP3    H240387   3.871   1.033  11.763 -0.6481  0.2869  0.5116
 5398TIP3   OH240388   2.684   0.522  11.641  0.4733 -0.0522  0.1730
 5398TIP3    H140389   2.768   0.486  11.669  0.5893 -0.9647 -1.2469
 5398TIP3    H240390   2.706   0.585  11.572 -0.0110 -0.6877 -0.5883
 5399TIP3   OH240391   7.026   6.221  11.724  0.1153  0.3378 -0.6715
 5399TIP3    H140392   6.991   6.309  11.707 -0.4574  0.4028  0.7345
 5399TIP3    H240393   7.083   6.232  11.799 -0.7030 -0.6431  0.1297
 5400TIP3   OH240394   4.327   0.075  11.993 -0.3627 -0.4190  0.2771
 5400TIP3    H140395   4.310   0.031  12.076 -1.2467 -1.0447 -0.2185
 5400TIP3    H240396   4.304   0.010  11.926 -0.0020  0.1960 -0.4557
 5401TIP3   OH240397   1.776   4.194  11.181  0.0412 -0.1460  0.3048
 5401TIP3    H140398   1.732   4.276  11.204  1.7999  1.3666 -1.3734
 5401TIP3    H240399   1.853   4.191  11.237  0.9159  0.2770 -0.8431
 5402TIP3   OH240400   3.855   4.131  12.448  0.2854 -0.3358  0.4864
 5402TIP3    H140401   3.921   4.194  12.418 -2.0077  2.7471  1.3259
 5402TIP3    H240402   3.806   4.110  12.369  0.4157 -0.1990  0.3667
 5403TIP3   OH240403   1.611   6.332  11.522 -0.2094 -0.3195 -0.1023
 5403TIP3    H140404   1.638   6.241  11.535  0.3526 -0.0595  0.6152
 5403TIP3    H240405   1.693   6.379  11.507 -0.2580  0.3988  1.5959
 5404TIP3   OH240406   4.862   4.976  12.740 -0.1548 -0.2867 -0.0946
 5404TIP3    H140407   4.819   4.897  12.706  0.7790 -0.6662 -0.4157
 5404TIP3    H240408   4.849   5.042  12.672  0.9216 -0.7880 -0.8118
 5405TIP3   OH240409   0.839   3.215  13.016  0.4568 -0.5676  0.4318
 5405TIP3    H140410   0.748   3.200  13.042  0.6204 -0.3921  1.1313
 5405TIP3    H240411   0.886   3.221  13.099  1.2899 -1.7609  0.0686
 5406TIP3   OH240412   1.922   4.195  12.602 -0.5650 -0.0449  0.0420
 5406TIP3    H140413   1.886   4.111  12.631  0.6166 -0.5357  0.1762
 5406TIP3    H240414   2.007   4.201  12.647 -0.0469  0.6001 -0.9773
 5407TIP3   OH240415   0.961   5.430  11.069 -0.6442  0.5689  0.5254
 5407TIP3    H140416   0.932   5.521  11.076 -1.7940  0.2301  0.3003
 5407TIP3    H240417   0.886   5.378  11.098 -0.4394 -0.3458 -0.5116
 5408TIP3   OH240418   3.329   5.749  12.076  0.0006 -0.2918 -0.2594
 5408TIP3    H140419   3.362   5.831  12.038  1.1375 -0.1807  0.9187
 5408TIP3    H240420   3.246   5.735  12.032  0.0101  1.2437 -0.8392
 5409TIP3   OH240421   4.474   2.629  11.527 -0.1390 -0.3192 -0.3859
 5409TIP3    H140422   4.393   2.661  11.487 -1.0183 -0.2957  1.3031
 5409TIP3    H240423   4.520   2.708  11.554  0.5925 -0.3244 -1.5450
 5410TIP3   OH240424   5.277   1.193  11.458  0.1506 -0.0205 -0.2223
 5410TIP3    H140425   5.215   1.120  11.447  0.0482  0.0892 -0.3820
 5410TIP3    H240426   5.316   1.205  11.371  0.5159 -0.1942 -0.0843
 5411TIP3   OH240427   4.220   3.117  12.206 -0.2248 -0.5543  0.1768
 5411TIP3    H140428   4.253   3.207  12.204 -1.6877  0.0052  0.2700
 5411TIP3    H240429   4.127   3.125  12.187 -0.5949 -1.9502  1.2669
 5412TIP3   OH240430   2.609   6.564  11.922 -0.0568  0.0256  0.2060
 5412TIP3    H140431   2.652   6.505  11.860  1.1687  0.7681  0.3081
 5412TIP3    H240432   2.673   6.634  11.936 -1.9594  2.1047 -0.9648
 5413TIP3   OH240433   2.311   5.934  11.971  0.6928 -0.2248  0.2685
 5413TIP3    H140434   2.329   5.855  12.021  0.3795 -1.0862 -0.9389
 5413TIP3    H240435   2.306   6.003  12.037  1.8761 -1.0377  1.2633
 5414TIP3   OH240436   6.562   5.804  11.343 -0.2703 -0.0980  0.0604
 5414TIP3    H140437   6.602   5.734  11.395 -0.7336 -0.0074  0.5447
 5414TIP3    H240438   6.523   5.758  11.268 -0.9552 -0.4239  0.6012
 5415TIP3   OH240439   5.984   6.185  13.040 -0.2289 -0.1111  0.0642
 5415TIP3    H140440   6.023   6.216  13.122  1.1885 -0.7911 -0.3170
 5415TIP3    H240441   5.908   6.134  13.067 -0.6824  0.9338  0.8570
 5416TIP3   OH240442   5.580   7.509  10.753 -0.2731 -0.4926  0.6715
 5416TIP3    H140443   5.654   7.484  10.698 -0.4815 -0.7422  0.5024
 5416TIP3    H240444   5.578   7.444  10.823 -0.4649 -0.6134  0.5543
 5417TIP3   OH240445   5.145   7.357  12.524  0.5892 -0.1323  0.3896
 5417TIP3    H140446   5.089   7.401  12.460  2.6422  2.2362  0.0656
 5417TIP3    H240447   5.131   7.405  12.606  2.3958  0.7913  0.1975
 5418TIP3   OH240448   1.261   2.922  11.089 -0.3902  0.6965  0.4654
 5418TIP3    H140449   1.280   2.939  10.997  0.4384 -1.0185  0.2818
 5418TIP3    H240450   1.301   2.837  11.107 -1.1493  0.6596  2.2321
 5419TIP3   OH240451   4.375   1.484  12.728  0.3929  0.1304  0.1141
 5419TIP3    H140452   4.316   1.548  12.768 -2.0688 -0.8607 -1.6306
 5419TIP3    H240453   4.405   1.430  12.801 -1.2524  0.4151  1.0486
 5420TIP3   OH240454   7.268   0.585  11.277  0.1450 -0.7126  0.1623
 5420TIP3    H140455   7.285   0.513  11.338  0.0056 -0.5507  0.3938
 5420TIP3    H240456   7.177   0.572  11.249  0.3957 -1.1291 -0.4716
 5421TIP3   OH240457   3.171   1.508  12.262 -0.2595  0.1915 -0.6833
 5421TIP3    H140458   3.255   1.553  12.270  0.2044 -0.6317 -0.7653
 5421TIP3    H240459   3.145   1.489  12.352 -0.9210  1.4225 -0.5924
 5422TIP3   OH240460   2.482   3.059  11.988 -0.5271  0.0343  0.2537
 5422TIP3    H140461   2.518   3.110  12.061  0.6081  0.6545 -0.6987
 5422TIP3    H240462   2.524   2.974  11.994  0.1737  0.3394 -0.0989
 5423TIP3   OH240463   3.358   7.430  13.558 -0.1005 -0.0743 -0.2297
 5423TIP3    H140464   3.350   7.501  13.621  2.5473 -0.5225  0.7298
 5423TIP3    H240465   3.348   7.472  13.472 -0.7349  1.0519  0.3799
 5424TIP3   OH240466   3.932   4.311  13.502 -0.0952 -0.0714 -0.5207
 5424TIP3    H140467   3.858   4.358  13.542 -0.2353 -0.2719 -0.5436
 5424TIP3    H240468   3.891   4.249  13.442  0.1213  0.4411 -1.2171
 5425TIP3   OH240469   1.892   2.969  11.448 -0.3220 -0.9560  0.1091
 5425TIP3    H140470   1.878   3.037  11.514 -0.8166 -1.5779  0.6502
 5425TIP3    H240471   1.987   2.959  11.445 -0.2709 -0.5777  0.3688
 5426TIP3   OH240472   1.728   7.588  11.476 -0.0044  0.4464  0.0071
 5426TIP3    H140473   1.769   7.612  11.393  1.3241  2.4549  1.1401
 5426TIP3    H240474   1.646   7.637  11.477  0.7632  1.7820  0.5365
 5427TIP3   OH240475   5.066   1.203  12.698  0.2945  0.0246 -0.2120
 5427TIP3    H140476   5.160   1.211  12.684  0.6574  2.0135  2.5497
 5427TIP3    H240477   5.026   1.223  12.613  2.3199 -0.6020 -1.3588
 5428TIP3   OH240478   4.828   4.770  10.873 -0.2727 -0.5349  0.1371
 5428TIP3    H140479   4.875   4.847  10.841 -0.6259 -0.5693 -0.4851
 5428TIP3    H240480   4.897   4.708  10.895  0.0381  0.1545  1.1862
 5429TIP3   OH240481   2.582   7.574  12.058  0.2382  0.1909 -0.0564
 5429TIP3    H140482   2.605   7.663  12.082  1.4980 -0.1960  0.2681
 5429TIP3    H240483   2.576   7.575  11.962  0.7486  0.5212 -0.0877
 5430TIP3   OH240484   0.845   6.949  13.265  0.0399 -0.1874 -0.0646
 5430TIP3    H140485   0.800   7.015  13.317 -0.2293  0.1923 -0.7694
 5430TIP3    H240486   0.796   6.944  13.183  1.1077  0.0412 -0.7455
 5431TIP3   OH240487   3.138   4.160  13.269  0.5811  0.4630 -0.1105
 5431TIP3    H140488   3.210   4.112  13.228 -0.2481 -1.0679  0.1123
 5431TIP3    H240489   3.120   4.110  13.349  0.6194  2.0237  0.9065
 5432TIP3   OH240490   5.494   1.645  13.397  0.6445 -0.5047  0.3470
 5432TIP3    H140491   5.448   1.561  13.391  0.8112 -0.5860  0.1884
 5432TIP3    H240492   5.505   1.660  13.491 -0.1506 -0.2426  0.4044
 5433TIP3   OH240493   6.261   3.346  12.407  0.2026  0.6310 -0.3472
 5433TIP3    H140494   6.322   3.406  12.452  1.2981  0.3318 -1.3955
 5433TIP3    H240495   6.275   3.262  12.449  2.7937 -0.1644 -2.5134
 5434TIP3   OH240496   7.583   0.371  12.421 -0.0158 -0.3320  0.7595
 5434TIP3    H140497   7.594   0.315  12.498  0.4446 -0.0003  0.9443
 5434TIP3    H240498   7.612   0.317  12.348 -2.5419 -1.4472  0.4805
 5435TIP3   OH240499   0.589   2.115  11.867 -0.2879 -0.2672  0.5686
 5435TIP3    H140500   0.576   2.119  11.772 -0.0389  1.0710  0.5751
 5435TIP3    H240501   0.682   2.134  11.879 -0.5286  0.6053  1.1340
 5436TIP3   OH240502   3.012   6.276  11.527 -0.7907  0.3832  0.0763
 5436TIP3    H140503   2.960   6.197  11.511 -1.1104  0.5818  0.1420
 5436TIP3    H240504   3.102   6.249  11.507 -1.0009  0.2242 -0.7024
 5437TIP3   OH240505   4.147   2.281  11.026 -0.0203  0.1249 -0.6738
 5437TIP3    H140506   4.052   2.293  11.031  0.0350  0.9217 -1.2683
 5437TIP3    H240507   4.161   2.232  10.945  0.0658 -0.1284 -0.5061
 5438TIP3   OH240508   2.332   6.809  11.503 -0.1539  0.4747  0.5662
 5438TIP3    H140509   2.317   6.730  11.555  0.9053  0.2370  0.5483
 5438TIP3    H240510   2.358   6.875  11.567 -0.8778  0.7720  0.5618
 5439TIP3   OH240511   3.654   4.560  12.279 -0.2972 -0.6113  0.0723
 5439TIP3    H140512   3.745   4.553  12.251  0.0791  0.1475  1.0577
 5439TIP3    H240513   3.649   4.510  12.360 -0.7945 -0.7706 -0.0525
 5440TIP3   OH240514   1.243   2.881  12.023  0.1153 -0.2115 -0.1067
 5440TIP3    H140515   1.180   2.814  11.996 -0.1657  0.5253 -1.3484
 5440TIP3    H240516   1.329   2.841  12.007  0.1068 -1.7499  2.8445
 5441TIP3   OH240517   5.319   4.955  12.419 -0.3172  0.3260 -0.4218
 5441TIP3    H140518   5.392   4.894  12.413 -1.1362 -0.8935  1.0731
 5441TIP3    H240519   5.306   4.986  12.329  2.1800  0.8240 -0.6712
 5442TIP3   OH240520   4.334   5.894  11.783  0.4397 -0.2161 -0.0848
 5442TIP3    H140521   4.306   5.972  11.735  0.3939 -0.1783  0.0023
 5442TIP3    H240522   4.382   5.929  11.859 -0.5725 -0.2398  0.5875
 5443TIP3   OH240523   0.091   0.221  11.990  0.3546  0.3236  0.5116
 5443TIP3    H140524   0.013   0.234  12.044  0.7293  1.9941  0.7211
 5443TIP3    H240525   0.119   0.131  12.008 -1.4592 -0.2752  0.4834
 5444TIP3   OH240526   0.470   5.971  12.129 -0.2403 -0.4544  0.5163
 5444TIP3    H140527   0.402   5.911  12.159  0.2749  0.1972  3.2599
 5444TIP3    H240528   0.552   5.922  12.139 -0.0955 -0.5427 -0.8618
 5445TIP3   OH240529   6.013   3.218  11.827  0.0314  0.3954 -0.3216
 5445TIP3    H140530   6.081   3.160  11.864 -0.7102  0.3711  1.0834
 5445TIP3    H240531   6.032   3.304  11.865  0.0362  0.6802 -0.9571
 5446TIP3   OH240532   1.558   7.606  12.599 -0.6232 -0.1620 -0.1758
 5446TIP3    H140533   1.649   7.637  12.590 -0.8510  0.4454 -0.4526
 5446TIP3    H240534   1.557   7.560  12.683 -0.2620  0.5525  0.2281
 5447TIP3   OH240535   4.269   7.644  11.726 -0.1382 -0.1593  0.0368
 5447TIP3    H140536   4.344   7.645  11.666  0.2987  1.2013  0.5538
 5447TIP3    H240537   4.222   7.563  11.705  0.2164  0.0751 -1.8595
 5448TIP3   OH240538   5.154   7.370  12.843 -0.1249  0.1089  0.2700
 5448TIP3    H140539   5.135   7.399  12.932  0.9370 -0.4040  0.6903
 5448TIP3    H240540   5.189   7.281  12.854 -1.3165 -0.5355 -0.7917
 5449TIP3   OH240541   4.885   5.966  11.239 -0.0216  0.1964 -0.0645
 5449TIP3    H140542   4.957   6.000  11.186  1.2583 -0.7809  0.9570
 5449TIP3    H240543   4.882   5.873  11.219 -1.9286  0.4327 -1.0799
 5450TIP3   OH240544   5.423   0.497  11.775 -0.1055  0.0092  0.5168
 5450TIP3    H140545   5.382   0.484  11.860  1.3876 -1.4953  1.0722
 5450TIP3    H240546   5.433   0.592  11.766 -0.2242  0.1811  2.0535
 5451TIP3   OH240547   6.711   5.228  13.022 -0.5226  0.7576 -0.0280
 5451TIP3    H140548   6.710   5.171  12.945  0.0757 -1.5741  1.5720
 5451TIP3    H240549   6.622   5.261  13.029 -0.9180 -0.0471 -0.9906
 5452TIP3   OH240550   1.166   4.250  13.037  0.6617  0.0262  0.7899
 5452TIP3    H140551   1.176   4.158  13.011  0.6623  0.6427 -1.5339
 5452TIP3    H240552   1.077   4.272  13.011  1.4128  1.3149 -0.8012
 5453TIP3   OH240553   5.379   6.438  11.823 -0.1468  0.0426  0.3263
 5453TIP3    H140554   5.374   6.343  11.816 -0.4401 -0.0431  1.5476
 5453TIP3    H240555   5.369   6.456  11.916  0.5589  1.2330  0.1953
 5454TIP3   OH240556   0.570   5.071  11.511 -0.3260 -0.1304 -0.0830
 5454TIP3    H140557   0.510   5.027  11.451  1.1369 -0.6038 -1.2614
 5454TIP3    H240558   0.581   5.010  11.584 -1.9893  0.3832  0.6527
 5455TIP3   OH240559   0.609   2.513  13.631 -0.2370 -0.1503 -0.2872
 5455TIP3    H140560   0.688   2.525  13.578  0.1559  2.8469  0.7940
 5455TIP3    H240561   0.641   2.488  13.717 -0.5108  0.1867 -0.0841
 5456TIP3   OH240562   4.069   1.159  13.353  0.7207 -0.3492 -0.1616
 5456TIP3    H140563   3.999   1.220  13.330  1.2495  0.3709  0.0723
 5456TIP3    H240564   4.142   1.216  13.377 -0.0235 -0.9401  4.2143
 5457TIP3   OH240565   1.288   0.682  11.845 -0.0115  0.5029  0.1156
 5457TIP3    H140566   1.372   0.640  11.862 -0.3764  0.9519  4.0384
 5457TIP3    H240567   1.309   0.774  11.830  0.2531  0.7513  1.7895
 5458TIP3   OH240568   3.132   7.556  13.287  0.3813  0.2373  0.1593
 5458TIP3    H140569   3.108   7.609  13.364 -3.0359 -1.5710  0.5558
 5458TIP3    H240570   3.226   7.542  13.296  0.8416  3.4209  1.7767
 5459TIP3   OH240571   0.533   3.360  12.457 -0.4580  0.1712 -0.1993
 5459TIP3    H140572   0.562   3.348  12.547  0.7954  0.9929 -0.4635
 5459TIP3    H240573   0.510   3.272  12.428 -2.8580  0.1393  1.5107
 5460TIP3   OH240574   7.572   4.133  11.433  0.0416 -0.2173  0.4139
 5460TIP3    H140575   7.584   4.198  11.363 -1.0231  0.5400  0.9280
 5460TIP3    H240576   7.586   4.182  11.514 -0.8849 -0.5887  0.8081
 5461TIP3   OH240577   3.669   5.451  11.905  0.1829 -0.3832 -0.1721
 5461TIP3    H140578   3.589   5.450  11.852  0.2977 -0.9213 -0.3373
 5461TIP3    H240579   3.729   5.508  11.857 -0.2594  0.4114  0.1954
 5462TIP3   OH240580   1.426   5.952  11.140 -0.4597  0.0418  0.0367
 5462TIP3    H140581   1.447   5.933  11.231 -1.6280 -0.3366  0.2396
 5462TIP3    H240582   1.406   5.866  11.102 -0.0995  0.2111 -0.5510
 5463TIP3   OH240583   1.250   4.234  13.296  0.6866 -0.2553 -0.6011
 5463TIP3    H140584   1.332   4.186  13.312  1.3497  0.8204 -0.6569
 5463TIP3    H240585   1.240   4.233  13.201 -0.3871 -1.9882 -0.5201
 5464TIP3   OH240586   1.561   2.873  11.247  0.0803 -0.0675 -1.0155
 5464TIP3    H140587   1.509   2.952  11.230 -0.2819 -0.5178 -2.0455
 5464TIP3    H240588   1.508   2.801  11.213  0.3637 -0.7802  0.0049
 5465TIP3   OH240589   4.575   5.891  12.419  0.1414  0.0542 -0.1202
 5465TIP3    H140590   4.522   5.849  12.486 -0.2826  1.1555  0.2665
 5465TIP3    H240591   4.643   5.938  12.467  1.3269 -1.1045 -0.6034
 5466TIP3   OH240592   4.911   2.948  12.157 -0.3887 -0.1609  0.1290
 5466TIP3    H140593   4.944   2.937  12.246 -0.2853  0.6677  0.2017
 5466TIP3    H240594   4.862   2.867  12.139 -1.0325 -0.0185  1.2121
 5467TIP3   OH240595   3.367   1.388  11.269  0.4560 -0.2538  0.0740
 5467TIP3    H140596   3.289   1.444  11.275  0.1469 -0.7615  1.0156
 5467TIP3    H240597   3.437   1.441  11.307  1.2265  1.2534 -3.1443
 5468TIP3   OH240598   3.654   1.039  10.896 -0.2217 -0.0677 -0.2765
 5468TIP3    H140599   3.639   1.094  10.973 -2.8259 -1.4412  0.3068
 5468TIP3    H240600   3.601   1.079  10.827 -0.1159 -0.3968 -0.5531
 5469TIP3   OH240601   6.378   4.772  10.840  0.3519 -0.5719  0.0362
 5469TIP3    H140602   6.462   4.754  10.883  0.6311 -0.0870 -0.2965
 5469TIP3    H240603   6.385   4.863  10.811 -0.0491 -0.7150 -0.5342
 5470TIP3   OH240604   1.601   5.572  12.372  0.0244  0.3576  0.6516
 5470TIP3    H140605   1.674   5.542  12.317  0.8066 -0.2620  1.9700
 5470TIP3    H240606   1.610   5.667  12.374 -0.4624  0.4577 -0.8614
 5471TIP3   OH240607   7.586   2.426  12.244 -0.2000 -0.3420 -0.1935
 5471TIP3    H140608   7.564   2.519  12.247  0.4314 -0.1513 -0.9767
 5471TIP3    H240609   7.539   2.392  12.168 -0.6939 -0.7480  0.2819
 5472TIP3   OH240610   5.438   3.563  11.588  0.2740 -0.0784 -0.2758
 5472TIP3    H140611   5.363   3.580  11.531  0.3913 -0.5394 -0.5762
 5472TIP3    H240612   5.399   3.537  11.671  0.0969  1.2807  0.0829
 5473TIP3   OH240613   3.472   3.519  12.464  0.3061  0.2251 -0.0538
 5473TIP3    H140614   3.556   3.475  12.474  0.0097 -0.2763  0.2491
 5473TIP3    H240615   3.488   3.608  12.494  0.6467  0.0454  0.3092
 5474TIP3   OH240616   1.483   0.783  12.999 -0.2064 -0.7089 -0.1685
 5474TIP3    H140617   1.519   0.739  13.077 -0.6192 -1.2119 -0.2548
 5474TIP3    H240618   1.393   0.751  12.994  0.0899 -1.3880 -1.3821
 5475TIP3   OH240619   0.144   6.013  11.076  0.0542 -0.4292  0.1047
 5475TIP3    H140620   0.051   6.013  11.096 -0.2017 -0.6199 -1.0154
 5475TIP3    H240621   0.169   5.921  11.077  0.8797 -0.2867  3.0664
 5476TIP3   OH240622   2.294   0.313  10.979 -0.0941  0.3551 -0.1429
 5476TIP3    H140623   2.216   0.261  10.962 -2.1895  2.0572  3.1492
 5476TIP3    H240624   2.363   0.249  10.995 -1.4991 -1.2872 -0.4034
 5477TIP3   OH240625   0.778   0.181  11.984  0.2165  0.2615 -0.0160
 5477TIP3    H140626   0.756   0.120  11.914  3.0766  0.5254 -1.3274
 5477TIP3    H240627   0.733   0.262  11.961  0.4181  0.0790 -1.0933
 5478TIP3   OH240628   3.351   6.841  13.378 -0.1228 -0.4192  0.2023
 5478TIP3    H140629   3.300   6.850  13.459  0.5431  0.6727  0.5258
 5478TIP3    H240630   3.396   6.757  13.388  0.0342 -0.2492  1.0272
 5479TIP3   OH240631   5.554   6.431  12.906 -0.0747  0.3532  0.5793
 5479TIP3    H140632   5.529   6.514  12.946 -0.0808  0.0929  1.1211
 5479TIP3    H240633   5.649   6.426  12.918  0.0245  0.5844 -0.0414
 5480TIP3   OH240634   1.329   0.825  11.016  0.5715 -0.2934  0.4411
 5480TIP3    H140635   1.280   0.743  11.029  0.1841 -0.0237  0.7081
 5480TIP3    H240636   1.416   0.797  10.987 -0.0415 -0.7593 -1.0458
 5481TIP3   OH240637   1.396   2.776  10.745  0.5551  0.3147 -0.6838
 5481TIP3    H140638   1.391   2.869  10.723  0.0741  0.6397  0.7072
 5481TIP3    H240639   1.481   2.766  10.788  0.5365  0.1558 -0.6847
 5482TIP3   OH240640   2.551   1.157  13.326  0.5310  0.1727  0.6666
 5482TIP3    H140641   2.555   1.164  13.230  0.5006 -0.9365  0.5679
 5482TIP3    H240642   2.530   1.245  13.355 -2.0955  0.0728 -0.5205
 5483TIP3   OH240643   2.276   4.123  12.364 -0.6266 -0.4037 -0.2102
 5483TIP3    H140644   2.216   4.048  12.356 -0.3169 -0.7615  0.7109
 5483TIP3    H240645   2.266   4.152  12.454 -1.4935  1.3272 -0.8152
 5484TIP3   OH240646   1.578   0.691  10.994 -0.6250  0.2085  0.3054
 5484TIP3    H140647   1.632   0.613  11.004 -1.9770 -1.2305 -2.3702
 5484TIP3    H240648   1.637   0.758  10.960 -0.1984 -0.9494 -1.3501
 5485TIP3   OH240649   3.474   3.004  12.242 -0.3926 -0.7200  0.1872
 5485TIP3    H140650   3.462   3.085  12.193  0.1182  0.2048  1.5256
 5485TIP3    H240651   3.524   3.030  12.319 -0.1084 -2.3419  0.5854
 5486TIP3   OH240652   1.726   1.254  12.441 -0.0288  0.0147  0.1456
 5486TIP3    H140653   1.667   1.205  12.498  1.5581 -1.2521  0.7847
 5486TIP3    H240654   1.744   1.194  12.368  0.0960  0.5578 -0.2721
 5487TIP3   OH240655   6.064   6.761  12.156 -0.8077  0.1057 -0.5166
 5487TIP3    H140656   5.975   6.777  12.189  0.5068  1.4680  2.8443
 5487TIP3    H240657   6.118   6.826  12.202  2.0783 -1.2566 -1.7514
 5488TIP3   OH240658   5.064   3.412  11.196  0.3210 -0.5416 -0.1525
 5488TIP3    H140659   5.135   3.440  11.138 -0.8477 -0.3149 -1.5534
 5488TIP3    H240660   5.079   3.318  11.207  0.3343 -0.6858 -1.2204
 5489TIP3   OH240661   4.441   3.990  11.885  0.2220 -0.0658 -0.1777
 5489TIP3    H140662   4.454   3.902  11.851  1.1324  0.5818 -1.5805
 5489TIP3    H240663   4.510   4.001  11.950 -0.6234 -0.7772  0.8871
 5490TIP3   OH240664   7.302   0.118  11.636  0.0628  0.7713 -0.0628
 5490TIP3    H140665   7.351   0.187  11.682 -0.4416  0.0041  1.7341
 5490TIP3    H240666   7.369   0.068  11.590  0.7743  0.8452  0.8493
 5491TIP3   OH240667   3.353   6.571  13.198 -0.2986 -0.1228 -0.3179
 5491TIP3    H140668   3.390   6.643  13.146  1.4068 -0.9777 -0.3377
 5491TIP3    H240669   3.397   6.579  13.283 -0.7228 -0.6489 -0.0491
 5492TIP3   OH240670   3.703   4.833  13.287 -0.1851  0.0449  0.0652
 5492TIP3    H140671   3.697   4.744  13.254  0.6892  0.0758 -0.2055
 5492TIP3    H240672   3.709   4.823  13.382  0.3216 -0.2153  0.0119
 5493TIP3   OH240673   4.407   3.411  12.755 -0.1896  0.0204  0.0387
 5493TIP3    H140674   4.434   3.501  12.775  0.2466 -0.1847  0.3931
 5493TIP3    H240675   4.333   3.395  12.814 -0.2698  0.1472 -0.0271
 5494TIP3   OH240676   4.180   7.033  12.348  0.3305  0.2372 -0.1117
 5494TIP3    H140677   4.229   6.952  12.362  2.0287  1.2274  0.0367
 5494TIP3    H240678   4.209   7.065  12.263 -0.3275  0.6993 -0.1732
 5495TIP3   OH240679   7.453   3.910  13.408  0.1678 -0.0750 -0.3057
 5495TIP3    H140680   7.383   3.854  13.440  0.5263 -1.1105 -1.2472
 5495TIP3    H240681   7.512   3.850  13.362  2.1047  0.6186  1.1335
 5496TIP3   OH240682   4.441   1.732  11.466 -0.1130 -0.2458  0.0063
 5496TIP3    H140683   4.524   1.685  11.473 -0.3820 -0.5703  1.1244
 5496TIP3    H240684   4.456   1.814  11.514  0.0647  0.4258 -1.1605
 5497TIP3   OH240685   7.576   4.047  12.097 -0.9198 -0.1496  0.2793
 5497TIP3    H140686   7.643   4.071  12.034 -0.7764 -1.5772 -0.1533
 5497TIP3    H240687   7.495   4.044  12.046 -1.1969  0.8194  0.6390
 5498TIP3   OH240688   4.090   5.895  12.790 -0.2958  0.6441 -0.6683
 5498TIP3    H140689   4.048   5.970  12.833 -0.8233 -0.0783  0.1016
 5498TIP3    H240690   4.046   5.888  12.705 -2.1146 -0.3850  0.3069
 5499TIP3   OH240691   7.263   1.747  12.823 -0.0900  1.2669  0.3414
 5499TIP3    H140692   7.238   1.699  12.902 -0.9300  0.6456 -0.2846
 5499TIP3    H240693   7.273   1.678  12.756  1.5156  1.6732  0.1052
 5500TIP3   OH240694   6.379   5.536  11.689 -0.9885 -0.0820  0.0135
 5500TIP3    H140695   6.427   5.456  11.668  0.6689  1.0889 -0.9135
 5500TIP3    H240696   6.434   5.581  11.753 -0.9985  1.1137 -0.7857
 5501TIP3   OH240697   6.027   6.559  11.153  0.3988 -0.4862 -0.0362
 5501TIP3    H140698   5.948   6.523  11.111  0.3702 -2.6408  1.6936
 5501TIP3    H240699   5.993   6.614  11.224  0.4533 -0.5484  0.0377
 5502TIP3   OH240700   2.940   7.019  11.611 -0.1391 -0.0999 -0.1633
 5502TIP3    H140701   2.979   7.105  11.625  0.2608 -0.6161  2.4187
 5502TIP3    H240702   2.857   7.023  11.658  0.1869 -1.3256  0.5426
 5503TIP3   OH240703   0.162   3.877  12.361  0.6641  0.7779 -0.8985
 5503TIP3    H140704   0.144   3.808  12.296  2.3408 -1.0700  0.4524
 5503TIP3    H240705   0.227   3.933  12.318  0.5886  0.4875 -1.4015
 5504TIP3   OH240706   2.962   3.511  12.856  0.0442 -0.4177  0.6681
 5504TIP3    H140707   3.016   3.434  12.841 -1.1889 -1.2645  0.3751
 5504TIP3    H240708   3.022   3.576  12.891  1.6661 -0.6179 -1.5272
 5505TIP3   OH240709   5.865   4.304  11.375 -0.4808 -0.0989 -0.1957
 5505TIP3    H140710   5.929   4.300  11.304  0.0529 -0.2390  0.2815
 5505TIP3    H240711   5.881   4.224  11.425  0.0792  0.6597  0.8640
 5506TIP3   OH240712   7.280   4.517  12.993  0.1705 -0.2209  0.5858
 5506TIP3    H140713   7.192   4.553  12.981  0.7528  0.8631 -0.8547
 5506TIP3    H240714   7.319   4.521  12.905  1.8096 -0.2498  1.2783
 5507TIP3   OH240715   4.531   0.353  10.783 -0.0364  0.1506  0.0539
 5507TIP3    H140716   4.529   0.263  10.815  0.2543 -0.0384 -0.4529
 5507TIP3    H240717   4.544   0.345  10.689  1.0563  0.7371  0.1379
 5508TIP3   OH240718   2.149   4.809  13.074 -0.2224 -0.5669 -0.2907
 5508TIP3    H140719   2.078   4.855  13.119 -0.7338 -1.1259 -0.5245
 5508TIP3    H240720   2.225   4.820  13.132 -0.4533  0.1771 -0.1242
 5509TIP3   OH240721   1.570   3.580  13.050 -0.5999 -0.2402 -0.1630
 5509TIP3    H140722   1.519   3.564  13.130  0.6184 -0.4048  0.6122
 5509TIP3    H240723   1.564   3.498  13.001 -2.0178  0.1238 -0.6641
 5510TIP3   OH240724   3.025   1.879  12.227 -0.3068 -0.4446 -0.1104
 5510TIP3    H140725   2.959   1.946  12.208 -0.4523 -0.7662 -0.7639
 5510TIP3    H240726   3.098   1.928  12.265  0.3284  0.3749 -2.2522
 5511TIP3   OH240727   4.561   6.031  11.979 -0.4090 -0.2802  0.4282
 5511TIP3    H140728   4.531   5.951  12.022 -0.2482 -1.1569 -1.0153
 5511TIP3    H240729   4.635   6.004  11.925 -1.0422  0.6025 -0.9499
 5512TIP3   OH240730   2.368   6.662  12.349 -0.1453 -0.2141 -1.0841
 5512TIP3    H140731   2.357   6.617  12.265 -0.5501 -1.1352 -0.5531
 5512TIP3    H240732   2.453   6.631  12.380 -1.2880 -2.2762  0.2244
 5513TIP3   OH240733   2.085   4.464  13.192  0.6129  0.1091  0.4888
 5513TIP3    H140734   2.093   4.490  13.284 -1.5516  1.3208  0.4244
 5513TIP3    H240735   2.061   4.371  13.195  1.0169  0.0251  1.1346
 5514TIP3   OH240736   4.117   0.642  12.455 -0.3712  0.2435 -0.1201
 5514TIP3    H140737   4.181   0.696  12.502  0.9825  0.6562 -2.2741
 5514TIP3    H240738   4.154   0.554  12.456 -0.8435  0.0464  0.4265
 5515TIP3   OH240739   0.651   4.385  12.870 -0.7486 -0.0998 -0.2900
 5515TIP3    H140740   0.642   4.331  12.948 -0.5339 -0.6951 -0.6674
 5515TIP3    H240741   0.613   4.469  12.894  2.2491  0.8986  1.6050
 5516TIP3   OH240742   6.616   3.303  11.707 -0.1631 -0.4873 -0.0064
 5516TIP3    H140743   6.655   3.250  11.638  0.2258 -1.0876  0.6587
 5516TIP3    H240744   6.550   3.246  11.746 -0.6431 -0.0183 -0.1234
 5517TIP3   OH240745   3.132   6.614  18.752 -0.1566 -0.2674 -0.1053
 5517TIP3    H140746   3.179   6.656  18.680  0.5067  1.3175  1.1865
 5517TIP3    H240747   3.115   6.524  18.722  1.6893 -0.1843 -1.4999
 5518TIP3   OH240748   1.423   5.643  10.596  0.5632 -0.4613 -0.1424
 5518TIP3    H140749   1.332   5.631  10.623  0.3150 -0.8565 -1.1120
 5518TIP3    H240750   1.456   5.554  10.586  0.6189 -0.3286 -1.2025
 5519TIP3   OH240751   0.466   0.902  11.173  0.0295 -0.4817 -0.2444
 5519TIP3    H140752   0.436   0.815  11.145  0.9167 -0.0180 -3.0154
 5519TIP3    H240753   0.550   0.886  11.215  0.7426 -0.9298 -1.7691
 5520TIP3   OH240754   4.580   1.897  11.990  0.4470 -0.1011 -0.4714
 5520TIP3    H140755   4.668   1.900  12.027  0.3269 -0.5870 -0.1394
 5520TIP3    H240756   4.534   1.971  12.029  0.1937 -0.8422  0.7042
 5521TIP3   OH240757   4.825   6.457  13.123 -0.0230 -0.2120 -0.6123
 5521TIP3    H140758   4.920   6.453  13.134  0.2225 -0.1238 -2.4362
 5521TIP3    H240759   4.793   6.372  13.152  0.8079 -0.8573 -1.5437
 5522TIP3   OH240760   3.455   3.237  12.054  0.1186 -0.3722  0.4906
 5522TIP3    H140761   3.525   3.255  11.992  1.4636 -0.9464  1.7939
 5522TIP3    H240762   3.454   3.313  12.113 -1.1750  0.1898 -0.2014
 5523TIP3   OH240763   3.232   3.656  11.625 -0.3785  0.0012 -0.5912
 5523TIP3    H140764   3.323   3.661  11.595 -0.5292  0.6034 -0.9752
 5523TIP3    H240765   3.222   3.567  11.658 -0.0358 -0.5080 -1.8069
 5524TIP3   OH240766   1.044   5.862  11.183  0.1366  0.0104 -0.1561
 5524TIP3    H140767   0.967   5.920  11.184 -0.4738 -0.7892  0.1932
 5524TIP3    H240768   1.056   5.842  11.090 -0.6607 -0.6100 -0.1353
 5525TIP3   OH240769   7.597   6.246  11.239 -0.3833  0.9833 -0.2014
 5525TIP3    H140770   7.508   6.212  11.248 -0.4852  1.4274  0.5365
 5525TIP3    H240771   7.610   6.255  11.145 -0.2649 -1.2959 -0.4528
 5526TIP3   OH240772   3.519   1.332  12.704 -0.7627  0.2548  0.5487
 5526TIP3    H140773   3.584   1.398  12.679 -1.9164  1.1667 -0.1206
 5526TIP3    H240774   3.435   1.370  12.680 -1.4518 -1.5970 -0.1401
 5527TIP3   OH240775   3.134   5.280  13.616 -0.2338 -0.5769 -0.0377
 5527TIP3    H140776   3.164   5.309  13.702 -2.4096  1.5413  0.1307
 5527TIP3    H240777   3.194   5.321  13.554 -0.7455  0.9208  0.4009
 5528TIP3   OH240778   4.270   3.786  12.985 -0.2703 -0.8239  0.6607
 5528TIP3    H140779   4.297   3.722  13.051  0.7911 -2.5271 -1.2792
 5528TIP3    H240780   4.188   3.752  12.951  0.9063 -1.9454 -1.2386
 5529TIP3   OH240781   6.910   1.419  17.330  0.4168  0.5017 -0.4075
 5529TIP3    H140782   6.910   1.325  17.347  0.1823  0.7763  1.2251
 5529TIP3    H240783   6.984   1.432  17.269  1.8630 -0.4516  1.0667
 5530TIP3   OH240784   3.454   4.956  13.561 -0.1272  0.5269  0.4011
 5530TIP3    H140785   3.529   4.900  13.581  0.7274  2.0190  1.5400
 5530TIP3    H240786   3.390   4.896  13.522  0.5902 -1.3314  1.8922
 5531TIP3   OH240787   4.377   5.177  12.041 -0.2705 -0.3785  0.2141
 5531TIP3    H140788   4.311   5.111  12.022  1.0526 -1.7815  0.3248
 5531TIP3    H240789   4.391   5.170  12.136 -0.6469  0.6006  0.3566
 5532TIP3   OH240790   0.376   2.404  12.254 -0.4098  0.2151 -1.0582
 5532TIP3    H140791   0.400   2.493  12.279 -0.2992 -0.1776  0.3160
 5532TIP3    H240792   0.452   2.371  12.207 -0.5351  0.9044 -1.7705
 5533TIP3   OH240793   6.936   2.716  13.187  0.0776  0.1735  0.5381
 5533TIP3    H140794   6.919   2.764  13.106  0.8439  0.9062  0.7989
 5533TIP3    H240795   7.031   2.705  13.189  0.0612  0.1455  1.3305
 5534TIP3   OH240796   0.109   5.704  11.059 -0.1438 -0.0905 -0.3457
 5534TIP3    H140797   0.041   5.713  11.126  0.2443 -2.2321  0.4012
 5534TIP3    H240798   0.146   5.617  11.073 -0.6735 -1.0505 -3.9482
 5535TIP3   OH240799   2.275   4.787  12.219 -0.2218  0.2951 -0.1555
 5535TIP3    H140800   2.191   4.760  12.255  0.2288  0.0502  0.7422
 5535TIP3    H240801   2.261   4.791  12.124 -1.2664  0.3699 -0.0052
 5536TIP3   OH240802   2.913   3.373  11.476 -0.1981  0.2852 -0.3435
 5536TIP3    H140803   2.827   3.404  11.446  0.6855  0.6437 -2.7451
 5536TIP3    H240804   2.938   3.306  11.412  1.3485  0.2598  0.2470
 5537TIP3   OH240805   6.592   1.330  12.236 -0.5746  0.1930  0.5661
 5537TIP3    H140806   6.573   1.416  12.274 -0.7718  0.4913 -0.1778
 5537TIP3    H240807   6.516   1.277  12.257 -1.1582  0.6608 -0.2853
 5538TIP3   OH240808   4.341   6.869  12.514 -0.0008 -0.0121 -0.1049
 5538TIP3    H140809   4.394   6.795  12.485 -0.5999 -1.2116  1.6490
 5538TIP3    H240810   4.396   6.946  12.499  0.7669 -0.8239 -1.6874
 5539TIP3   OH240811   3.922   2.950  12.242 -0.1805  0.4863 -0.5526
 5539TIP3    H140812   3.945   2.968  12.151  0.0246  0.5099 -0.4972
 5539TIP3    H240813   3.832   2.920  12.239 -0.4660  1.3282 -0.6744
 5540TIP3   OH240814   6.964   2.649  11.688 -0.2480 -0.2655  0.0901
 5540TIP3    H140815   6.933   2.592  11.618  1.4557 -1.6954  0.4335
 5540TIP3    H240816   6.885   2.669  11.739 -1.4868  0.6412 -2.0361
 5541TIP3   OH240817   5.886   7.238  11.459  0.8663  0.1260  1.1120
 5541TIP3    H140818   5.894   7.331  11.483 -1.1565  0.5309  0.4008
 5541TIP3    H240819   5.811   7.207  11.510  0.4840 -0.6699  0.0829
 5542TIP3   OH240820   4.424   2.372  11.116  0.2017 -0.3112  0.0042
 5542TIP3    H140821   4.439   2.293  11.064 -0.6285 -0.1454 -0.5018
 5542TIP3    H240822   4.335   2.399  11.094 -0.0544 -0.0456  1.2666
 5543TIP3   OH240823   4.477   6.194  11.596 -0.0550 -0.4081 -0.4052
 5543TIP3    H140824   4.475   6.272  11.652 -1.7908 -0.5956 -0.1491
 5543TIP3    H240825   4.556   6.148  11.623  0.6804  0.9496 -0.1352
 5544TIP3   OH240826   1.254   0.377  11.653  0.7337  0.2217 -0.6269
 5544TIP3    H140827   1.279   0.325  11.729 -0.2929 -0.6611 -0.8766
 5544TIP3    H240828   1.224   0.460  11.690  0.1010 -0.2534 -0.0427
 5545TIP3   OH240829   5.766   2.819  12.541  0.3988 -0.0974  0.9241
 5545TIP3    H140830   5.731   2.800  12.454  1.1850 -1.6965  0.9180
 5545TIP3    H240831   5.767   2.915  12.547 -1.5863  0.0236 -0.0103
 5546TIP3   OH240832   1.248   5.791  12.762 -0.5228  0.1529  0.0542
 5546TIP3    H140833   1.231   5.785  12.857 -1.6937 -1.1450 -0.2021
 5546TIP3    H240834   1.198   5.868  12.734 -0.1936  0.5301  0.4820
 5547TIP3   OH240835   5.381   0.120  12.748  0.4329  0.0816  0.2159
 5547TIP3    H140836   5.320   0.046  12.749  2.0331 -1.3137  2.6058
 5547TIP3    H240837   5.336   0.189  12.797 -0.1668 -0.0720 -0.1040
 5548TIP3   OH240838   6.060   3.332  10.845  0.1150 -0.0811  0.2475
 5548TIP3    H140839   5.988   3.277  10.877 -0.0581 -0.0893 -0.1507
 5548TIP3    H240840   6.047   3.416  10.889  1.0502 -0.6812  1.7729
 5549TIP3   OH240841   4.643   4.936  10.996  0.0118  0.1482 -0.3110
 5549TIP3    H140842   4.691   4.868  10.950 -2.1123 -0.6254 -1.4880
 5549TIP3    H240843   4.707   4.972  11.059  2.6046  0.3375 -2.8609
 5550TIP3   OH240844   0.842   4.353  13.825  0.1956  0.2408  0.5634
 5550TIP3    H140845   0.799   4.272  13.852 -0.0059  0.0490 -0.3025
 5550TIP3    H240846   0.782   4.423  13.853 -0.7418 -0.0251 -0.6867
 5551TIP3   OH240847   2.293   0.540  11.100  0.2589 -0.1691 -0.0544
 5551TIP3    H140848   2.227   0.550  11.168  1.3888  0.6430  0.9704
 5551TIP3    H240849   2.295   0.446  11.082 -0.5193 -0.3127  0.5678
 5552TIP3   OH240850   4.351   0.197  11.457 -0.0212  0.0196  0.2574
 5552TIP3    H140851   4.407   0.173  11.384  0.2652  0.4766  0.3224
 5552TIP3    H240852   4.268   0.224  11.416 -0.7344 -2.0352  0.2286
 5553TIP3   OH240853   4.876   6.865  12.614  0.3768  0.3348 -0.5027
 5553TIP3    H140854   4.789   6.898  12.637  0.5129 -0.2040  0.8787
 5553TIP3    H240855   4.903   6.919  12.540 -0.8299  1.0013 -0.4823
 5554TIP3   OH240856   0.856   2.399  11.401 -0.1613  0.1038 -0.2287
 5554TIP3    H140857   0.933   2.450  11.426  0.3074 -1.3343  1.5516
 5554TIP3    H240858   0.799   2.403  11.477 -0.8900 -0.5630 -0.7258
 5555TIP3   OH240859   0.409   3.617  13.125  0.3334 -0.2352  0.0443
 5555TIP3    H140860   0.344   3.687  13.137 -1.0508 -1.4981  0.1105
 5555TIP3    H240861   0.392   3.556  13.196 -0.4035 -2.0792 -1.6469
 5556TIP3   OH240862   6.539   4.149  10.691  0.0935 -0.8287  0.2823
 5556TIP3    H140863   6.587   4.115  10.766  1.4163 -0.7490 -0.4902
 5556TIP3    H240864   6.603   4.202  10.643 -1.4741  1.5451  0.6357
 5557TIP3   OH240865   2.819   6.759  11.993  0.3700 -0.6109 -0.2235
 5557TIP3    H140866   2.909   6.731  12.008  0.7780  0.4172 -0.6007
 5557TIP3    H240867   2.827   6.850  11.964 -0.9325  0.5023  2.5297
 5558TIP3   OH240868   2.294   5.521  13.762 -0.3587 -0.4589 -0.0452
 5558TIP3    H140869   2.362   5.464  13.799 -0.3083 -0.4815 -0.1721
 5558TIP3    H240870   2.213   5.472  13.775 -0.3979 -0.2775  0.4273
 5559TIP3   OH240871   7.258   1.575  13.044 -0.5416 -0.3480 -0.0841
 5559TIP3    H140872   7.222   1.523  13.116  1.8082 -3.0037 -0.6494
 5559TIP3    H240873   7.320   1.516  13.000  0.0821  2.0156 -2.6897
 5560TIP3   OH240874   6.679   0.069  12.824 -0.0561 -0.2163  0.2267
 5560TIP3    H140875   6.680   0.021  12.906 -0.4273 -0.5810  0.0183
 5560TIP3    H240876   6.754   0.035  12.775 -1.3117 -1.8508 -0.6391
 5561TIP3   OH240877   1.173   4.939  12.671 -0.3430  0.1288  0.2571
 5561TIP3    H140878   1.132   5.021  12.643 -0.5220  0.0858  0.3920
 5561TIP3    H240879   1.240   4.965  12.733 -0.1692  0.1996  0.0409
 5562TIP3   OH240880   1.201   3.791  11.353 -0.4685 -1.0586  0.2747
 5562TIP3    H140881   1.187   3.708  11.400  0.3968 -1.4235 -0.0904
 5562TIP3    H240882   1.218   3.764  11.263 -3.3039 -0.3286 -0.6009
 5563TIP3   OH240883   7.133   5.877  11.671  0.1627  0.2750  0.5548
 5563TIP3    H140884   7.169   5.926  11.745  1.0404 -0.1218  0.4047
 5563TIP3    H240885   7.207   5.824  11.640 -0.4534 -0.2517 -0.0216
 5564TIP3   OH240886   3.375   4.310  11.435  0.4133  0.0898  0.6581
 5564TIP3    H140887   3.432   4.281  11.364  2.6497 -1.2287  2.8557
 5564TIP3    H240888   3.287   4.289  11.404  1.0930  1.1168 -2.3674
 5565TIP3   OH240889   0.550   4.040  12.499 -0.5878 -0.6956 -0.0421
 5565TIP3    H140890   0.592   3.973  12.554  0.1466  1.4914  2.2430
 5565TIP3    H240891   0.556   4.120  12.550  0.5361  1.6824 -3.5356
 5566TIP3   OH240892   4.671   3.464  11.912  0.1243 -0.0225  0.2832
 5566TIP3    H140893   4.587   3.435  11.876  1.4201 -1.2295 -2.0092
 5566TIP3    H240894   4.706   3.386  11.956  1.8498 -0.9314 -2.4619
 5567TIP3   OH240895   3.144   7.540  11.063 -0.4259  0.6886  0.8926
 5567TIP3    H140896   3.066   7.538  11.008 -1.1451  0.3534  1.8852
 5567TIP3    H240897   3.193   7.462  11.038 -0.9603  0.3043  1.0199
 5568TIP3   OH240898   0.153   4.773  14.020  0.3783  0.1887  0.1928
 5568TIP3    H140899   0.159   4.830  13.944  1.5298 -0.1738 -0.0001
 5568TIP3    H240900   0.200   4.820  14.089 -0.1240  0.2303  0.5132
 5569TIP3   OH240901   0.701   7.488  11.437  0.6743  0.1189 -0.1042
 5569TIP3    H140902   0.651   7.502  11.357  0.9750 -1.2276 -0.5432
 5569TIP3    H240903   0.634   7.476  11.505  0.3980  2.4109  0.1247
 5570TIP3   OH240904   3.190   2.290  13.649 -0.1595  0.3470  0.0870
 5570TIP3    H140905   3.182   2.200  13.617 -0.9496  0.1336  0.8412
 5570TIP3    H240906   3.270   2.323  13.609  1.0736 -1.2423  1.1174
 5571TIP3   OH240907   6.795   0.435  11.563 -0.4913 -0.1815  0.0322
 5571TIP3    H140908   6.791   0.462  11.472  0.6963  1.9541  0.5301
 5571TIP3    H240909   6.728   0.488  11.607 -1.6902 -1.8488  0.2984
 5572TIP3   OH240910   1.720   2.466  13.915 -0.3176 -0.3240 -0.3717
 5572TIP3    H140911   1.784   2.401  13.887  0.2972 -0.0482  0.3707
 5572TIP3    H240912   1.732   2.539  13.854 -2.4203 -1.6215 -2.5694
 5573TIP3   OH240913   5.572   6.764  13.343 -0.3455 -0.4581 -0.2632
 5573TIP3    H140914   5.634   6.714  13.397  1.9886  0.1456 -2.1729
 5573TIP3    H240915   5.563   6.848  13.388  1.4285 -0.0313 -0.5941
 5574TIP3   OH240916   0.189   3.011  11.926 -0.5686 -0.0650  0.2551
 5574TIP3    H140917   0.140   2.970  11.855  0.2732 -2.8272  1.1542
 5574TIP3    H240918   0.281   2.995  11.904 -0.2593  0.0165  1.4388
 5575TIP3   OH240919   5.652   7.171  11.592 -0.1171  0.3072  0.0479
 5575TIP3    H140920   5.613   7.085  11.578 -0.7954  0.8861 -1.8979
 5575TIP3    H240921   5.652   7.182  11.687 -1.5372 -1.1499  0.2564
 5576TIP3   OH240922   7.661   2.433  11.372 -0.6878  0.1675 -0.3006
 5576TIP3    H140923   7.698   2.511  11.413 -0.7312  0.2663 -0.4466
 5576TIP3    H240924   7.615   2.467  11.295  0.2205 -0.1190 -0.9819
 5577TIP3   OH240925   3.093   5.141  11.831  0.3450  0.3113  0.0536
 5577TIP3    H140926   3.050   5.067  11.874 -0.0247  0.5480  0.0967
 5577TIP3    H240927   3.161   5.101  11.778  0.7139 -0.0003  0.7405
 5578TIP3   OH240928   6.419   6.307  12.956 -0.1778  0.4916  0.1301
 5578TIP3    H140929   6.428   6.236  13.019  0.0042  1.8359  1.6699
 5578TIP3    H240930   6.503   6.352  12.958 -0.3123  0.8117 -0.7792
 5579TIP3   OH240931   7.063   7.247  11.537 -0.2347  0.0650 -0.2491
 5579TIP3    H140932   7.079   7.166  11.585  1.0314  0.7299  0.4825
 5579TIP3    H240933   7.035   7.310  11.603  0.2031  0.6278 -0.5928
 5580TIP3   OH240934   5.594   7.022  11.075 -0.0671 -0.0639 -0.1429
 5580TIP3    H140935   5.616   6.945  11.128  0.7193 -1.0459 -1.8394
 5580TIP3    H240936   5.580   6.988  10.987  1.1681  1.8153 -1.1344
 5581TIP3   OH240937   5.850   1.768  13.604 -0.8078 -0.5341  0.3145
 5581TIP3    H140938   5.892   1.766  13.518  1.2692  0.5521  1.2307
 5581TIP3    H240939   5.812   1.681  13.614  0.4961 -1.3022 -0.9608
 5582TIP3   OH240940   2.165   3.470  12.578 -0.7763 -0.5366  0.0379
 5582TIP3    H140941   2.212   3.425  12.648  1.0658 -1.6013 -1.7455
 5582TIP3    H240942   2.206   3.556  12.574  0.7452 -1.2584 -1.1230
 5583TIP3   OH240943   6.350   1.741  13.087  0.1983  0.6468  0.2538
 5583TIP3    H140944   6.320   1.684  13.017  1.0613  1.4200 -0.7760
 5583TIP3    H240945   6.270   1.768  13.132 -0.2822 -0.6472  0.2175
 5584TIP3   OH240946   5.841   1.910  12.595  0.2135  0.1701  0.5749
 5584TIP3    H140947   5.846   1.881  12.504 -0.4579 -2.0958  1.2014
 5584TIP3    H240948   5.751   1.889  12.622  0.5471  0.3595  1.9109
 5585TIP3   OH240949   1.152   7.653  13.265  0.4372 -0.1168  0.0614
 5585TIP3    H140950   1.097   7.732  13.265 -0.0294 -0.3882 -1.9707
 5585TIP3    H240951   1.092   7.581  13.246  1.1024 -0.7656  0.3555
 5586TIP3   OH240952   2.400   3.843  12.453  0.1886  0.2726 -0.1927
 5586TIP3    H140953   2.465   3.819  12.387  0.0503 -0.1442 -0.1786
 5586TIP3    H240954   2.429   3.800  12.533 -0.9918 -1.3360 -0.5684
 5587TIP3   OH240955   3.439   0.446  12.803  0.4442 -0.3665 -0.3173
 5587TIP3    H140956   3.381   0.372  12.786  0.3617 -0.4174  0.1649
 5587TIP3    H240957   3.403   0.517  12.750 -0.8587 -0.0227  0.9417
 5588TIP3   OH240958   3.465   5.980  11.952 -0.0697 -0.0714 -0.0314
 5588TIP3    H140959   3.481   6.048  11.886  1.4823  0.0265  0.4081
 5588TIP3    H240960   3.494   5.899  11.911 -0.6658 -0.2718 -0.0650
 5589TIP3   OH240961   6.755   1.002  11.714 -0.3866  0.1247 -0.3004
 5589TIP3    H140962   6.765   1.067  11.783 -1.1755  0.2359 -0.2872
 5589TIP3    H240963   6.828   1.019  11.655  0.6885 -0.3911  0.8281
 5590TIP3   OH240964   0.379   2.068  12.303  0.5706 -0.2425  0.3251
 5590TIP3    H140965   0.312   2.055  12.236 -0.1482  0.2612  0.9254
 5590TIP3    H240966   0.458   2.030  12.265 -0.7206 -3.8834  0.8799
 5591TIP3   OH240967   3.866   0.954  11.030  0.1898 -0.2678  0.3927
 5591TIP3    H140968   3.817   0.930  11.108 -0.2811  1.1596  0.5774
 5591TIP3    H240969   3.800   0.994  10.972  0.5348 -1.2758 -0.7254
 5592TIP3   OH240970   0.768   4.943  12.399  0.7452  0.3892 -0.1434
 5592TIP3    H140971   0.751   4.948  12.494  1.5350  0.2781  0.0091
 5592TIP3    H240972   0.754   5.032  12.367 -1.0601  0.1261 -0.2010
 5593TIP3   OH240973   2.417   6.856  13.108  0.2802  0.3565  0.2444
 5593TIP3    H140974   2.366   6.936  13.093 -1.5073 -0.6692  0.5513
 5593TIP3    H240975   2.425   6.851  13.203 -0.3106 -0.2117  0.2753
 5594TIP3   OH240976   3.398   4.947  11.031 -0.8628 -0.0540  0.3415
 5594TIP3    H140977   3.433   5.025  10.988 -1.5984  0.3532  0.4633
 5594TIP3    H240978   3.327   4.980  11.086  0.2873 -0.5224  2.1731
 5595TIP3   OH240979   0.310   1.311  11.383 -0.2400 -0.5097 -0.1695
 5595TIP3    H140980   0.239   1.279  11.439  2.0852 -1.1123  2.6786
 5595TIP3    H240981   0.314   1.247  11.312 -3.1645  0.1548 -1.0736
 5596TIP3   OH240982   3.956   7.253  10.936  0.0670 -0.2607  0.1569
 5596TIP3    H140983   4.026   7.308  10.901  0.8238  0.3784  2.4851
 5596TIP3    H240984   3.893   7.315  10.974 -0.8069 -0.9026 -0.2164
 5597TIP3   OH240985   4.595   5.216  11.706  0.3498  0.0094 -0.1774
 5597TIP3    H140986   4.540   5.259  11.641 -1.0863 -0.5474  0.6376
 5597TIP3    H240987   4.565   5.125  11.707 -2.4135  0.6967  3.8916
 5598TIP3   OH240988   1.452   7.569  11.867  0.2754  0.3916 -0.0815
 5598TIP3    H140989   1.458   7.611  11.952 -1.1467 -0.8680  0.6808
 5598TIP3    H240990   1.382   7.504  11.876  0.8194 -0.5305 -1.8831
 5599TIP3   OH240991   2.360   6.516  12.083 -0.2649  0.1562  0.3623
 5599TIP3    H140992   2.316   6.451  12.029 -1.0875  0.0357  1.1552
 5599TIP3    H240993   2.431   6.548  12.028  0.8358 -2.1592  0.3269
 5600TIP3   OH240994   1.390   6.534  13.267 -0.7802 -0.3032 -0.2741
 5600TIP3    H140995   1.336   6.460  13.298 -0.2191 -0.2153  0.9760
 5600TIP3    H240996   1.360   6.609  13.318 -0.3328  0.0211 -0.4799
 5601TIP3   OH240997   0.547   1.978  12.878 -0.1897 -0.4456  0.6478
 5601TIP3    H140998   0.598   1.922  12.819  0.5980  1.3124 -0.4457
 5601TIP3    H240999   0.473   2.006  12.825  0.6999  1.4190  0.2922
 5602TIP3   OH241000   0.011   6.139  13.305  0.0374 -0.0468  0.1462
 5602TIP3    H141001  -0.065   6.197  13.306  0.7456  0.9651  2.1028
 5602TIP3    H241002   0.084   6.194  13.335  1.0072 -1.6109  0.8050
 5603TIP3   OH241003   4.484   0.342  12.094  0.6626 -0.0624 -0.3935
 5603TIP3    H141004   4.480   0.246  12.083 -1.0979 -0.0744  0.0646
 5603TIP3    H241005   4.416   0.375  12.035  0.3261  0.8009  0.4644
 5604TIP3   OH241006   2.546   2.064  11.126 -0.3250  0.2819  0.8436
 5604TIP3    H141007   2.608   2.056  11.198 -0.1007 -0.1184  0.6052
 5604TIP3    H241008   2.462   2.040  11.165 -0.0864 -0.6802  0.7920
 5605TIP3   OH241009   2.604   5.388  13.641  0.6268 -0.1340 -0.0666
 5605TIP3    H141010   2.665   5.461  13.641  0.1828  0.2590 -1.2099
 5605TIP3    H241011   2.659   5.311  13.654  1.5000  0.1394 -1.8113
 5606TIP3   OH241012   1.041   6.978  12.948  0.6796 -0.5879  0.1156
 5606TIP3    H141013   1.108   6.957  12.883  0.2265  0.9060 -0.8979
 5606TIP3    H241014   1.022   7.071  12.933  2.5608  0.7155  4.1835
 5607TIP3   OH241015   7.231   6.460  11.485 -0.3575  0.2334 -0.3249
 5607TIP3    H141016   7.154   6.422  11.443 -0.5059  0.4996 -0.2978
 5607TIP3    H241017   7.195   6.518  11.552 -0.1325  0.2803 -0.2448
 5608TIP3   OH241018   4.395   7.038  12.778 -0.3181 -0.0250  1.3775
 5608TIP3    H141019   4.368   7.116  12.827 -0.8683  0.8492 -0.2493
 5608TIP3    H241020   4.331   6.971  12.802 -1.6837  0.9147  0.5357
 5609TIP3   OH241021   3.011   7.439  12.950 -0.4055  0.4945 -0.2532
 5609TIP3    H141022   2.922   7.436  12.985 -0.9368  0.5054 -1.5619
 5609TIP3    H241023   3.047   7.353  12.970 -0.8984  0.2923 -0.2230
 5610TIP3   OH241024   1.408   6.174  10.792 -0.0378 -0.3082 -0.1762
 5610TIP3    H141025   1.360   6.102  10.750 -2.5922  0.9088  0.4529
 5610TIP3    H241026   1.500   6.157  10.772 -0.7638 -2.3950 -2.1213
 5611TIP3   OH241027   0.112   2.357  13.217 -0.1509 -0.4140  0.5241
 5611TIP3    H141028   0.049   2.356  13.290  0.4975  0.2471  1.1090
 5611TIP3    H241029   0.196   2.338  13.257  0.2596  0.2434 -0.0075
 5612TIP3   OH241030   5.677   5.621  11.571  0.4283 -0.0061  0.4175
 5612TIP3    H141031   5.635   5.599  11.654 -1.1072 -1.2349 -0.6303
 5612TIP3    H241032   5.607   5.655  11.516  1.4500  0.9186 -0.3603
 5613TIP3   OH241033   6.369   1.585  11.756 -0.4219  0.0837 -0.2214
 5613TIP3    H141034   6.385   1.655  11.694  0.2520 -0.0088 -0.1578
 5613TIP3    H241035   6.386   1.624  11.842 -0.7950  0.0532 -0.1307
 5614TIP3   OH241036   3.138   0.171  11.445  0.0329 -0.5006 -0.3073
 5614TIP3    H141037   3.179   0.255  11.426 -1.3762  0.2438 -0.1674
 5614TIP3    H241038   3.123   0.173  11.540 -0.2833 -0.7799 -0.3500
 5615TIP3   OH241039   1.229   7.351  12.567  0.0502  0.3608  0.0167
 5615TIP3    H141040   1.269   7.394  12.643  1.9668 -1.9684  0.4475
 5615TIP3    H241041   1.289   7.368  12.495  0.3856 -0.7990  0.0028
 5616TIP3   OH241042   5.645   1.843  13.275 -0.6140 -0.0380  0.5917
 5616TIP3    H141043   5.735   1.844  13.307  0.1395  1.2918 -1.3501
 5616TIP3    H241044   5.600   1.782  13.332  1.3542 -0.2267  2.0531
 5617TIP3   OH241045   4.198   1.400  13.062  0.3910 -0.5779  0.3321
 5617TIP3    H141046   4.242   1.466  13.009  0.7957 -0.6449  0.5774
 5617TIP3    H241047   4.246   1.401  13.145 -1.1075  0.5416  1.2503
 5618TIP3   OH241048   7.064   0.229  11.277 -0.1815  0.5306 -0.3389
 5618TIP3    H141049   7.081   0.199  11.366  1.1041  0.3306 -0.6430
 5618TIP3    H241050   7.067   0.150  11.223 -1.0745  0.6316 -0.5665
 5619TIP3   OH241051   2.500   6.430  13.104  0.4492 -0.3123 -0.9615
 5619TIP3    H141052   2.485   6.490  13.031  0.6282  0.9852  0.0234
 5619TIP3    H241053   2.457   6.349  13.078 -1.1131  0.7041 -1.7309
 5620TIP3   OH241054   0.167   6.335  13.398 -0.0407 -0.1470 -0.2408
 5620TIP3    H141055   0.129   6.394  13.333 -2.8060 -1.8057 -0.2652
 5620TIP3    H241056   0.166   6.385  13.479 -2.2992 -0.0617 -0.2626
 5621TIP3   OH241057   0.726   0.505  11.990 -0.2833  0.2690  0.2943
 5621TIP3    H141058   0.665   0.481  12.059  0.6856  0.3605  1.2084
 5621TIP3    H241059   0.796   0.553  12.035  1.1035 -0.9142 -0.5159
 5622TIP3   OH241060   2.579   2.760  13.023  0.4580  0.1387 -0.2611
 5622TIP3    H141061   2.670   2.788  13.025  0.3395  0.5081  0.2211
 5622TIP3    H241062   2.577   2.678  13.073  0.5758 -0.0287 -0.5306
 5623TIP3   OH241063   1.984   3.778  11.877 -0.2330 -0.2801 -0.3165
 5623TIP3    H141064   1.961   3.707  11.937 -0.1135  0.1273  0.2211
 5623TIP3    H241065   1.901   3.804  11.837 -0.2219 -0.9880 -0.8253
 5624TIP3   OH241066   5.759   7.559  12.275  0.4382 -0.3540 -0.7813
 5624TIP3    H141067   5.684   7.605  12.239 -1.3475 -2.8951 -0.5680
 5624TIP3    H241068   5.737   7.543  12.366  1.2727 -1.0465 -0.6783
 5625TIP3   OH241069   1.555   3.046  12.873  0.4213  0.1631 -0.4613
 5625TIP3    H141070   1.532   2.989  12.947  0.6103 -0.0901 -0.5954
 5625TIP3    H241071   1.642   3.017  12.846  0.5197  0.5182 -0.5317
 5626TIP3   OH241072   1.296   6.627  12.574  0.4792 -0.1216  0.0889
 5626TIP3    H141073   1.213   6.647  12.617 -0.0048 -0.7111 -0.5435
 5626TIP3    H241074   1.321   6.709  12.530  1.0775  0.5427  1.5993
 5627TIP3   OH241075   4.433   2.186  11.815 -0.4886 -0.2713  0.3270
 5627TIP3    H141076   4.363   2.175  11.752 -0.7099  0.4365  0.4404
 5627TIP3    H241077   4.494   2.246  11.773 -0.4197 -0.1412  0.6097
 5628TIP3   OH241078   0.849   5.763  10.710 -0.2465  0.1753  0.1814
 5628TIP3    H141079   0.790   5.748  10.784 -1.0162 -0.7900 -0.6042
 5628TIP3    H241080   0.875   5.676  10.681  0.8315  0.5701 -0.0772
 5629TIP3   OH241081   0.793   2.566  13.823  0.0668  0.2021  0.2923
 5629TIP3    H141082   0.729   2.616  13.873 -1.7798 -1.3222 -0.4192
 5629TIP3    H241083   0.829   2.628  13.760 -1.2637  0.9479  0.2318
 5630TIP3   OH241084   3.205   2.088  12.021 -0.2543 -0.1636  0.4227
 5630TIP3    H141085   3.169   2.025  11.958  1.2036  0.5073 -1.1746
 5630TIP3    H241086   3.197   2.172  11.976  0.2367  0.4257  1.4250
 5631TIP3   OH241087   7.185   6.696  11.301 -0.3660 -0.1089  0.3682
 5631TIP3    H141088   7.251   6.762  11.320 -1.3920  0.8288  0.8215
 5631TIP3    H241089   7.202   6.625  11.364 -0.6158  0.7288  1.4142
 5632TIP3   OH241090   1.290   1.877  11.570 -0.2547 -0.0222  0.2070
 5632TIP3    H141091   1.339   1.818  11.628 -2.4538 -2.2698 -0.0532
 5632TIP3    H241092   1.353   1.902  11.502  0.8467 -1.9171  0.4679
 5633TIP3   OH241093   1.257   3.749  12.543 -0.4160 -1.0691  0.0157
 5633TIP3    H141094   1.264   3.787  12.455 -0.3831 -3.4500 -1.0728
 5633TIP3    H241095   1.322   3.797  12.595 -0.0287 -0.0053 -1.3846
 5634TIP3   OH241096   4.105   1.946  11.399  0.0051  0.1516  0.7733
 5634TIP3    H141097   4.048   2.023  11.392  0.2978  0.3685  0.7177
 5634TIP3    H241098   4.105   1.925  11.492  1.6316  1.5632  1.1594
 5635TIP3   OH241099   0.296   1.757  12.180  0.3908  0.3333  0.1828
 5635TIP3    H141100   0.364   1.699  12.214 -1.3192 -0.7788  1.9029
 5635TIP3    H241101   0.301   1.747  12.085  0.9185 -1.7672  0.3854
 5636TIP3   OH241102   0.030   3.545  11.369  0.1563  0.0800 -0.1089
 5636TIP3    H141103  -0.064   3.564  11.378  0.0216 -0.8634  0.7312
 5636TIP3    H241104   0.072   3.603  11.433  0.1711  0.6719 -0.6524
 5637TIP3   OH241105   5.453   1.217  12.403  0.5550  0.8522 -0.1251
 5637TIP3    H141106   5.516   1.167  12.454  0.1075  0.4829  0.0703
 5637TIP3    H241107   5.430   1.160  12.330  1.0043  1.2792 -0.6073
 5638TIP3   OH241108   7.570   2.864  12.470  0.2872 -0.2042  1.0112
 5638TIP3    H141109   7.476   2.849  12.479  0.2031 -0.8253 -0.4970
 5638TIP3    H241110   7.577   2.953  12.436  0.2506 -0.1030  1.2707
 5639TIP3   OH241111   2.728   1.893  11.298 -0.5064 -0.1003  0.2526
 5639TIP3    H141112   2.709   1.897  11.392 -0.9165 -1.3222  0.2402
 5639TIP3    H241113   2.784   1.816  11.289 -1.2093 -0.5118 -0.6308
 5640TIP3   OH241114   5.056   0.086  12.908 -0.1240 -0.1758 -0.2203
 5640TIP3    H141115   4.973   0.040  12.924  0.2611 -0.1703  2.2746
 5640TIP3    H241116   5.109   0.066  12.985  2.3475 -0.4004 -1.8799
 5641TIP3   OH241117   4.081   2.748  12.559 -0.0904  0.4293  0.1457
 5641TIP3    H141118   4.146   2.782  12.498 -0.5755  1.2178  0.0509
 5641TIP3    H241119   4.132   2.703  12.626  0.5176  0.5695 -0.2160
 5642TIP3   OH241120   7.484   4.770  11.181  0.2387  0.0279  0.0949
 5642TIP3    H141121   7.433   4.851  11.181  0.5775  0.2888 -1.8220
 5642TIP3    H241122   7.575   4.800  11.169  0.3381 -0.6106 -0.8851
 5643TIP3   OH241123   0.157   4.177  10.464  0.1301 -0.3916 -0.2874
 5643TIP3    H141124   0.119   4.263  10.479  0.1505 -0.5569  0.7965
 5643TIP3    H241125   0.094   4.116  10.503  0.3301 -0.8293 -0.6492
 5644TIP3   OH241126   2.386   6.312  11.092  0.1338 -0.3058  0.1734
 5644TIP3    H141127   2.350   6.308  11.180  1.5203  0.4289  0.8088
 5644TIP3    H241128   2.341   6.243  11.044 -0.6762 -0.6861  1.4427
 5645TIP3   OH241129   7.124   6.655  11.669 -0.1216  0.1756  0.2934
 5645TIP3    H141130   7.185   6.656  11.743 -1.9087 -0.2146  1.8488
 5645TIP3    H241131   7.100   6.747  11.656  0.5363  0.2932 -0.1095
 5646TIP3   OH241132   2.237   6.962  11.304 -0.7364  0.3220  0.0880
 5646TIP3    H141133   2.316   6.919  11.338 -0.7618  0.1617 -0.0514
 5646TIP3    H241134   2.193   6.998  11.381 -0.6978  0.1234  0.2029
 5647TIP3   OH241135   1.729   5.349  11.367 -0.1136  0.5100 -0.0199
 5647TIP3    H141136   1.718   5.382  11.456 -1.2199  0.0212  0.0389
 5647TIP3    H241137   1.721   5.427  11.312  3.5001  1.3464  0.3897
 5648TIP3   OH241138   3.822   0.480  10.950  0.1166 -0.1816 -0.1997
 5648TIP3    H141139   3.761   0.447  10.884  1.0756 -2.2959 -0.1301
 5648TIP3    H241140   3.768   0.532  11.009 -1.7745 -2.3812  0.1432
 5649TIP3   OH241141   4.101   3.962  13.392  0.5240 -0.1193 -0.3314
 5649TIP3    H141142   4.096   4.001  13.480  0.9377  1.7640 -1.1021
 5649TIP3    H241143   4.011   3.933  13.374  0.1038  0.8789  0.1016
 5650TIP3   OH241144   5.420   2.663  11.087  0.1612 -0.4394  0.3744
 5650TIP3    H141145   5.348   2.668  11.150 -1.3327  1.6047 -1.3566
 5650TIP3    H241146   5.390   2.599  11.022  0.7564 -0.9472  0.5850
 5651TIP3   OH241147   0.074   7.560  12.519  0.3027 -0.4559 -0.3164
 5651TIP3    H141148   0.078   7.512  12.602  0.1906 -0.4435 -0.3045
 5651TIP3    H241149   0.102   7.649  12.542 -0.7070 -0.1856 -0.0955
 5652TIP3   OH241150   1.600   6.059  12.340  0.0924  0.4947  0.1421
 5652TIP3    H141151   1.672   6.120  12.328 -1.9939  2.9507 -0.9059
 5652TIP3    H241152   1.533   6.110  12.385 -1.0085 -1.6996  1.1308
 5653TIP3   OH241153   3.001   3.201  11.299 -0.2951  0.2317 -0.0109
 5653TIP3    H141154   3.046   3.216  11.216 -1.4333  0.8131 -0.5457
 5653TIP3    H241155   2.992   3.106  11.305  1.6566  0.0202  0.4976
 5654TIP3   OH241156   7.496   1.181  11.158  0.0822  0.2059  0.2034
 5654TIP3    H141157   7.449   1.124  11.097  1.2321 -1.4852  0.8088
 5654TIP3    H241158   7.436   1.254  11.174 -0.8433 -0.0493 -1.7727
 5655TIP3   OH241159   3.147   5.416  13.190  0.1411 -0.2930 -0.2896
 5655TIP3    H141160   3.206   5.452  13.124 -0.0320 -0.3784 -0.4934
 5655TIP3    H241161   3.077   5.481  13.198 -0.0394 -0.4599 -0.4743
 5656TIP3   OH241162   0.119   5.170  12.056  0.0542  0.1951  0.3837
 5656TIP3    H141163   0.034   5.202  12.025 -0.2344 -1.5283 -0.7737
 5656TIP3    H241164   0.182   5.200  11.991 -0.0607 -0.6281 -0.1216
 5657TIP3   OH241165   3.133   3.481  11.138 -0.6966 -0.4076 -0.4820
 5657TIP3    H141166   3.191   3.430  11.081 -0.8127 -0.4953 -0.5231
 5657TIP3    H241167   3.167   3.465  11.226  0.7559  1.3638 -0.6702
 5658TIP3   OH241168   2.150   5.596  12.054 -0.6974 -0.0149 -0.0767
 5658TIP3    H141169   2.136   5.590  12.148 -2.1743  2.4670 -0.0633
 5658TIP3    H241170   2.237   5.636  12.045  0.1883 -1.8119  0.1476
 5659TIP3   OH241171   7.292   0.709  11.024  0.0286 -0.2363  0.4667
 5659TIP3    H141172   7.209   0.754  11.009 -0.1204 -0.8152 -0.5862
 5659TIP3    H241173   7.290   0.686  11.117 -0.4726  0.7518  0.7171
 5660TIP3   OH241174   5.309   0.767  11.015  0.6611 -0.3145 -0.4717
 5660TIP3    H141175   5.369   0.709  11.062  0.0463 -1.9850 -1.6324
 5660TIP3    H241176   5.342   0.855  11.031  2.0421 -1.0226  0.8096
 5661TIP3   OH241177   6.933   3.277  11.281 -0.7039 -0.5026 -0.3725
 5661TIP3    H141178   6.872   3.270  11.208 -1.3820  0.0043  0.1307
 5661TIP3    H241179   6.938   3.371  11.299  1.6942 -0.3146 -1.6134
 5662TIP3   OH241180   4.279   7.135  13.170 -0.1780  0.2735  0.0724
 5662TIP3    H141181   4.259   7.107  13.081  1.1051 -1.6721  0.3308
 5662TIP3    H241182   4.220   7.083  13.225  0.6006 -0.2046  0.4629
 5663TIP3   OH241183   4.556   4.186  11.679  0.3857 -0.0994 -0.4101
 5663TIP3    H141184   4.481   4.195  11.736  0.3068 -3.6439  0.2305
 5663TIP3    H241185   4.526   4.219  11.594 -1.5172 -0.4881  0.0811
 5664TIP3   OH241186   4.332   3.393  11.425  0.3181 -0.3114 -0.5476
 5664TIP3    H141187   4.253   3.403  11.478  0.3570 -3.1844  0.2306
 5664TIP3    H241188   4.401   3.432  11.479 -0.4169  1.8746 -1.0655
 5665TIP3   OH241189   1.818   1.858  12.702  0.1473 -0.3236 -0.0544
 5665TIP3    H141190   1.889   1.905  12.657  0.2617  0.2300  0.6993
 5665TIP3    H241191   1.809   1.902  12.786 -1.1344 -0.3530 -0.1584
 5666TIP3   OH241192   0.562   3.057  10.932  0.1138 -0.1739 -0.1174
 5666TIP3    H141193   0.484   3.036  10.881  0.6458 -1.1790 -0.5502
 5666TIP3    H241194   0.543   3.142  10.971 -0.3583  0.6014 -1.9119
 5667TIP3   OH241195   7.391   1.532  10.946  0.0278  0.1893 -0.4320
 5667TIP3    H141196   7.316   1.473  10.949  1.0146 -1.0970  1.8294
 5667TIP3    H241197   7.370   1.601  11.010  1.2235 -0.8654  1.1722
 5668TIP3   OH241198   1.282   7.618  11.313 -0.0174 -0.0089  0.6595
 5668TIP3    H141199   1.310   7.555  11.247  2.6416 -0.4756  2.1186
 5668TIP3    H241200   1.243   7.564  11.382 -1.0123  0.3121  0.3674
 5669TIP3   OH241201   3.242   0.813  10.752  0.0144 -0.3630  0.6873
 5669TIP3    H141202   3.178   0.840  10.819  1.3084  1.3578  1.3258
 5669TIP3    H241203   3.282   0.896  10.723  1.8434 -1.3528  0.2250
 5670TIP3   OH241204   6.630   6.484  11.942  0.4133 -0.6184  0.2889
 5670TIP3    H141205   6.687   6.408  11.930  1.6025  0.3556 -0.3899
 5670TIP3    H241206   6.642   6.536  11.863 -1.4510 -0.3865  0.1174
 5671TIP3   OH241207   4.088   7.132  11.863 -0.1613 -0.4568 -0.1197
 5671TIP3    H141208   4.100   7.042  11.832  1.2688 -0.1339 -0.5790
 5671TIP3    H241209   4.081   7.184  11.783 -1.3620 -0.1761  0.1431
 5672TIP3   OH241210   1.069   7.424  13.503 -0.0372 -0.2024  0.1076
 5672TIP3    H141211   0.979   7.429  13.471 -0.3175 -0.4916  0.8221
 5672TIP3    H241212   1.120   7.478  13.442 -0.4456 -1.2055 -1.1602
 5673TIP3   OH241213   7.412   1.347  12.915 -0.7450 -0.0191 -0.1062
 5673TIP3    H141214   7.461   1.377  12.839 -1.6266  0.3155 -0.5532
 5673TIP3    H241215   7.333   1.307  12.879 -1.8962  1.4649  0.6558
 5674TIP3   OH241216   4.025   6.134  11.507  0.0036  0.3374 -0.3163
 5674TIP3    H141217   3.942   6.090  11.488 -0.3246  0.9323 -0.2876
 5674TIP3    H241218   4.010   6.224  11.481  0.7026  0.4119 -0.4643
 5675TIP3   OH241219   2.626   3.146  11.094 -0.3293 -0.1292 -0.1401
 5675TIP3    H141220   2.570   3.171  11.020 -1.3102 -1.0222  0.2856
 5675TIP3    H241221   2.709   3.121  11.053 -1.1627 -1.5424 -1.0541
 5676TIP3   OH241222   2.249   6.833  11.972  0.3336  0.3420 -0.0407
 5676TIP3    H141223   2.322   6.895  11.976  1.2179 -0.7040  1.0254
 5676TIP3    H241224   2.287   6.754  11.934  0.0999 -0.6076  1.6074
 5677TIP3   OH241225   5.368   6.122  12.362  0.1841  0.0510  0.3327
 5677TIP3    H141226   5.341   6.193  12.421  0.9767  0.5013  0.1745
 5677TIP3    H241227   5.463   6.135  12.352 -0.1245  0.8228 -2.1265
 5678TIP3   OH241228   5.171   3.045  12.396 -0.0285 -0.3331  0.1169
 5678TIP3    H141229   5.180   2.988  12.320 -0.7968  0.2542 -0.4267
 5678TIP3    H241230   5.101   3.006  12.448 -0.6439  0.1730 -0.3206
 5679TIP3   OH241231   2.258   7.259  11.266  0.4150 -0.1794  0.1266
 5679TIP3    H141232   2.222   7.170  11.259  0.7283 -0.3153  0.2259
 5679TIP3    H241233   2.274   7.270  11.360  0.2426  0.0361  0.1301
 5680TIP3   OH241234   7.641   6.129  11.736  0.2755  0.2009 -0.0109
 5680TIP3    H141235   7.699   6.135  11.812 -0.0087 -0.4577  0.2657
 5680TIP3    H241236   7.595   6.046  11.748  1.8043 -1.0218 -2.0233
 5681TIP3   OH241237   3.766   3.092  12.753  0.1260 -0.0938 -0.2775
 5681TIP3    H141238   3.845   3.076  12.806 -0.3147  0.5969  0.6235
 5681TIP3    H241239   3.798   3.094  12.663  1.2886  0.9089  0.1179
 5682TIP3   OH241240   1.192   5.992  11.374  0.4621 -0.2448 -0.2725
 5682TIP3    H141241   1.147   5.920  11.331 -0.0611  0.2788 -0.6146
 5682TIP3    H241242   1.132   6.066  11.367 -0.7367 -0.6869  3.4383
 5683TIP3   OH241243   0.817   3.443  13.262 -0.1324  0.0845  0.2844
 5683TIP3    H141244   0.901   3.489  13.273  0.2392 -0.3256 -0.7339
 5683TIP3    H241245   0.841   3.350  13.262 -0.2483 -0.0146 -2.3410
 5684TIP3   OH241246   3.004   2.608  13.155 -0.0923  0.2804 -0.3436
 5684TIP3    H141247   3.094   2.600  13.124  0.4450  0.0720  1.1908
 5684TIP3    H241248   3.008   2.674  13.224 -0.7985 -0.9024  0.8798
 5685TIP3   OH241249   3.005   5.385  10.867  0.4521  0.1233 -0.0196
 5685TIP3    H141250   3.004   5.336  10.950 -2.4204 -1.3020 -0.7650
 5685TIP3    H241251   2.914   5.410  10.853  1.0302  1.2046 -2.2833
 5686TIP3   OH241252   0.210   1.171  11.911 -0.5149 -0.1382 -0.3989
 5686TIP3    H141253   0.284   1.184  11.851  1.0583  1.5499  1.7567
 5686TIP3    H241254   0.218   1.081  11.941  1.9558  0.5424  1.2810
 5687TIP3   OH241255   7.359   4.352  12.256 -0.0517  0.3436  0.0761
 5687TIP3    H141256   7.453   4.335  12.261 -0.0155  0.7452  0.9442
 5687TIP3    H241257   7.348   4.400  12.174  0.3463 -0.5895 -0.5519
 5688TIP3   OH241258   0.744   1.759  10.946 -0.0072  0.4369 -0.2757
 5688TIP3    H141259   0.827   1.790  10.908  0.2349  0.7926  0.5227
 5688TIP3    H241260   0.724   1.680  10.897  0.4162  0.7587 -0.9947
 5689TIP3   OH241261   2.984   7.309  12.286 -0.2087  0.1576 -0.3323
 5689TIP3    H141262   2.946   7.386  12.244  1.1210  1.6104  0.9939
 5689TIP3    H241263   3.068   7.340  12.321 -0.6121 -1.2975  2.1412
 5690TIP3   OH241264   3.143   5.049  12.668  0.7381  0.0598 -0.0921
 5690TIP3    H141265   3.154   5.130  12.718  0.0834  0.7821 -1.1047
 5690TIP3    H241266   3.060   5.059  12.623  0.5468 -1.2747 -0.0814
 5691TIP3   OH241267   0.092   1.191  12.841 -0.4085 -0.0469  0.1494
 5691TIP3    H141268   0.123   1.203  12.751 -0.5263 -0.8261 -0.0011
 5691TIP3    H241269   0.060   1.277  12.867  0.6249  0.4440 -0.1697
 5692TIP3   OH241270   6.073   2.025  11.516  0.4270 -0.1974 -0.0955
 5692TIP3    H141271   6.018   2.060  11.586  0.4051 -0.9484  0.2779
 5692TIP3    H241272   6.013   2.013  11.442  0.0807 -0.9903  0.3014
 5693TIP3   OH241273   3.130   1.223  11.574 -0.0470 -0.1103 -0.0067
 5693TIP3    H141274   3.172   1.309  11.579 -0.6710  0.2464 -0.7305
 5693TIP3    H241275   3.047   1.234  11.620 -0.8179  0.1291 -1.3680
 5694TIP3   OH241276   1.459   1.071  11.377  0.4147 -0.1206  0.2592
 5694TIP3    H141277   1.525   1.141  11.383  0.0378  0.1293  2.1791
 5694TIP3    H241278   1.385   1.103  11.429  0.0900 -1.7807  0.8923
 5695TIP3   OH241279   0.942   3.841  12.382 -0.1677 -0.4510 -0.3071
 5695TIP3    H141280   1.017   3.826  12.323 -0.2967 -0.7992 -0.3830
 5695TIP3    H241281   0.926   3.935  12.375  1.0916 -0.1282  0.7166
 5696TIP3   OH241282   5.478   7.330  10.967  0.6539  0.4302 -0.0553
 5696TIP3    H141283   5.436   7.363  11.047  2.4450  0.7919  0.7947
 5696TIP3    H241284   5.520   7.248  10.994 -2.2506 -1.7880 -1.7191
 5697TIP3   OH241285   5.304   4.394  13.529  0.0264 -0.3959  0.1554
 5697TIP3    H141286   5.301   4.427  13.619 -1.7774 -3.7820  1.4962
 5697TIP3    H241287   5.236   4.443  13.483 -1.0258 -0.5796  1.4502
 5698TIP3   OH241288   4.370   2.438  13.059  0.9313  0.3873  0.2197
 5698TIP3    H141289   4.306   2.464  13.126  0.5657  1.3015 -0.4572
 5698TIP3    H241290   4.424   2.371  13.101  1.2880  1.5776  1.7389
 5699TIP3   OH241291   3.986   6.304  12.191  0.0743 -0.6954  0.2637
 5699TIP3    H141292   4.018   6.214  12.193  2.2586 -0.0083 -1.0229
 5699TIP3    H241293   4.026   6.345  12.267 -1.1154 -0.8229  0.9906
 5700TIP3   OH241294   2.047   5.155  11.913 -0.2159  0.2260  0.1068
 5700TIP3    H141295   2.066   5.125  11.824  1.6773  1.9319 -0.1341
 5700TIP3    H241296   2.116   5.116  11.967  1.2462  2.5297  0.0559
 5701TIP3   OH241297   4.636   4.986  12.115 -0.1009 -0.3658 -0.4137
 5701TIP3    H141298   4.604   4.916  12.172  1.0982 -0.4520  0.1856
 5701TIP3    H241299   4.686   4.941  12.048 -1.5811 -0.2697 -1.6432
 5702TIP3   OH241300   0.266   3.143  12.673  0.0863  0.2420  0.1302
 5702TIP3    H141301   0.338   3.088  12.644  1.6519  2.1323  0.2530
 5702TIP3    H241302   0.189   3.087  12.667  1.7047 -2.2321  1.1356
 5703TIP3   OH241303   0.475   5.434  10.700 -0.0155  0.2872  0.1296
 5703TIP3    H141304   0.514   5.423  10.787 -0.7813 -0.2027  0.4211
 5703TIP3    H241305   0.473   5.345  10.664  3.2011  0.8190 -1.7104
 5704TIP3   OH241306   3.222   1.274  13.124  0.0891 -0.3747  0.6215
 5704TIP3    H141307   3.216   1.187  13.162 -2.9421 -0.1527  0.8930
 5704TIP3    H241308   3.168   1.329  13.180  2.6359  1.9618  0.9874
 5705TIP3   OH241309   3.453   2.123  13.147 -0.4486 -0.2605 -0.3176
 5705TIP3    H141310   3.476   2.105  13.238 -0.2802 -3.0956 -0.8482
 5705TIP3    H241311   3.395   2.199  13.152  0.2310  0.1864  2.0481
 5706TIP3   OH241312   3.175   5.748  11.476 -0.0185 -1.0169 -0.3928
 5706TIP3    H141313   3.139   5.834  11.498  0.7700 -1.0374  1.0905
 5706TIP3    H241314   3.263   5.748  11.513 -0.1576 -2.6164  0.0304
 5707TIP3   OH241315   6.471   4.929  12.410 -0.4310  0.2209  0.1218
 5707TIP3    H141316   6.455   4.912  12.503 -2.5139 -1.0019 -0.3889
 5707TIP3    H241317   6.393   4.976  12.380  0.0078  0.2041 -1.1166
 5708TIP3   OH241318   6.500   4.534  11.903 -0.5001  0.2487  0.8839
 5708TIP3    H141319   6.427   4.473  11.892 -0.8749  0.9309 -0.6781
 5708TIP3    H241320   6.566   4.504  11.840  0.1419  0.2594  1.5451
 5709TIP3   OH241321   0.955   0.796  13.633  0.3104  0.0469 -0.1162
 5709TIP3    H141322   1.018   0.854  13.676 -0.2168  1.0199 -0.6110
 5709TIP3    H241323   1.008   0.737  13.580  0.7855  1.5294 -1.3548
 5710TIP3   OH241324   6.851   2.188  11.005 -0.3403  0.0456 -0.1536
 5710TIP3    H141325   6.819   2.214  10.919 -0.0506  2.1237  0.3080
 5710TIP3    H241326   6.872   2.270  11.049  2.0735 -1.0318  0.9395
 5711TIP3   OH241327   3.823   5.684  13.081 -0.4712  0.1230  0.3231
 5711TIP3    H141328   3.776   5.657  13.002 -1.3161  0.8015  0.5668
 5711TIP3    H241329   3.915   5.670  13.061 -0.6510  0.5810 -0.8996
 5712TIP3   OH241330   1.764   5.859  11.286  0.4246 -0.1320 -0.5808
 5712TIP3    H141331   1.693   5.842  11.225  0.6072 -0.5803 -0.6743
 5712TIP3    H241332   1.769   5.780  11.340 -0.4632  0.6876  0.7574
 5713TIP3   OH241333   3.467   7.196  12.834 -0.2701 -0.1022 -0.4158
 5713TIP3    H141334   3.397   7.248  12.873  0.4217 -0.9055  2.0738
 5713TIP3    H241335   3.533   7.261  12.809 -1.5417  0.6010 -2.1700
 5714TIP3   OH241336   6.701   3.538  10.877  0.5453  0.3609 -0.1381
 5714TIP3    H141337   6.720   3.481  10.803 -0.3307 -2.1303  1.4472
 5714TIP3    H241338   6.608   3.560  10.868 -0.5773 -2.8132  1.8729
 5715TIP3   OH241339   5.792   4.846  12.005 -0.1877  0.2633  0.2560
 5715TIP3    H141340   5.822   4.765  12.047  2.6255  0.9699 -0.2404
 5715TIP3    H241341   5.735   4.816  11.933  2.6490 -1.5073 -1.4197
 5716TIP3   OH241342   5.565   3.928  12.975 -0.0237 -0.4515 -0.0510
 5716TIP3    H141343   5.627   3.863  12.942  0.1133 -0.4885  0.2824
 5716TIP3    H241344   5.504   3.942  12.902  0.9374  0.3090 -0.7350
 5717TIP3   OH241345   7.393   0.570  12.176  0.0975 -0.5194  0.0456
 5717TIP3    H141346   7.380   0.535  12.264  1.2154  0.0364  0.4407
 5717TIP3    H241347   7.370   0.663  12.184 -2.9353 -1.0636 -1.0155
 5718TIP3   OH241348   1.405   0.849  12.232 -0.1627 -0.1904  0.5304
 5718TIP3    H141349   1.427   0.939  12.209  1.4924 -0.8394 -0.6334
 5718TIP3    H241350   1.453   0.832  12.313 -2.0822  0.5551  1.8925
 5719TIP3   OH241351   7.398   6.853  11.337  0.0133 -0.0390 -0.6991
 5719TIP3    H141352   7.447   6.934  11.323 -0.0571 -0.1659 -1.7230
 5719TIP3    H241353   7.452   6.803  11.399  0.7697  0.1692 -1.1757
 5720TIP3   OH241354   3.591   3.894  11.458  0.2476  0.4990  0.4728
 5720TIP3    H141355   3.495   3.891  11.464  0.2258  2.2540  1.5950
 5720TIP3    H241356   3.619   3.934  11.539  1.8885  0.9156 -0.2612
 5721TIP3   OH241357   4.120   4.103  10.777  0.3367 -0.2292  0.2034
 5721TIP3    H141358   4.040   4.120  10.827 -0.9196  0.8305 -1.9840
 5721TIP3    H241359   4.141   4.188  10.737  1.5480 -0.9132 -0.6543
 5722TIP3   OH241360   6.765   4.564  10.496 -0.5757 -0.1425 -0.4408
 5722TIP3    H141361   6.734   4.618  10.423 -3.3314  1.4281  1.7320
 5722TIP3    H241362   6.812   4.625  10.553 -0.9183 -0.7073  0.4680
 5723TIP3   OH241363   1.588   0.378  11.767 -0.1462 -0.1235  0.3122
 5723TIP3    H141364   1.506   0.335  11.791  0.3536 -0.8199  0.7913
 5723TIP3    H241365   1.592   0.455  11.823 -1.7644  1.4426 -1.5457
 5724TIP3   OH241366   2.124   7.449  11.879  0.1908 -0.5745 -0.1169
 5724TIP3    H141367   2.188   7.520  11.890  0.9533 -1.0980 -1.0532
 5724TIP3    H241368   2.050   7.476  11.934  0.7306  0.6202  0.0724
 5725TIP3   OH241369   6.263   6.279  12.198  0.0011  0.4313  0.6389
 5725TIP3    H141370   6.210   6.317  12.267 -0.5470  0.4466  0.2187
 5725TIP3    H241371   6.274   6.349  12.134  0.3635  0.3708  0.6308
 5726TIP3   OH241372   1.182   6.674  12.019  0.7372 -0.1212 -0.0814
 5726TIP3    H141373   1.183   6.769  12.025  0.1123  0.0050 -1.5922
 5726TIP3    H241374   1.144   6.645  12.102 -2.6107  1.1312 -1.0520
 5727TIP3   OH241375   4.084   4.521  11.928  0.3421  0.2457  0.6827
 5727TIP3    H141376   3.999   4.545  11.892  0.4066  1.9048  1.5231
 5727TIP3    H241377   4.068   4.441  11.978 -0.4830 -0.0472 -0.0220
 5728TIP3   OH241378   6.560   6.624  11.270  0.1437 -0.7446  0.0815
 5728TIP3    H141379   6.612   6.685  11.323 -0.5700 -0.1856  0.1600
 5728TIP3    H241380   6.602   6.625  11.185 -0.0612  0.1401 -0.0191
 5729TIP3   OH241381   7.382   4.530  12.744 -0.1956  0.8478  0.3976
 5729TIP3    H141382   7.428   4.609  12.715  1.9707 -0.0898  1.0218
 5729TIP3    H241383   7.429   4.459  12.701 -1.4105 -0.1584  0.7049
 5730TIP3   OH241384   7.381   2.397  13.722  0.3186 -0.0716  0.3637
 5730TIP3    H141385   7.373   2.490  13.703 -1.4975 -0.1278  0.7303
 5730TIP3    H241386   7.333   2.354  13.652  0.4092 -0.6932  0.6737
 5731TIP3   OH241387   2.100   0.730  10.976 -0.2829  0.0408  0.2615
 5731TIP3    H141388   2.168   0.675  11.014  0.2143  0.3313 -0.1942
 5731TIP3    H241389   2.144   0.813  10.957 -0.2698 -0.3697 -1.7525
 5732TIP3   OH241390   7.155   0.596  11.574 -0.5602  0.0424  0.7289
 5732TIP3    H141391   7.108   0.570  11.495  0.3381 -0.5617  0.3675
 5732TIP3    H241392   7.243   0.617  11.543 -1.0091  2.8657  1.1114
 5733TIP3   OH241393   6.240   6.948  12.305 -0.1269 -0.3529  0.1164
 5733TIP3    H141394   6.334   6.937  12.315 -0.1096 -0.0856  0.2471
 5733TIP3    H241395   6.205   6.935  12.393 -0.3194 -1.5174 -0.1183
 5734TIP3   OH241396   5.626   0.922  11.135  0.0273 -0.5125  0.4421
 5734TIP3    H141397   5.567   0.855  11.170  0.4627  0.4522  3.3171
 5734TIP3    H241398   5.711   0.879  11.129 -0.1540 -0.8249  0.1452
 5735TIP3   OH241399   2.387   7.179  12.479 -0.2744  0.1790  0.5706
 5735TIP3    H141400   2.434   7.228  12.412 -0.7298 -0.1873 -0.0325
 5735TIP3    H241401   2.348   7.106  12.432 -1.1401  0.2736  1.1145
 5736TIP3   OH241402   3.586   5.167  13.382  0.5204  0.6300 -0.0852
 5736TIP3    H141403   3.525   5.102  13.417  0.8241  0.0681 -0.5966
 5736TIP3    H241404   3.593   5.232  13.452 -1.2194  1.0932 -0.2861
 5737TIP3   OH241405   0.320   5.734  12.232  0.5180  0.8989 -0.4829
 5737TIP3    H141406   0.387   5.668  12.215 -0.8905 -0.6221 -0.3199
 5737TIP3    H241407   0.243   5.703  12.185 -0.5885  1.6768  0.7469
 5738TIP3   OH241408   2.152   5.867  12.908 -0.4098  0.1215  0.6575
 5738TIP3    H141409   2.154   5.892  12.815 -0.4994 -0.3550  0.5277
 5738TIP3    H241410   2.236   5.824  12.923  0.0865  1.2108  1.0869
 5739TIP3   OH241411   2.195   7.575  12.183 -0.0951  0.5225  0.1325
 5739TIP3    H141412   2.140   7.652  12.168  1.1608  0.9833 -2.7483
 5739TIP3    H241413   2.136   7.501  12.172 -1.2830  0.9322  2.7733
 5740TIP3   OH241414   0.063   7.363  12.684 -0.6512  0.2573 -0.3719
 5740TIP3    H141415   0.057   7.351  12.779 -1.9920  1.2826 -0.3023
 5740TIP3    H241416  -0.004   7.305  12.648 -1.1292  0.9308 -0.5862
 5741TIP3   OH241417   6.033   2.222  12.000 -0.1767  0.5911 -1.0922
 5741TIP3    H141418   6.109   2.188  11.953  0.4614  1.4766 -0.7359
 5741TIP3    H241419   5.970   2.150  12.000  1.2117 -0.6881 -0.1420
 5742TIP3   OH241420   2.951   0.052  12.700 -0.2839  0.0671 -0.5290
 5742TIP3    H141421   2.926  -0.033  12.664  0.4529 -0.1950 -0.4496
 5742TIP3    H241422   3.044   0.061  12.677  0.2084 -0.1026  1.2618
 5743TIP3   OH241423   1.798   7.474  18.006 -0.5925  0.2860  0.0633
 5743TIP3    H141424   1.827   7.522  17.929  2.4075 -1.7069 -0.2159
 5743TIP3    H241425   1.872   7.478  18.066 -1.3337 -1.5358  1.1828
 5744TIP3   OH241426   1.846   0.772  11.941 -0.1569  0.3527  0.0878
 5744TIP3    H141427   1.852   0.762  12.037  1.3266  2.3127  0.2515
 5744TIP3    H241428   1.833   0.866  11.927  1.4569  0.3621 -1.6849
 5745TIP3   OH241429   1.848   6.296  12.674  0.2158 -0.2714  0.0383
 5745TIP3    H141430   1.850   6.227  12.740 -1.9757 -0.0761  0.3916
 5745TIP3    H241431   1.919   6.355  12.698  0.5447 -1.1192  1.1984
 5746TIP3   OH241432   1.229   2.052  13.273  0.0249  0.0098  0.0041
 5746TIP3    H141433   1.260   1.995  13.343 -0.3719  0.2068  0.3483
 5746TIP3    H241434   1.308   2.077  13.226  0.0347 -2.8626 -1.7654
 5747TIP3   OH241435   6.697   3.588  12.166 -0.4255 -0.0505  0.1235
 5747TIP3    H141436   6.722   3.574  12.074 -3.4111 -0.3052 -0.7596
 5747TIP3    H241437   6.748   3.522  12.214  0.8046 -0.2868 -1.3932
 5748TIP3   OH241438   6.721   7.210  12.145  0.1645 -1.1915  0.4780
 5748TIP3    H141439   6.628   7.234  12.147 -0.0162 -1.7848 -0.3001
 5748TIP3    H241440   6.767   7.294  12.153 -0.4195 -0.9562  1.6322
 5749TIP3   OH241441   3.142   5.807  12.382  0.2798 -0.1171  0.2117
 5749TIP3    H141442   3.238   5.814  12.382  0.2843 -0.1801  0.1243
 5749TIP3    H241443   3.112   5.888  12.339  0.3172 -0.3990 -0.3638
 5750TIP3   OH241444   5.837   5.868  12.541 -0.9474  0.7254  0.1571
 5750TIP3    H141445   5.917   5.890  12.494 -0.4821  0.9215  1.0319
 5750TIP3    H241446   5.767   5.897  12.482 -0.5474 -2.8304 -2.3882
 5751TIP3   OH241447   3.681   2.076  12.013 -0.4173  0.4342  0.0253
 5751TIP3    H141448   3.686   2.117  12.099 -0.5443  0.6119 -0.0522
 5751TIP3    H241449   3.704   1.984  12.029  0.2813  0.6226  0.1305
 5752TIP3   OH241450   1.195   0.937  13.178  0.1630 -0.0634 -0.1580
 5752TIP3    H141451   1.109   0.893  13.173 -0.2821  0.7147  0.4319
 5752TIP3    H241452   1.232   0.908  13.261  1.2232 -1.7041 -1.1658
 5753TIP3   OH241453   5.254   1.844  12.612 -0.0206 -0.2664  0.2464
 5753TIP3    H141454   5.348   1.823  12.619 -0.0437 -0.4492  0.0418
 5753TIP3    H241455   5.211   1.758  12.615 -0.1470 -0.2186 -0.1799
 5754TIP3   OH241456   3.314   6.647  11.836 -0.0435 -0.1436  0.2075
 5754TIP3    H141457   3.247   6.582  11.855 -0.6327  0.6708  0.9653
 5754TIP3    H241458   3.271   6.731  11.848  1.7014  0.4588  3.1987
 5755TIP3   OH241459   4.215   3.388  12.937  0.3825 -0.5400 -0.2847
 5755TIP3    H141460   4.191   3.473  12.974  1.6376  0.4862 -1.7103
 5755TIP3    H241461   4.163   3.325  12.987 -0.3647  1.0224  1.0136
 5756TIP3   OH241462   7.550   2.877  11.943  0.0829  0.1731  0.2906
 5756TIP3    H141463   7.556   2.926  11.861  1.1057  0.5076  0.5510
 5756TIP3    H241464   7.585   2.790  11.922 -0.2441  0.0565  0.2217
 5757TIP3   OH241465   3.072   7.225  11.998  0.3801  0.4249 -0.1327
 5757TIP3    H141466   3.159   7.207  11.962 -0.3234  1.6219 -2.6224
 5757TIP3    H241467   3.087   7.233  12.092  2.6055 -1.3620 -0.2435
 5758TIP3   OH241468   5.081   3.659  13.041 -0.3303  0.7004  0.4215
 5758TIP3    H141469   5.175   3.664  13.024 -0.1878 -3.0704 -0.8308
 5758TIP3    H241470   5.041   3.709  12.970  0.6884  0.9017 -0.0295
 5759TIP3   OH241471   4.800   7.654  12.255 -0.2895  0.3636 -0.0778
 5759TIP3    H141472   4.746   7.722  12.295  0.6944  0.8236  0.5027
 5759TIP3    H241473   4.741   7.609  12.195 -1.0450  1.5145 -0.2259
 5760TIP3   OH241474   3.815   6.070  11.217 -0.5828 -0.7789 -0.4873
 5760TIP3    H141475   3.892   6.038  11.169 -0.1881 -1.0328  0.2936
 5760TIP3    H241476   3.824   6.166  11.215  0.6875 -0.8283  1.0395
 5761TIP3   OH241477   2.549   6.866  11.298 -0.3078 -0.6593 -0.5029
 5761TIP3    H141478   2.566   6.808  11.225  2.4272  0.3526 -0.7899
 5761TIP3    H241479   2.476   6.826  11.345  0.1274 -3.1634 -1.8314
 5762TIP3   OH241480   3.260   5.376  13.856  0.7463  0.0698  0.2894
 5762TIP3    H141481   3.340   5.410  13.896  1.2061 -1.9525  1.2042
 5762TIP3    H241482   3.197   5.447  13.866  2.3829  1.7101 -0.4277
 5763TIP3   OH241483   0.553   2.346  12.039  0.4325 -0.1078 -0.0447
 5763TIP3    H141484   0.563   2.252  12.024  1.2882 -0.0598  0.1882
 5763TIP3    H241485   0.514   2.379  11.958  0.9899 -0.5239 -0.4912
 5764TIP3   OH241486   1.782   3.158  11.612  0.3922 -0.3313 -0.5401
 5764TIP3    H141487   1.689   3.140  11.597 -0.8579  1.7948  3.1770
 5764TIP3    H241488   1.800   3.236  11.561 -1.3846  2.0129  2.0855
 5765TIP3   OH241489   1.848   7.453  11.213  0.1761 -0.0833  0.4440
 5765TIP3    H141490   1.859   7.480  11.122 -0.2338  1.0699  0.7211
 5765TIP3    H241491   1.753   7.446  11.224  0.2387 -0.5684  0.6875
 5766TIP3   OH241492   3.621   7.530  11.556 -0.0764 -0.2164  0.5199
 5766TIP3    H141493   3.528   7.509  11.548  0.1693 -1.0742 -0.4141
 5766TIP3    H241494   3.666   7.452  11.521  0.9811  0.3086  0.6676
 5767TIP3   OH241495   2.248   3.597  12.158 -0.5190  0.2565 -0.0752
 5767TIP3    H141496   2.253   3.639  12.073  0.0714  1.6727  0.6145
 5767TIP3    H241497   2.169   3.633  12.198 -1.3236 -1.1349 -0.3769
 5768TIP3   OH241498   4.671   7.619  11.376  0.2830  0.0542  0.4546
 5768TIP3    H141499   4.748   7.675  11.373 -0.3409  0.9066 -0.0853
 5768TIP3    H241500   4.652   7.600  11.284 -1.0116  1.0827  0.4809
 5769TIP3   OH241501   2.513   5.602  11.978 -0.5421  0.3245 -0.0691
 5769TIP3    H141502   2.526   5.691  11.946 -3.0823  1.2045  1.0733
 5769TIP3    H241503   2.569   5.595  12.055 -0.1328  0.8598 -0.3159
 5770TIP3   OH241504   3.133   2.427  11.933 -0.2711  0.0479 -0.4527
 5770TIP3    H141505   3.085   2.414  12.015  0.8479  1.3651  0.4445
 5770TIP3    H241506   3.108   2.351  11.879 -0.0966 -1.5220  1.5494
 5771TIP3   OH241507   5.125   1.735  12.259 -0.2337  0.2423 -0.4522
 5771TIP3    H141508   5.069   1.702  12.329 -0.5863  1.9148  0.1087
 5771TIP3    H241509   5.072   1.727  12.180 -0.2227 -0.6983 -0.3755
 5772TIP3   OH241510   3.451   0.141  11.762 -0.0325  0.8043 -0.2390
 5772TIP3    H141511   3.518   0.207  11.778 -0.4576  1.0809  0.4626
 5772TIP3    H241512   3.369   0.183  11.789 -0.4280  0.3077 -0.6361
 5773TIP3   OH241513   5.465   7.355  11.706  0.0791 -0.3392  0.6501
 5773TIP3    H141514   5.559   7.345  11.716  0.4605  2.5432  0.5059
 5773TIP3    H241515   5.436   7.397  11.786 -0.4046  2.3422 -0.8310
 5774TIP3   OH241516   6.895   7.018  11.161  0.3556  0.5363  0.1690
 5774TIP3    H141517   6.967   7.079  11.179 -0.3306  1.1168  0.9803
 5774TIP3    H241518   6.820   7.054  11.208 -0.5391  0.0582 -0.8421
 5775TIP3   OH241519   7.043   5.288  13.046 -0.2842 -0.1374 -0.2895
 5775TIP3    H141520   7.114   5.341  13.084 -0.1165 -1.3138  1.1176
 5775TIP3    H241521   6.977   5.283  13.114 -0.2976 -1.7296 -0.3851
 5776TIP3   OH241522   1.342   4.968  12.911  0.1391  0.2053 -0.6474
 5776TIP3    H141523   1.433   4.995  12.910  0.1038  0.3727  0.2072
 5776TIP3    H241524   1.320   4.958  13.003 -0.6463 -0.0393 -0.8478
 5777TIP3   OH241525   2.150   2.935  11.535  0.1474 -0.3289  0.5718
 5777TIP3    H141526   2.217   2.999  11.560 -1.5408  2.8780 -2.2290
 5777TIP3    H241527   2.196   2.875  11.476  1.2571 -0.1876  1.2541
 5778TIP3   OH241528   6.149   2.566  12.470  1.2756  0.2516  0.1003
 5778TIP3    H141529   6.116   2.538  12.384  0.0088  0.8315  0.3608
 5778TIP3    H241530   6.169   2.485  12.516  0.1575 -0.1621 -0.0910
 5779TIP3   OH241531   3.931   4.067  12.187 -0.2732  0.0321  0.4071
 5779TIP3    H141532   3.971   4.141  12.141 -0.7650 -0.7560 -1.3680
 5779TIP3    H241533   4.000   4.002  12.194 -0.4136 -0.1668  0.0099
 5780TIP3   OH241534   5.533   0.800  13.149  0.4474  0.5549 -0.1464
 5780TIP3    H141535   5.490   0.822  13.066  0.8512 -1.8790 -1.1128
 5780TIP3    H241536   5.474   0.738  13.191  1.6257 -0.6220 -0.1350
 5781TIP3   OH241537   3.983   5.278  13.033 -0.2048  0.6384  0.1025
 5781TIP3    H141538   4.017   5.336  13.100  0.4103  0.4035 -0.0039
 5781TIP3    H241539   3.888   5.281  13.045 -0.0494 -0.5051  1.9054
 5782TIP3   OH241540   3.429   4.398  12.572  0.9106 -0.6052  0.0652
 5782TIP3    H141541   3.370   4.470  12.549 -0.5352 -1.3643  1.3214
 5782TIP3    H241542   3.420   4.336  12.499  0.5846 -0.4704 -0.0117
 5783TIP3   OH241543   2.808   6.701  11.318  0.3031  0.1081  0.5548
 5783TIP3    H141544   2.834   6.618  11.356  0.5167 -1.7244 -3.1100
 5783TIP3    H241545   2.889   6.736  11.279 -0.6991 -0.9494 -2.8106
 5784TIP3   OH241546   2.003   6.894  12.467 -0.2429 -0.4466  0.3397
 5784TIP3    H141547   2.063   6.933  12.531 -1.5425  2.8007 -0.1913
 5784TIP3    H241548   2.053   6.893  12.385  0.3491 -1.4972  0.7065
 5785TIP3   OH241549   2.166   2.843  11.266  0.1871  0.8049  0.6765
 5785TIP3    H141550   2.124   2.757  11.275  0.2216  0.7521  0.3405
 5785TIP3    H241551   2.210   2.839  11.181  3.9924 -0.4921  2.4905
 5786TIP3   OH241552   0.799   2.068  11.433  0.4949 -0.2790  0.0508
 5786TIP3    H141553   0.766   2.036  11.349  0.5942  1.0383 -0.5201
 5786TIP3    H241554   0.866   2.005  11.458  1.4764  0.0548 -1.5888
 5787TIP3   OH241555   3.993   0.178  12.658 -0.5002 -0.2920  0.1201
 5787TIP3    H141556   4.002   0.244  12.590 -0.3029  1.0260  1.3802
 5787TIP3    H241557   3.906   0.141  12.645 -1.2086  1.2745  0.2916
 5788TIP3   OH241558   4.977   1.953  11.826  0.5693  0.3218  0.7979
 5788TIP3    H141559   5.049   1.908  11.869  0.1863 -1.0714  0.0555
 5788TIP3    H241560   4.909   1.958  11.894  0.3628 -0.8829  0.7062
 5789TIP3   OH241561   3.477   4.692  10.973 -0.4104  0.0148  0.2207
 5789TIP3    H141562   3.564   4.715  10.940  0.5539 -2.4089  0.8196
 5789TIP3    H241563   3.436   4.776  10.994  1.9318  1.2326  0.2922
 5790TIP3   OH241564   5.234   2.823  12.847 -0.0603  0.4997  0.4060
 5790TIP3    H141565   5.260   2.886  12.915 -0.6645 -1.3643  2.4604
 5790TIP3    H241566   5.310   2.766  12.837 -0.7259 -0.5153  1.0657
 5791TIP3   OH241567   2.958   5.140  13.478  0.4440 -0.5914  0.1665
 5791TIP3    H141568   2.993   5.144  13.389  0.7378  0.1744  0.3106
 5791TIP3    H241569   3.024   5.183  13.532  0.3250 -1.1553  0.7768
 5792TIP3   OH241570   4.715   4.406  11.736 -0.1672  0.3597 -0.2083
 5792TIP3    H141571   4.788   4.395  11.675  0.0319  0.5252  0.0009
 5792TIP3    H241572   4.659   4.329  11.721 -0.0744  0.3582 -0.5370
 5793TIP3   OH241573   3.358   7.330  12.012  0.3352  0.8196 -0.1342
 5793TIP3    H141574   3.345   7.359  11.922  0.3194  0.3795 -0.2748
 5793TIP3    H241575   3.400   7.244  12.004  0.2624  0.7439  0.2755
 5794TIP3   OH241576   0.355   3.386  12.756 -0.4198 -0.3829 -0.6326
 5794TIP3    H141577   0.406   3.346  12.826 -0.4827  0.7587  0.0960
 5794TIP3    H241578   0.302   3.315  12.720 -1.6270 -0.6951  1.5892
 5795TIP3   OH241579   4.664   0.159  12.817  0.5263  0.2051  0.2034
 5795TIP3    H141580   4.667   0.224  12.887 -0.8103 -0.2353  0.6916
 5795TIP3    H241581   4.596   0.098  12.843  1.1231 -0.8954 -0.7045
 5796TIP3   OH241582   6.317   4.523  12.159 -0.1076  0.4551 -0.1056
 5796TIP3    H141583   6.288   4.565  12.078 -0.3971  2.5182  0.9878
 5796TIP3    H241584   6.306   4.591  12.226  0.1430 -1.1773  1.6676
 5797TIP3   OH241585   3.567   5.752  11.869  0.9992 -0.4249 -0.3983
 5797TIP3    H141586   3.559   5.701  11.789  1.3497 -1.9959  0.5120
 5797TIP3    H241587   3.661   5.769  11.877  0.9279  0.0139 -0.4850
 5798TIP3   OH241588   6.389   0.948  11.355  0.1744 -0.2198 -0.7472
 5798TIP3    H141589   6.462   0.914  11.304  0.2262 -1.1557 -0.0726
 5798TIP3    H241590   6.419   0.942  11.446 -0.6860 -0.4647 -0.4770
 5799TIP3   OH241591   2.564   7.652  11.409  0.4128  0.2636  0.2402
 5799TIP3    H141592   2.579   7.613  11.323  0.7819 -1.5650  1.0808
 5799TIP3    H241593   2.612   7.735  11.407 -1.9492  1.7591 -2.2828
 5800TIP3   OH241594   3.550   0.535  13.811 -0.2850 -0.7944 -0.0084
 5800TIP3    H141595   3.609   0.555  13.739  1.7431 -1.5751  1.3339
 5800TIP3    H241596   3.520   0.620  13.843 -1.2365 -0.4403 -1.7238
 5801TIP3   OH241597   1.490   2.407  12.806 -0.5687  0.5821  0.1767
 5801TIP3    H141598   1.468   2.453  12.886 -2.0534  1.0061 -0.4262
 5801TIP3    H241599   1.412   2.417  12.751 -0.0507 -0.7070 -0.8528
 5802TIP3   OH241600   0.124   0.510  10.921  0.0689 -0.2502  0.3152
 5802TIP3    H141601   0.033   0.503  10.949  0.1901 -1.0303  0.5281
 5802TIP3    H241602   0.159   0.422  10.930  0.5883 -0.1578 -0.6532
 5803TIP3   OH241603   3.491   3.352  12.924  0.7979 -0.0751 -0.2120
 5803TIP3    H141604   3.487   3.266  12.881 -1.8873 -0.0069 -0.2734
 5803TIP3    H241605   3.506   3.331  13.017  0.3843 -0.6110 -0.2589
 5804TIP3   OH241606   4.004   6.879  11.818  0.1499  0.1183 -0.2270
 5804TIP3    H141607   3.949   6.809  11.852 -1.5007  1.2963 -0.3688
 5804TIP3    H241608   4.086   6.836  11.795 -0.8005 -1.7542 -0.2726
 5805TIP3   OH241609   2.757   7.556  11.714  0.6452 -0.2094  0.1159
 5805TIP3    H141610   2.664   7.574  11.731  0.2074 -1.2924 -0.9950
 5805TIP3    H241611   2.781   7.492  11.781  1.1727  1.5239  1.6654
 5806TIP3   OH241612   5.225   7.090  12.816 -0.4081  0.5234  0.6430
 5806TIP3    H141613   5.314   7.079  12.848 -0.4914  0.4560  0.8528
 5806TIP3    H241614   5.170   7.044  12.880 -0.4909 -0.5135 -0.1539
 5807TIP3   OH241615   6.688   6.124  11.271 -0.0137 -0.2258  0.2087
 5807TIP3    H141616   6.611   6.073  11.296  0.3079 -0.9197 -0.1922
 5807TIP3    H241617   6.724   6.154  11.355 -1.7819  1.7584  0.3373
 5808TIP3   OH241618   0.407   3.098  12.393  0.3746  0.1286 -0.9543
 5808TIP3    H141619   0.327   3.118  12.345  1.1098  1.3599 -1.7200
 5808TIP3    H241620   0.472   3.079  12.325  0.8149 -0.5609 -0.3550
 5809TIP3   OH241621   5.368   4.217  11.883  0.0060  0.4014 -0.3799
 5809TIP3    H141622   5.339   4.204  11.973 -0.0157 -0.0320 -0.4476
 5809TIP3    H241623   5.434   4.286  11.889 -1.2766  1.6504 -0.2778
 5810TIP3   OH241624   3.193   3.437  12.042 -0.0808 -0.9361  0.2549
 5810TIP3    H141625   3.143   3.517  12.059  0.6907  0.2672 -2.6187
 5810TIP3    H241626   3.271   3.445  12.096 -0.2915 -0.0432  0.4447
 5811TIP3   OH241627   0.325   2.620  12.936 -0.3064 -0.1254  0.2353
 5811TIP3    H141628   0.406   2.579  12.968  0.3357  0.8422 -0.0832
 5811TIP3    H241629   0.319   2.594  12.845  0.5676  1.1099 -0.2169
 5812TIP3   OH241630   3.188   6.160  11.894  0.0531  0.6805  0.6622
 5812TIP3    H141631   3.097   6.129  11.898  0.1970  0.3289  1.2720
 5812TIP3    H241632   3.240   6.080  11.882  0.4574  0.6038  2.6618
 5813TIP3   OH241633   0.580   2.091  11.598 -0.5145 -0.3054 -0.0820
 5813TIP3    H141634   0.652   2.074  11.537 -0.2131 -1.9786  0.6871
 5813TIP3    H241635   0.504   2.049  11.559 -0.6883 -0.0168 -0.0591
 5814TIP3   OH241636   0.490   4.893  13.253 -0.3805  0.0516 -0.1794
 5814TIP3    H141637   0.462   4.983  13.272 -0.5381  0.1151 -0.6972
 5814TIP3    H241638   0.522   4.859  13.337  2.1215  1.4496 -0.4454
 5815TIP3   OH241639   0.669   2.156  12.630  0.7318  0.2003  0.1401
 5815TIP3    H141640   0.636   2.225  12.688  1.7237  2.0206 -1.3383
 5815TIP3    H241641   0.594   2.098  12.616 -0.3714  1.3969  0.8501
 5816TIP3   OH241642   1.227   5.503  12.352 -0.4219 -0.1769 -0.4929
 5816TIP3    H141643   1.274   5.586  12.364 -0.2321 -0.0980 -1.6278
 5816TIP3    H241644   1.295   5.442  12.323 -0.7344 -0.4838 -0.5770
 5817TIP3   OH241645   1.228   2.954  11.521  0.3695  0.0054  0.2596
 5817TIP3    H141646   1.316   2.915  11.525  0.0523 -0.6687  0.8824
 5817TIP3    H241647   1.175   2.889  11.474 -0.1646 -0.3540  1.3188
 5818TIP3   OH241648   7.330   3.460  11.215 -0.3443  0.6636  0.3753
 5818TIP3    H141649   7.306   3.432  11.127 -2.5280  0.6341  0.9042
 5818TIP3    H241650   7.394   3.394  11.244 -0.2646  0.1695 -0.8522
 5819TIP3   OH241651   0.681   5.438  10.516 -0.2206 -0.1607 -0.5219
 5819TIP3    H141652   0.665   5.345  10.506  2.2561 -0.7052  0.0040
 5819TIP3    H241653   0.613   5.468  10.577  0.8887 -2.3709  2.0079
 5820TIP3   OH241654   6.844   0.259  12.016 -0.0176  0.3762  0.2009
 5820TIP3    H141655   6.759   0.282  11.978 -0.5270  1.1650  1.7576
 5820TIP3    H241656   6.822   0.214  12.097  1.0460  1.3616  1.0597
 5821TIP3   OH241657   5.756   3.394  11.031  0.6374  0.0483  0.0268
 5821TIP3    H141658   5.686   3.400  11.096  0.1656 -0.4479 -0.4243
 5821TIP3    H241659   5.739   3.467  10.970  0.5307 -0.0562 -0.0676
 5822TIP3   OH241660   5.004   5.068  10.954  0.1705  0.3272  0.8475
 5822TIP3    H141661   4.956   5.048  11.034  2.1589  0.7177  2.2155
 5822TIP3    H241662   5.002   5.164  10.948  1.0588  0.3716  1.1274
 5823TIP3   OH241663   5.093   6.477  11.833 -0.5969 -0.2864 -0.0481
 5823TIP3    H141664   5.039   6.399  11.821 -0.5293 -0.3900  0.2985
 5823TIP3    H241665   5.182   6.444  11.838 -0.7254 -0.4316  2.2254
 5824TIP3   OH241666   4.830   5.847  11.845 -0.3507  0.0040  1.0263
 5824TIP3    H141667   4.870   5.764  11.818  0.9313  1.2959 -1.3074
 5824TIP3    H241668   4.819   5.838  11.940  0.1157 -2.6681  0.8990
 5825TIP3   OH241669   1.397   6.748  11.819 -0.2050 -0.1701  0.2327
 5825TIP3    H141670   1.467   6.804  11.785 -0.7553 -0.4537 -1.5056
 5825TIP3    H241671   1.442   6.678  11.866  0.6676 -0.1344 -0.5325
 5826TIP3   OH241672   6.466   4.776  12.805 -0.2212  0.5509 -0.7567
 5826TIP3    H141673   6.472   4.758  12.711  2.0170 -1.6548 -0.2902
 5826TIP3    H241674   6.441   4.692  12.844  1.3264  0.7721  0.8119
 5827TIP3   OH241675   1.497   6.285  11.796  0.2687 -0.3796 -0.2921
 5827TIP3    H141676   1.540   6.332  11.724  0.6811 -1.3170 -0.6637
 5827TIP3    H241677   1.423   6.341  11.819  0.1963 -0.0108 -1.3621
 5828TIP3   OH241678   7.505   1.766  13.319 -0.1537 -0.2065  0.1172
 5828TIP3    H141679   7.448   1.691  13.328  0.3037 -0.3348  2.7409
 5828TIP3    H241680   7.584   1.742  13.367  0.8310  1.1966 -0.7101
 5829TIP3   OH241681   1.487   0.918  13.308 -0.3169  0.2686 -0.0027
 5829TIP3    H141682   1.437   0.849  13.351  0.0052  0.6283  0.9613
 5829TIP3    H241683   1.453   0.919  13.218 -1.5107 -0.0148  0.4239
 5830TIP3   OH241684   1.367   3.046  10.839  0.4023  0.7192  0.1645
 5830TIP3    H141685   1.391   3.131  10.875 -0.8014  0.4916  1.6036
 5830TIP3    H241686   1.274   3.055  10.816  0.0666 -0.3860  0.9856
 5831TIP3   OH241687   1.412   2.197  11.984 -0.2645  0.0080 -0.1910
 5831TIP3    H141688   1.321   2.224  11.971 -0.0199  1.2040  0.3809
 5831TIP3    H241689   1.444   2.255  12.053  0.5136 -1.3656  0.6531
 5832TIP3   OH241690   7.353   3.509  12.262  0.2574  0.0695  0.1692
 5832TIP3    H141691   7.324   3.599  12.276  0.2968  0.2318 -0.6962
 5832TIP3    H241692   7.387   3.509  12.172  0.4105 -0.7702  0.2196
 5833TIP3   OH241693   7.492   0.221  13.306 -0.1769  0.0143 -0.2018
 5833TIP3    H141694   7.422   0.201  13.369 -2.9432  0.4024 -2.9286
 5833TIP3    H241695   7.522   0.308  13.330 -2.4489  0.9161 -0.3958
 5834TIP3   OH241696   5.432   4.767  11.979  0.0730  0.1318  0.4432
 5834TIP3    H141697   5.515   4.736  11.942  0.0754  2.6542 -1.9915
 5834TIP3    H241698   5.368   4.756  11.908 -0.8024  1.7148  0.9356
 5835TIP3   OH241699   3.522   3.713  12.080  0.1633  0.2478 -0.1268
 5835TIP3    H141700   3.567   3.751  12.155 -0.1910  0.0910  0.1672
 5835TIP3    H241701   3.587   3.656  12.039  0.3317  0.2682  0.1125
 5836TIP3   OH241702   1.001   3.251  11.785 -0.3967  0.0584 -0.4771
 5836TIP3    H141703   1.002   3.296  11.870 -1.3941 -0.1371 -0.3434
 5836TIP3    H241704   1.022   3.160  11.806 -2.0995 -0.3101 -0.2012
 5837TIP3   OH241705   2.189   5.815  12.637  0.4111  0.3397  0.4400
 5837TIP3    H141706   2.226   5.730  12.659  0.2845 -0.0800 -0.8918
 5837TIP3    H241707   2.263   5.866  12.605  0.3111  0.3853  0.2796
 5838TIP3   OH241708   3.144   6.552  12.996  0.1580 -0.0460  0.0406
 5838TIP3    H141709   3.219   6.525  13.049  0.2640 -0.6277 -0.3964
 5838TIP3    H241710   3.132   6.481  12.933  0.0836  0.6604 -0.7666
 5839TIP3   OH241711   5.121   5.643  11.802  0.6158 -0.0505  0.3165
 5839TIP3    H141712   5.031   5.611  11.805  0.9261 -1.0152 -0.1730
 5839TIP3    H241713   5.172   5.576  11.847  1.0278  0.7733  1.1177
 5840TIP3   OH241714   6.173   4.845  12.031 -0.5912  0.8056 -0.9870
 5840TIP3    H141715   6.168   4.834  11.936 -0.3444  0.6857 -0.9881
 5840TIP3    H241716   6.089   4.812  12.063  0.8708 -3.3550 -0.8046
 5841TIP3   OH241717   4.376   2.084  10.958  0.7578 -0.7061  0.3281
 5841TIP3    H141718   4.352   2.048  11.043 -0.1472 -0.7529  0.0611
 5841TIP3    H241719   4.301   2.066  10.902  1.6765 -1.4260 -0.7116
 5842TIP3   OH241720   0.549   0.775  12.546  0.1094 -0.8098  0.5154
 5842TIP3    H141721   0.640   0.802  12.533 -0.4477  1.2684  0.5388
 5842TIP3    H241722   0.501   0.857  12.554 -1.7282 -1.8684  0.8905
 5843TIP3   OH241723   5.268   0.278  11.141 -0.1113 -0.2934  0.2437
 5843TIP3    H141724   5.309   0.348  11.090  1.2898 -1.3056 -0.0629
 5843TIP3    H241725   5.312   0.198  11.112 -2.0943 -1.4112  0.1369
 5844TIP3   OH241726   2.952   5.621  13.387 -0.4028  0.8557 -0.1432
 5844TIP3    H141727   2.941   5.713  13.363 -1.3253  0.6605 -0.5156
 5844TIP3    H241728   2.906   5.573  13.319 -1.4890  0.2082  0.9997
 5845TIP3   OH241729   7.353   6.674  12.169  0.0716 -0.6323  0.2837
 5845TIP3    H141730   7.447   6.657  12.171  0.3341  0.5271 -0.9632
 5845TIP3    H241731   7.322   6.623  12.094 -0.0759 -0.0031 -0.0820
 5846TIP3   OH241732   0.525   0.799  11.549 -0.1036 -0.0877  0.3870
 5846TIP3    H141733   0.453   0.862  11.548  0.3702  0.4828  0.8648
 5846TIP3    H241734   0.517   0.756  11.634  0.5257  0.4881  0.7568
 5847TIP3   OH241735   3.109   2.536  10.928  0.5477  0.0125 -0.2469
 5847TIP3    H141736   3.144   2.452  10.955  2.1034  0.4755 -0.7109
 5847TIP3    H241737   3.033   2.550  10.984  0.5945 -1.4370  0.2105
 5848TIP3   OH241738   2.286   6.594  11.661  0.4318 -0.7662  0.0637
 5848TIP3    H141739   2.211   6.553  11.618 -0.3172  0.8297 -0.2390
 5848TIP3    H241740   2.338   6.521  11.694 -0.8428 -1.9332 -0.4191
 5849TIP3   OH241741   0.881   0.011  12.195  0.2777 -0.4361 -0.2394
 5849TIP3    H141742   0.839   0.090  12.162 -0.4470 -0.7222 -0.0120
 5849TIP3    H241743   0.966   0.041  12.227 -0.7068  0.5985  1.5496
 5850TIP3   OH241744   4.352   4.665  11.757  0.0181 -0.0134  0.1358
 5850TIP3    H141745   4.445   4.677  11.741  0.1723  3.7595  2.5990
 5850TIP3    H241746   4.347   4.620  11.841 -0.5649 -2.8918 -1.3091
 5851TIP3   OH241747   3.872   4.797  12.044  0.2491  0.5029  0.1117
 5851TIP3    H141748   3.956   4.757  12.062  0.8711  1.3741 -0.7312
 5851TIP3    H241749   3.878   4.885  12.082 -0.5097  0.3600  0.5837
 5852TIP3   OH241750   0.542   4.067  11.324 -0.7498  0.3468 -0.2458
 5852TIP3    H141751   0.453   4.035  11.337 -0.8536  0.7751  0.1531
 5852TIP3    H241752   0.539   4.114  11.241 -0.4886 -1.0252 -1.0582
 5853TIP3   OH241753   6.003   2.726  12.634  0.0393  0.0332  0.0297
 5853TIP3    H141754   6.049   2.679  12.564  1.1897  2.1390 -0.7082
 5853TIP3    H241755   5.919   2.752  12.594  0.0703 -0.0391 -0.0831
 5854TIP3   OH241756   4.230   6.830  12.867 -0.1238 -0.5626 -0.2702
 5854TIP3    H141757   4.149   6.857  12.911  1.1414  0.4597  1.5520
 5854TIP3    H241758   4.269   6.765  12.926  0.3904 -1.0872 -1.1616
 5855TIP3   OH241759   2.002   1.191  12.934 -0.1694  0.0892  0.0809
 5855TIP3    H141760   2.042   1.202  13.021 -2.1723 -1.5701  1.3330
 5855TIP3    H241761   1.927   1.250  12.935  0.6099  1.1220 -1.1258
 5856TIP3   OH241762   6.704   4.160  10.909  0.0079  0.1841 -0.9187
 5856TIP3    H141763   6.673   4.244  10.942  0.7961  0.2616 -0.3583
 5856TIP3    H241764   6.732   4.112  10.987 -0.4376 -0.6064 -1.2334
 5857TIP3   OH241765   5.779   6.786  12.074  0.1944  0.4637 -0.0264
 5857TIP3    H141766   5.770   6.848  12.146  0.7743  0.2661  0.2228
 5857TIP3    H241767   5.831   6.832  12.008 -1.8940  1.3436 -1.1587
 5858TIP3   OH241768   0.470   7.091  13.277  0.5459 -0.6761  0.2607
 5858TIP3    H141769   0.551   7.113  13.324  1.3832  1.5232 -2.0102
 5858TIP3    H241770   0.498   7.034  13.206 -0.1397 -1.1043  0.3317
 5859TIP3   OH241771   6.951   6.555  12.194  0.1297 -0.0110  0.1629
 5859TIP3    H141772   7.022   6.497  12.221 -0.3685 -1.2259 -0.9998
 5859TIP3    H241773   6.890   6.554  12.268  1.3921  1.2194  1.2620
 5860TIP3   OH241774   5.304   3.762  12.921  0.0819 -0.4181  0.1091
 5860TIP3    H141775   5.321   3.816  12.844 -1.2767  1.3531  0.9573
 5860TIP3    H241776   5.382   3.707  12.930  0.6701 -0.0020 -1.9521
 5861TIP3   OH241777   6.132   0.568  12.166  0.0597  0.5186 -0.0294
 5861TIP3    H141778   6.059   0.515  12.198  0.7547  0.0152  0.7688
 5861TIP3    H241779   6.095   0.654  12.149 -1.3468 -0.4287 -2.3093
 5862TIP3   OH241780   1.868   6.172  13.351  0.2418 -0.4063 -0.0298
 5862TIP3    H141781   1.860   6.230  13.426 -1.0298 -0.6428  0.0337
 5862TIP3    H241782   1.962   6.165  13.336  0.4363  1.3035  0.2346
 5863TIP3   OH241783   3.144   1.986  11.715 -0.6221  0.3780 -0.0355
 5863TIP3    H141784   3.226   1.947  11.743  0.0227  2.0601  0.5505
 5863TIP3    H241785   3.113   1.931  11.644  0.8124 -0.5023  0.0058
 5864TIP3   OH241786   7.169   1.005  12.771 -0.1864 -0.3166  0.0207
 5864TIP3    H141787   7.217   1.065  12.713  0.2828 -1.6692 -1.0502
 5864TIP3    H241788   7.098   1.059  12.808 -0.4140  0.6373 -1.6959
 5865TIP3   OH241789   3.143   7.582  12.176 -0.6837 -0.0843 -0.3018
 5865TIP3    H141790   3.125   7.627  12.258  0.5899  1.1003 -0.6322
 5865TIP3    H241791   3.234   7.553  12.185 -0.5831 -0.0792 -1.2391
 5866TIP3   OH241792   0.511   2.105  11.077 -0.2027 -0.5087 -0.8143
 5866TIP3    H141793   0.505   2.190  11.120  1.1370  0.2565 -2.0438
 5866TIP3    H241794   0.425   2.065  11.090 -0.7949  0.9397 -0.0381
 5867TIP3   OH241795   2.697   2.367  10.745 -0.5874  0.2845 -0.1458
 5867TIP3    H141796   2.764   2.368  10.675  0.9113 -1.6430  1.1429
 5867TIP3    H241797   2.697   2.276  10.776 -2.6830  0.6286  1.0144
 5868TIP3   OH241798   2.954   2.293  11.282  0.0552 -0.2511  0.2703
 5868TIP3    H141799   2.871   2.328  11.250 -0.8013 -1.3347  1.2119
 5868TIP3    H241800   2.935   2.263  11.371  1.8722  0.9281  1.1302
 5869TIP3   OH241801   6.256   2.036  12.084  0.3064  0.1118  0.2653
 5869TIP3    H141802   6.261   2.003  11.994  3.0912 -0.1351  0.4061
 5869TIP3    H241803   6.318   2.109  12.086  1.7885 -1.0859  2.3847
 5870TIP3   OH241804   2.200   3.104  12.062  0.1938  0.0561 -0.0613
 5870TIP3    H141805   2.162   3.047  12.130  0.3632 -1.9599 -1.5427
 5870TIP3    H241806   2.284   3.063  12.043 -0.6477 -0.5910 -2.7597
 5871TIP3   OH241807   2.535   6.855  12.549  0.3341 -0.1215 -0.7552
 5871TIP3    H141808   2.558   6.775  12.596  0.2053 -0.3011 -0.9960
 5871TIP3    H241809   2.619   6.895  12.527  0.3959  0.3346  0.2499
 5872TIP3   OH241810   6.866   6.138  11.510  0.0038 -0.2937 -0.3497
 5872TIP3    H141811   6.945   6.139  11.566  0.9055 -0.6430 -1.5772
 5872TIP3    H241812   6.818   6.061  11.539 -0.0185  0.0456  0.5704
 5873TIP3   OH241813   3.719   1.817  12.062 -0.5009 -0.4143  0.2947
 5873TIP3    H141814   3.676   1.749  12.011 -0.6016  0.8057 -1.2965
 5873TIP3    H241815   3.749   1.772  12.141 -0.8350 -2.2334 -0.5701
 5874TIP3   OH241816   2.538   1.757  11.875  0.0750 -0.1031  0.2941
 5874TIP3    H141817   2.508   1.838  11.835  1.0213 -0.2920 -0.8479
 5874TIP3    H241818   2.627   1.745  11.843  0.6895 -0.5417  2.0905
 5875TIP3   OH241819   5.581   0.407  12.339 -0.0484 -0.2547 -0.3677
 5875TIP3    H141820   5.492   0.395  12.372  0.4295 -0.2304  0.9930
 5875TIP3    H241821   5.583   0.360  12.256 -0.6780 -2.2857  0.6938
 5876TIP3   OH241822   3.414   7.524  12.201  0.6883 -0.2275  0.4532
 5876TIP3    H141823   3.486   7.584  12.180  0.8896 -0.5899  0.1038
 5876TIP3    H241824   3.411   7.464  12.127 -0.7032  0.4647 -0.0841
 5877TIP3   OH241825   0.688   6.007  12.932 -0.2427  0.3894  0.6309
 5877TIP3    H141826   0.743   6.031  13.007  0.3729 -0.4560  0.4616
 5877TIP3    H241827   0.601   5.995  12.970  0.3237 -1.3772  1.4936
 5878TIP3   OH241828   3.449   5.679  12.715  0.1365 -0.8215  0.0582
 5878TIP3    H141829   3.437   5.768  12.748  0.7999 -1.5611  2.5134
 5878TIP3    H241830   3.462   5.690  12.621  0.3040  1.6713  0.3049
 5879TIP3   OH241831   4.929   6.189  13.037 -0.2372  0.1013  0.0874
 5879TIP3    H141832   4.971   6.110  13.072 -0.1900  0.6563  1.3437
 5879TIP3    H241833   4.971   6.261  13.083 -0.6513  0.8437 -0.6557
 5880TIP3   OH241834   5.386   6.631  12.416  0.2548 -0.6477  0.1095
 5880TIP3    H141835   5.426   6.553  12.378 -0.3259 -0.5698 -0.7117
 5880TIP3    H241836   5.292   6.616  12.407  0.0845 -0.6970  1.7217
 5881TIP3   OH241837   2.698   5.481  12.474  0.7727  0.4304  0.3991
 5881TIP3    H141838   2.747   5.547  12.426 -0.5008 -0.0990 -1.8211
 5881TIP3    H241839   2.610   5.518  12.483  0.0841 -0.8157 -0.7358
 5882TIP3   OH241840   1.582   5.079  10.795 -0.2034 -0.0643  0.6152
 5882TIP3    H141841   1.646   5.008  10.795 -0.2258 -0.2412 -2.4083
 5882TIP3    H241842   1.501   5.039  10.824  0.2293 -0.7974  0.8255
 5883TIP3   OH241843   1.465   1.051  11.922 -0.2551  0.6476 -0.0155
 5883TIP3    H141844   1.385   1.102  11.919  0.0864  1.1581 -1.0031
 5883TIP3    H241845   1.459   0.992  11.846  0.1981  0.5383  0.0277
 5884TIP3   OH241846   6.341   2.928  11.441  0.2080  0.3634 -0.8429
 5884TIP3    H141847   6.304   2.876  11.370  1.7227 -1.0090 -0.6948
 5884TIP3    H241848   6.389   2.998  11.397  0.3926  0.0509 -1.1386
 5885TIP3   OH241849   0.058   4.568  11.238 -0.2704 -0.6704 -0.5293
 5885TIP3    H141850   0.062   4.650  11.188  0.3722 -0.3961 -0.0361
 5885TIP3    H241851   0.090   4.590  11.325 -0.2350 -1.4148 -0.3416
 5886TIP3   OH241852   6.403   1.624  12.579 -0.1160  0.0444  0.1073
 5886TIP3    H141853   6.378   1.714  12.599  0.3858 -0.1829  1.9170
 5886TIP3    H241854   6.462   1.599  12.650  2.1334 -0.7404 -1.8973
 5887TIP3   OH241855   6.837   2.186  11.428  0.0155  0.6373 -0.4075
 5887TIP3    H141856   6.800   2.110  11.382 -0.7688 -0.0059  1.1657
 5887TIP3    H241857   6.908   2.217  11.372  1.5982 -2.3911 -0.2950
 5888TIP3   OH241858   4.861   1.890  12.600  0.4155  0.3664 -0.0887
 5888TIP3    H141859   4.889   1.798  12.594  0.6870  0.3427  1.3698
 5888TIP3    H241860   4.940   1.937  12.625  0.1925  0.9697 -0.5044
 5889TIP3   OH241861   1.740   6.979  13.096 -0.4434  0.0952 -0.2577
 5889TIP3    H141862   1.662   6.937  13.059 -0.7470  0.9635 -0.6219
 5889TIP3    H241863   1.711   7.012  13.181 -0.7291  1.1943 -0.7708
 5890TIP3   OH241864   6.628   2.289  12.800 -0.1664 -0.1445 -0.0604
 5890TIP3    H141865   6.689   2.347  12.756 -0.9289  1.5230  0.9645
 5890TIP3    H241866   6.670   2.267  12.883 -0.4063 -0.0343  0.0939
 5891TIP3   OH241867   4.873   3.335  13.103  0.2764 -0.0476  0.0278
 5891TIP3    H141868   4.802   3.273  13.088 -1.0445  1.6752 -1.3022
 5891TIP3    H241869   4.911   3.349  13.016  2.3890 -1.0300  0.7308
 5892TIP3   OH241870   0.144   4.022  13.305  0.1791 -0.3463  0.3813
 5892TIP3    H141871   0.081   3.953  13.322  0.5376 -0.4247  1.4296
 5892TIP3    H241872   0.214   4.007  13.368  0.0662  1.2356  0.9214
 5893TIP3   OH241873   4.510   6.403  13.286  0.5151 -0.1488 -0.2466
 5893TIP3    H141874   4.587   6.348  13.273  2.4044  2.2376  0.0744
 5893TIP3    H241875   4.531   6.484  13.239 -1.8730  0.5406 -0.2298
 5894TIP3   OH241876   6.881   4.624  12.264  0.5237 -0.0899 -0.0573
 5894TIP3    H141877   6.905   4.711  12.233  1.5632  0.0520  1.0577
 5894TIP3    H241878   6.795   4.607  12.224 -0.0144  1.7169  0.2224
 5895TIP3   OH241879   4.643   3.349  11.175 -0.7364 -0.6726 -0.3654
 5895TIP3    H141880   4.693   3.394  11.243  0.2639 -3.1750  0.7125
 5895TIP3    H241881   4.551   3.370  11.194 -0.5138 -1.5994  2.0744
 5896TIP3   OH241882   1.700   0.517  13.706  0.0841  0.3893 -0.6012
 5896TIP3    H141883   1.726   0.556  13.789  1.6634  0.8860 -1.2934
 5896TIP3    H241884   1.769   0.453  13.687  0.0005  0.6214 -1.7649
 5897TIP3   OH241885   7.132   6.129  13.164  0.1116 -0.3179  0.1699
 5897TIP3    H141886   7.134   6.035  13.177 -0.8577 -0.3846 -0.0867
 5897TIP3    H241887   7.216   6.150  13.123 -0.0266 -1.2106 -0.6010
 5898TIP3   OH241888   4.991   4.869  11.564 -0.1683  0.2553  0.5406
 5898TIP3    H141889   4.910   4.838  11.525  0.2572  0.9019 -0.9257
 5898TIP3    H241890   4.978   4.963  11.576 -0.6797 -0.0660  3.0102
 5899TIP3   OH241891   7.535   2.137  12.665  0.2879  0.1831 -0.1270
 5899TIP3    H141892   7.599   2.206  12.647 -0.3762  0.5707 -1.0664
 5899TIP3    H241893   7.520   2.096  12.580  0.9774 -1.4223  0.4740
 5900TIP3   OH241894   5.136   5.368  12.749  0.3102 -0.7238  0.1127
 5900TIP3    H141895   5.186   5.445  12.776 -0.5660 -0.3498  0.7134
 5900TIP3    H241896   5.059   5.404  12.705 -1.7858 -1.0655  3.1760
 5901TIP3   OH241897   0.274   3.868  13.115 -0.0771  0.0131  0.5554
 5901TIP3    H141898   0.189   3.878  13.158 -0.2868  0.1067  0.1264
 5901TIP3    H241899   0.253   3.858  13.022  0.4361  1.4730  0.2483
 5902TIP3   OH241900   6.069   5.857  10.991 -0.9078 -0.5148  0.1659
 5902TIP3    H141901   6.148   5.824  11.033 -1.2389 -1.2268  0.2400
 5902TIP3    H241902   6.034   5.921  11.053 -0.7464 -0.6780  0.4262
 5903TIP3   OH241903   2.607   0.112  11.829 -0.6349 -0.1577  0.2488
 5903TIP3    H141904   2.568   0.169  11.896 -0.7899 -0.2090  0.2021
 5903TIP3    H241905   2.604   0.165  11.749  2.2714  1.1025  0.8393
 5904TIP3   OH241906   3.687   6.730  13.261  0.4666  0.1714 -0.1871
 5904TIP3    H141907   3.672   6.673  13.337 -2.2199  0.1473 -0.6140
 5904TIP3    H241908   3.766   6.779  13.282  1.2293 -1.6528  1.4713
 5905TIP3   OH241909   0.986   7.486  11.096  0.3585 -0.7345  1.2035
 5905TIP3    H141910   0.946   7.574  11.097 -0.0195 -0.8679 -0.1371
 5905TIP3    H241911   0.936   7.436  11.160 -1.5649 -0.8387 -0.2970
 5906TIP3   OH241912   5.849   7.509  11.539 -0.3666  0.2024 -0.4450
 5906TIP3    H141913   5.794   7.585  11.561 -0.0186  0.7260 -1.3417
 5906TIP3    H241914   5.928   7.521  11.592 -0.2171  0.5987 -0.7468
 5907TIP3   OH241915   1.660   4.817  12.539  0.1940 -0.5100 -0.5876
 5907TIP3    H141916   1.621   4.780  12.618 -0.0034  0.5672 -0.1694
 5907TIP3    H241917   1.662   4.911  12.555 -0.2577 -0.2342 -2.0447
 5908TIP3   OH241918   0.424   6.870  11.910  0.2643  0.6704 -0.3083
 5908TIP3    H141919   0.398   6.793  11.859 -0.4329  1.2220 -0.8024
 5908TIP3    H241920   0.477   6.834  11.981 -1.1790 -0.4258  0.2697
 5909TIP3   OH241921   3.768   5.970  13.052 -0.3613 -0.1449 -0.4195
 5909TIP3    H141922   3.780   5.884  13.012  2.0911  0.3203 -0.8391
 5909TIP3    H241923   3.834   5.973  13.121  0.4127  1.8341 -1.1980
 5910TIP3   OH241924   4.457   4.652  12.017  0.0261 -0.1661  0.0293
 5910TIP3    H141925   4.484   4.666  12.108  0.0439 -0.6844  0.1077
 5910TIP3    H241926   4.487   4.563  11.996 -0.6323 -0.3383 -0.2385
 5911TIP3   OH241927   7.167   4.088  13.316  0.2062 -0.1040  0.0704
 5911TIP3    H141928   7.176   3.993  13.324 -1.8579 -0.2570  1.4887
 5911TIP3    H241929   7.244   4.123  13.362  0.5590 -1.0900  0.2620
 5912TIP3   OH241930   5.687   4.763  11.199  0.0843 -0.4619 -0.0837
 5912TIP3    H141931   5.640   4.786  11.119 -0.5772 -1.5465 -0.0258
 5912TIP3    H241932   5.623   4.772  11.269  1.1792  2.5296  0.7030
 5913TIP3   OH241933   7.035   7.630  11.175 -0.3479 -0.4636 -0.0983
 5913TIP3    H141934   7.054   7.558  11.115 -0.1695 -0.8015  0.3610
 5913TIP3    H241935   7.071   7.602  11.259  0.9069  0.7381 -0.2155
 5914TIP3   OH241936   2.493   3.795  11.109 -0.3735 -0.2556  0.3727
 5914TIP3    H141937   2.513   3.872  11.162 -1.1353 -0.4707  0.9861
 5914TIP3    H241938   2.500   3.826  11.018  0.9082  0.1169  0.5769
 5915TIP3   OH241939   0.994   1.831  11.162  0.1561  0.1810  0.7768
 5915TIP3    H141940   1.047   1.847  11.240  1.0540 -0.5744  0.3492
 5915TIP3    H241941   0.910   1.871  11.181 -0.0805 -1.0771  2.6549
 5916TIP3   OH241942   5.860   0.868  12.261  0.2370  0.2005  0.9870
 5916TIP3    H141943   5.841   0.775  12.269 -0.5793  0.3957  1.3512
 5916TIP3    H241944   5.780   0.906  12.225  1.2191  0.4738 -1.1018
 5917TIP3   OH241945   2.161   2.176  11.936 -0.4059  0.2967 -0.6861
 5917TIP3    H141946   2.073   2.138  11.931 -0.7580  0.8815  0.6320
 5917TIP3    H241947   2.190   2.182  11.845 -2.1346  1.0008 -1.2310
 5918TIP3   OH241948   0.986   6.516  11.605  0.0007 -0.4626  0.0732
 5918TIP3    H141949   0.979   6.441  11.664  0.9468  0.7833  1.8377
 5918TIP3    H241950   0.973   6.592  11.661  0.1491  0.7459 -1.4830
 5919TIP3   OH241951   1.075   2.579  12.806  0.4323  0.3160 -0.1668
 5919TIP3    H141952   1.064   2.489  12.837  0.2735  0.5452  0.4726
 5919TIP3    H241953   0.993   2.622  12.830 -0.0057  0.3255 -1.5953
 5920TIP3   OH241954   7.126   4.747  11.330 -0.1585  0.3674 -0.1294
 5920TIP3    H141955   7.120   4.653  11.312  2.6239  0.0053  0.2862
 5920TIP3    H241956   7.151   4.752  11.422 -0.6160  1.5639 -0.0464
 5921TIP3   OH241957   2.089   6.744  13.231 -0.6186 -0.1743  0.3572
 5921TIP3    H141958   2.172   6.701  13.251 -1.5981 -1.5767  1.5876
 5921TIP3    H241959   2.108   6.838  13.237  0.8756 -0.4700  0.5367
 5922TIP3   OH241960   1.677   4.092  12.835 -0.1088  0.9026  0.3928
 5922TIP3    H141961   1.700   4.151  12.907 -0.1783  0.5862  0.6786
 5922TIP3    H241962   1.761   4.057  12.805  0.0386  1.9851 -0.5172
 5923TIP3   OH241963   6.123   0.070  12.654  0.0275 -0.0281 -0.1960
 5923TIP3    H141964   6.187   0.120  12.604 -0.2520  1.4739  0.9073
 5923TIP3    H241965   6.135   0.099  12.744 -1.2399 -0.7826  0.2298
 5924TIP3   OH241966   1.915   5.496  11.608 -0.3382  0.4800  0.1346
 5924TIP3    H141967   1.972   5.474  11.681 -1.5775 -0.6195  0.8154
 5924TIP3    H241968   1.939   5.435  11.538 -1.8022 -1.2092  1.0266
 5925TIP3   OH241969   2.473   2.143  12.390  0.2958 -0.2188  0.3370
 5925TIP3    H141970   2.405   2.161  12.326 -0.3335 -1.0856  0.7362
 5925TIP3    H241971   2.453   2.201  12.464  1.9209  1.9296 -0.7958
 5926TIP3   OH241972   6.586   1.574  12.367 -0.2118  0.7195  0.2039
 5926TIP3    H141973   6.645   1.645  12.341  0.1591 -0.0017 -1.0057
 5926TIP3    H241974   6.533   1.611  12.438  1.0190  1.6984  0.6451
 5927TIP3   OH241975   3.566   3.167  12.425 -0.2427  0.3028  0.3396
 5927TIP3    H141976   3.541   3.142  12.514  0.9748 -0.4072  0.5032
 5927TIP3    H241977   3.606   3.253  12.434  0.2727  0.0423  0.5437
 5928TIP3   OH241978   7.024   3.447  12.059  0.3614  0.3559  0.3183
 5928TIP3    H141979   7.014   3.423  12.151  0.4682 -0.6852  0.0718
 5928TIP3    H241980   6.976   3.380  12.011  0.0719  1.0467 -0.3839
 5929TIP3   OH241981   4.535   4.795  11.233 -0.3294 -0.3596 -0.1330
 5929TIP3    H141982   4.479   4.817  11.308  1.2742  0.0511  0.9751
 5929TIP3    H241983   4.571   4.878  11.205 -1.3999 -0.4121 -1.8268
 5930TIP3   OH241984   0.200   6.630  13.032  0.2385  0.5458  0.0767
 5930TIP3    H141985   0.165   6.647  12.944 -0.5656  2.3139  0.7055
 5930TIP3    H241986   0.290   6.663  13.028 -0.2238  1.8630  0.2904
 5931TIP3   OH241987   6.627   7.598  11.510 -0.4703  0.5006 -0.1503
 5931TIP3    H141988   6.689   7.668  11.533  2.2451 -1.6129 -0.4745
 5931TIP3    H241989   6.625   7.542  11.588 -0.7196 -0.3157 -0.7303
 5932TIP3   OH241990   1.190   1.002  13.629 -0.0167 -0.6513 -0.3102
 5932TIP3    H141991   1.252   1.030  13.696 -0.2096  0.3317 -0.5138
 5932TIP3    H241992   1.149   1.084  13.600  0.4331 -1.0047 -1.9982
 5933TIP3   OH241993   3.440   0.809  13.343 -0.2636  0.1883 -0.3518
 5933TIP3    H141994   3.442   0.905  13.346 -1.8405  0.2156  0.3130
 5933TIP3    H241995   3.499   0.787  13.270 -1.2687  1.7379 -1.7156
 5934TIP3   OH241996   6.085   7.413  11.063 -0.3443  0.4102  0.1309
 5934TIP3    H141997   6.098   7.318  11.061 -0.1336  0.4512 -0.9401
 5934TIP3    H241998   6.173   7.449  11.068 -0.4136  0.5570  0.3178
 5935TIP3   OH241999   1.503   1.656  13.350 -0.4909 -0.3347  0.0116
 5935TIP3    H142000   1.449   1.641  13.427 -0.1594 -0.2347  0.2672
 5935TIP3    H242001   1.576   1.709  13.382 -1.4094  1.5005 -0.7689
 5936TIP3   OH242002   4.197   4.981  12.024 -0.2764 -0.3964  0.1613
 5936TIP3    H142003   4.115   5.009  11.985 -1.4200  0.2503  2.8252
 5936TIP3    H242004   4.177   4.895  12.062  0.2383 -0.1917  0.9109
 5937TIP3   OH242005   2.288   3.220  11.533  0.3972 -0.1582  0.3030
 5937TIP3    H142006   2.346   3.210  11.458 -0.0786  0.3007 -0.1305
 5937TIP3    H242007   2.345   3.210  11.609  1.0245  0.1722 -0.1197
 5938TIP3   OH242008   6.983   0.699  12.452  0.7473 -0.1730 -0.2410
 5938TIP3    H142009   6.936   0.643  12.390  1.6142 -0.3278 -0.7791
 5938TIP3    H242010   6.939   0.784  12.446  0.2170 -0.4550 -0.3497
 5939TIP3   OH242011   0.449   4.618  12.026  0.0406  0.3398 -0.3459
 5939TIP3    H142012   0.405   4.698  11.999  2.1617  2.3324  1.6765
 5939TIP3    H242013   0.535   4.621  11.983  0.2610 -0.6895 -0.0205
 5940TIP3   OH242014   0.990   6.362  12.198  0.4617 -0.1707  0.1638
 5940TIP3    H142015   1.051   6.289  12.208  0.5369  0.0200  1.1876
 5940TIP3    H242016   1.023   6.429  12.257 -1.9085 -0.8353  2.4314
 5941TIP3   OH242017   2.086   6.491  11.511  0.1671  0.0855 -0.3716
 5941TIP3    H142018   2.119   6.493  11.422  1.6318  0.4906  0.1490
 5941TIP3    H242019   2.001   6.533  11.506  0.7054  1.1276 -1.4008
 5942TIP3   OH242020   6.342   0.294  11.183 -0.0573  0.0470  0.1318
 5942TIP3    H142021   6.314   0.313  11.273  0.2087 -0.3577  0.3029
 5942TIP3    H242022   6.381   0.207  11.188 -0.2215 -0.0611 -0.4176
 5943TIP3   OH242023   3.648   2.830  12.752 -0.6535  0.4100  0.0806
 5943TIP3    H142024   3.650   2.809  12.845 -1.1503 -0.1027 -0.0191
 5943TIP3    H242025   3.670   2.923  12.748 -0.8368  0.4872  0.7256
 5944TIP3   OH242026   5.657   5.533  12.857 -0.1101 -0.0317 -0.0110
 5944TIP3    H142027   5.654   5.579  12.941 -1.4004 -0.0038 -0.0541
 5944TIP3    H242028   5.745   5.550  12.823 -0.2306  1.5901  0.4204
 5945TIP3   OH242029   5.497   7.633  13.415  0.3610  0.0462 -0.1615
 5945TIP3    H142030   5.487   7.605  13.506  0.8633  0.9350  0.1779
 5945TIP3    H242031   5.577   7.592  13.385 -0.7097 -1.6840 -0.7814
 5946TIP3   OH242032   6.727   5.608  11.475 -0.1137  0.0168  0.1619
 5946TIP3    H142033   6.760   5.521  11.452 -0.5487  0.2374 -1.4138
 5946TIP3    H242034   6.703   5.601  11.567 -0.2583 -1.5713  0.0282
 5947TIP3   OH242035   1.237   2.682  12.579  0.4325  0.6769  0.9655
 5947TIP3    H142036   1.193   2.639  12.505  0.8855  1.8163 -0.0056
 5947TIP3    H242037   1.194   2.647  12.656  0.2353 -0.8901  0.1907
 5948TIP3   OH242038   5.685   7.572  11.932 -0.7562 -0.3469  0.3523
 5948TIP3    H142039   5.641   7.612  12.007  2.3296 -1.4625  2.9841
 5948TIP3    H242040   5.700   7.481  11.958  0.9294 -0.6330 -1.3567
 5949TIP3   OH242041   6.621   5.567  12.677  0.0680 -0.1587  0.0598
 5949TIP3    H142042   6.593   5.647  12.633 -0.6925 -0.5080 -0.0998
 5949TIP3    H242043   6.558   5.500  12.649  0.5177 -0.7476  0.4235
 5950TIP3   OH242044   5.344   5.484  11.794  0.2510  0.3877 -0.6142
 5950TIP3    H142045   5.395   5.555  11.832  0.4948  0.2090 -0.6061
 5950TIP3    H242046   5.398   5.406  11.807  0.3530  0.3315 -1.3558
 5951TIP3   OH242047   5.249   0.762  11.707  0.0440  0.1983 -0.2765
 5951TIP3    H142048   5.304   0.777  11.630  1.3111 -3.1064 -0.1897
 5951TIP3    H242049   5.282   0.823  11.773 -0.9307  2.9572 -2.1595
 5952TIP3   OH242050   4.006   5.467  12.784 -0.1000 -0.3577  0.2765
 5952TIP3    H142051   3.988   5.383  12.826  1.4741 -0.5943  0.5252
 5952TIP3    H242052   4.037   5.523  12.854  0.9768 -0.2603 -0.2519
 5953TIP3   OH242053   4.802   4.249  12.633 -1.0010  0.8699  0.6564
 5953TIP3    H142054   4.889   4.228  12.666 -0.6242  0.8032 -0.3494
 5953TIP3    H242055   4.799   4.210  12.546 -2.0918  0.7532  0.7287
 5954TIP3   OH242056   4.025   2.631  11.238  0.3729 -0.0223  0.3153
 5954TIP3    H142057   3.942   2.594  11.207  0.1400  0.4135  0.4185
 5954TIP3    H242058   4.074   2.650  11.158 -0.0220  0.6248  0.2244
 5955TIP3   OH242059   0.588   0.556  11.392 -0.7426 -0.5951  0.0628
 5955TIP3    H142060   0.577   0.645  11.427  0.2968 -0.7780  0.8985
 5955TIP3    H242061   0.591   0.569  11.297  3.6519  0.9044  0.1651
 5956TIP3   OH242062   2.367   0.298  18.059  0.0127  0.5980  0.1166
 5956TIP3    H142063   2.445   0.247  18.039  0.3726  1.3648 -0.5061
 5956TIP3    H242064   2.312   0.239  18.110  0.7067 -0.1762 -0.0066
 5957TIP3   OH242065   2.873   1.177  11.657 -0.6305 -0.5444  0.1497
 5957TIP3    H142066   2.781   1.198  11.668  0.0352  2.5219  0.8392
 5957TIP3    H242067   2.904   1.159  11.746 -0.3567 -0.4618  0.0729
 5958TIP3   OH242068   4.556   7.036  11.758  0.0182 -0.6583  0.1400
 5958TIP3    H142069   4.527   7.118  11.798 -0.7302 -1.2254  0.7877
 5958TIP3    H242070   4.481   7.007  11.707  0.8172 -0.1597 -1.3952
 5959TIP3   OH242071   7.525   1.299  13.151  0.8536  0.1841  0.1149
 5959TIP3    H142072   7.499   1.315  13.060 -0.1363 -1.1094  0.1294
 5959TIP3    H242073   7.450   1.254  13.190  2.0253 -1.1036  1.0077
 5960TIP3   OH242074   3.267   6.459  12.272 -0.1879  0.0420 -0.3923
 5960TIP3    H142075   3.227   6.528  12.219  0.6535  0.1337 -0.9247
 5960TIP3    H242076   3.299   6.395  12.208 -0.0569 -0.3441  0.0538
 5961TIP3   OH242077   6.893   2.410  12.727 -0.0837 -0.1656 -0.2546
 5961TIP3    H142078   6.969   2.448  12.771 -1.4421 -0.1093  2.2521
 5961TIP3    H242079   6.930   2.354  12.659  2.1466  0.6412  0.2114
 5962TIP3   OH242080   1.563   4.348  12.307 -0.7920 -0.5184 -0.1976
 5962TIP3    H142081   1.496   4.302  12.359 -1.2899 -1.5890 -1.7172
 5962TIP3    H242082   1.629   4.375  12.372 -1.3105 -1.9248  0.9742
 5963TIP3   OH242083   2.455   1.060  11.226 -0.1264 -1.0139  0.2099
 5963TIP3    H142084   2.392   0.999  11.264 -0.9917 -0.7476 -0.7456
 5963TIP3    H242085   2.535   1.047  11.277 -0.5568 -2.3134  0.5929
 5964TIP3   OH242086   2.057   1.540  13.310 -0.2776  0.7983  0.2551
 5964TIP3    H142087   2.144   1.566  13.280  0.1773 -1.6100 -0.7367
 5964TIP3    H242088   2.013   1.623  13.331  2.1325  2.0813  0.5374
 5965TIP3   OH242089   5.863   3.504  12.835  0.3970 -0.3905  0.4148
 5965TIP3    H142090   5.769   3.506  12.814  0.5767  2.7695 -0.5335
 5965TIP3    H242091   5.906   3.514  12.750  1.4722  1.1151  1.0970
 5966TIP3   OH242092   1.503   0.248  12.482 -0.0741 -0.8805 -0.0030
 5966TIP3    H142093   1.541   0.160  12.482 -0.6883 -1.1717 -1.1594
 5966TIP3    H242094   1.558   0.298  12.422  0.6310 -0.2878  1.1027
 5967TIP3   OH242095   2.330   0.184  12.176 -0.0042 -0.1264 -0.3550
 5967TIP3    H142096   2.344   0.090  12.163 -0.7304 -0.6847  2.3151
 5967TIP3    H242097   2.235   0.195  12.174 -0.0015  0.2609  0.7319
 5968TIP3   OH242098   3.832   4.772  11.623  0.1259 -0.4547  0.4450
 5968TIP3    H142099   3.807   4.817  11.704  0.7006 -0.5294  0.6682
 5968TIP3    H242100   3.825   4.839  11.555  2.6146  0.4890  1.0199
 5969TIP3   OH242101   4.162   0.303  12.356  0.0637  0.8606  0.0492
 5969TIP3    H142102   4.173   0.209  12.345 -1.2021  0.7871 -0.7802
 5969TIP3    H242103   4.071   0.313  12.384 -0.8232  2.0022 -2.8424
 5970TIP3   OH242104   0.781   2.699  10.873  0.3610 -0.0404 -0.0956
 5970TIP3    H142105   0.749   2.703  10.963 -0.5259  0.0937 -0.4024
 5970TIP3    H242106   0.778   2.606  10.850  0.3942 -0.0523 -0.0498
 5971TIP3   OH242107   2.877   5.094  12.617  0.0755 -0.4139  0.5349
 5971TIP3    H142108   2.853   5.089  12.709  0.2042 -0.7421  0.5523
 5971TIP3    H242109   2.849   5.010  12.580  2.7008 -1.5450  0.9190
 5972TIP3   OH242110   4.234   6.137  11.699 -0.3766 -0.2951  0.3791
 5972TIP3    H142111   4.190   6.166  11.620 -1.0602  1.0284  1.2092
 5972TIP3    H242112   4.318   6.182  11.698 -0.4984 -0.0626  0.5380
 5973TIP3   OH242113   5.456   4.088  12.119 -0.0838  0.1380 -0.3843
 5973TIP3    H142114   5.429   4.003  12.085  0.7572 -0.5676  0.6335
 5973TIP3    H242115   5.541   4.104  12.079 -0.1440  0.3973 -0.4076
 5974TIP3   OH242116   3.785   4.689  12.555  0.2360  0.0562 -0.1516
 5974TIP3    H142117   3.703   4.702  12.602  0.4378  0.9482 -0.0245
 5974TIP3    H242118   3.779   4.600  12.519 -0.5331 -0.0955  0.3373
 5975TIP3   OH242119   0.929   4.527  12.278 -0.5022 -0.5069 -0.7973
 5975TIP3    H142120   0.990   4.600  12.284  0.5671 -1.4735  0.8394
 5975TIP3    H242121   0.887   4.537  12.193  0.6751  1.1749 -1.2135
 5976TIP3   OH242122   4.664   1.646  12.220  0.0221  0.2246 -0.2540
 5976TIP3    H142123   4.628   1.707  12.285 -2.4989 -0.4391 -0.9192
 5976TIP3    H242124   4.689   1.569  12.271 -2.4255 -0.5004 -0.0512
 5977TIP3   OH242125   2.073   1.373  11.285 -0.1600 -0.0329 -0.3771
 5977TIP3    H142126   2.032   1.459  11.290 -0.3213  0.1054 -2.7100
 5977TIP3    H242127   2.140   1.383  11.217 -0.7049 -1.8923 -1.2545
 5978TIP3   OH242128   2.430   4.841  12.844 -0.7146 -0.6768  0.1361
 5978TIP3    H142129   2.351   4.823  12.895 -0.1336  0.2086  1.3879
 5978TIP3    H242130   2.451   4.932  12.862  0.2777 -0.7330 -0.6277
 5979TIP3   OH242131   2.819   5.343  13.238 -0.1376  0.3443 -0.1514
 5979TIP3    H142132   2.878   5.268  13.238  0.0071  0.4488  0.4559
 5979TIP3    H242133   2.865   5.410  13.186  0.5951  0.6532  0.8665
 5980TIP3   OH242134   7.286   1.362  11.222 -0.0229  0.2731 -0.0332
 5980TIP3    H142135   7.192   1.370  11.205 -0.0904  0.5981  0.4691
 5980TIP3    H242136   7.300   1.410  11.304  0.3805 -0.7927  0.5333
 5981TIP3   OH242137   3.124   4.967  11.629  0.2938 -0.4774  0.2523
 5981TIP3    H142138   3.103   5.053  11.593 -1.1357 -0.9295 -0.0315
 5981TIP3    H242139   3.211   4.947  11.593  1.6976  1.7851  2.0953
 5982TIP3   OH242140   6.489   3.468  11.531 -0.1714  0.4370 -0.3343
 5982TIP3    H142141   6.506   3.411  11.606 -0.7032 -0.3688 -0.8123
 5982TIP3    H242142   6.434   3.538  11.566 -1.8756 -0.8563 -0.2925
 5983TIP3   OH242143   2.754   0.189  11.443 -0.1708  0.1629 -0.2088
 5983TIP3    H142144   2.769   0.278  11.411 -1.9149  1.0082  1.1406
 5983TIP3    H242145   2.669   0.194  11.488  0.4075 -1.8096  1.2210
 5984TIP3   OH242146   7.278   1.144  13.184 -0.2581 -0.5801  0.4398
 5984TIP3    H142147   7.190   1.135  13.148  0.0059  0.1687 -0.4109
 5984TIP3    H242148   7.277   1.089  13.263 -1.6705 -0.1038  0.7865
 5985TIP3   OH242149   6.670   2.746  11.785  0.8435  0.2088 -0.1613
 5985TIP3    H142150   6.645   2.660  11.751  1.0959  0.1050 -0.0843
 5985TIP3    H242151   6.596   2.802  11.764  0.2337 -0.2531  0.6876
 5986TIP3   OH242152   0.452   3.834  12.312 -0.0888  0.2492  0.3247
 5986TIP3    H142153   0.458   3.886  12.393 -2.8162  0.9857  0.1415
 5986TIP3    H242154   0.418   3.749  12.341  0.1751  0.0583  0.0828
 5987TIP3   OH242155   0.771   0.962  11.790 -0.2895 -0.2510  0.6338
 5987TIP3    H142156   0.846   0.913  11.823  0.0590 -0.1797 -0.0323
 5987TIP3    H242157   0.797   0.991  11.703 -1.5898 -1.3976 -0.1845
 5988TIP3   OH242158   2.674   4.681  11.990 -0.0913 -0.1929  0.3448
 5988TIP3    H142159   2.664   4.749  12.056  0.2967 -0.0865  0.2914
 5988TIP3    H242160   2.593   4.686  11.938  0.1038  0.4775  0.1065
 5989TIP3   OH242161   3.949   1.652  12.705  0.2373 -0.5742  0.0151
 5989TIP3    H142162   3.958   1.578  12.764 -1.8103  0.2708  1.5019
 5989TIP3    H242163   3.875   1.629  12.648 -0.8448  0.5309  0.9204
 5990TIP3   OH242164   1.763   2.756  10.948 -0.1839 -0.4036 -0.1049
 5990TIP3    H142165   1.769   2.808  11.028 -1.4258 -1.5254  0.7492
 5990TIP3    H242166   1.854   2.741  10.922  0.2366  0.0239  1.0589
 5991TIP3   OH242167   6.942   4.023  12.706  0.2472 -0.0753  0.6591
 5991TIP3    H142168   6.910   3.936  12.683  0.6715 -0.0873  0.1096
 5991TIP3    H242169   6.953   4.068  12.622  0.4336  0.3660  0.9147
 5992TIP3   OH242170   0.783   2.640  12.068 -0.1293  0.0080  0.9396
 5992TIP3    H142171   0.856   2.602  12.117  0.9721 -0.2858 -0.8394
 5992TIP3    H242172   0.805   2.623  11.977 -1.2792  2.0087  0.2507
 5993TIP3   OH242173   1.219   2.176  12.800 -0.3886  0.6909  0.3295
 5993TIP3    H142174   1.192   2.128  12.723  0.4299  1.2497 -0.3243
 5993TIP3    H242175   1.304   2.139  12.824 -0.0262  1.3920  0.1671
 5994TIP3   OH242176   4.497   7.575  11.569  0.2913 -0.0048 -0.0673
 5994TIP3    H142177   4.562   7.600  11.504  0.6881 -1.4127 -0.2415
 5994TIP3    H242178   4.510   7.481  11.582 -2.0247 -0.4578 -0.4614
 5995TIP3   OH242179   3.196   6.694  10.918  0.3342  0.3009  0.1781
 5995TIP3    H142180   3.134   6.622  10.904  0.9402 -0.1159 -0.4703
 5995TIP3    H242181   3.145   6.762  10.960 -0.4955 -0.1386 -0.0914
 5996TIP3   OH242182   0.491   5.193  11.950  0.1109 -0.3633 -0.3661
 5996TIP3    H142183   0.494   5.162  11.859  0.6649 -1.9842  0.1716
 5996TIP3    H242184   0.507   5.114  12.002  0.6783  0.7009  1.1170
 5997TIP3   OH242185   5.433   7.469  12.453 -0.3019 -0.0101  0.3019
 5997TIP3    H142186   5.473   7.518  12.525 -0.5919 -1.7485  1.7212
 5997TIP3    H242187   5.349   7.440  12.488  0.0483 -1.8607 -0.2962
 5998TIP3   OH242188   7.614   1.291  12.305  0.2566 -0.0872 -0.4693
 5998TIP3    H142189   7.573   1.205  12.319 -0.9998  0.3886 -1.0321
 5998TIP3    H242190   7.557   1.334  12.241  1.2353  0.9228 -0.6937
 5999TIP3   OH242191   2.688   6.424  11.611 -0.0229 -0.3278 -0.7677
 5999TIP3    H142192   2.704   6.337  11.573  2.5701 -0.4483  0.4066
 5999TIP3    H242193   2.769   6.445  11.657 -2.0413  0.8608  2.6249
 6000TIP3   OH242194   4.811   0.038  11.654 -0.1425 -0.3367  0.3295
 6000TIP3    H142195   4.840  -0.041  11.608  1.2849 -1.1304  2.4316
 6000TIP3    H242196   4.873   0.106  11.627 -0.6865 -0.2080 -0.6201
 6001TIP3   OH242197   5.703   4.857  12.692  0.2214  0.0983 -0.0814
 6001TIP3    H142198   5.666   4.903  12.616  0.4218 -1.0018 -0.8632
 6001TIP3    H242199   5.634   4.797  12.719  1.1088 -1.4274 -1.0814
 6002TIP3   OH242200   2.107   4.095  11.711 -0.3507 -0.1958 -0.3860
 6002TIP3    H142201   2.050   4.171  11.717 -0.9026 -0.6338  0.0082
 6002TIP3    H242202   2.062   4.035  11.651  0.1494 -0.1514 -0.8090
 6003TIP3   OH242203   5.206   2.921  11.138 -0.1521  0.0769 -0.2893
 6003TIP3    H142204   5.126   2.973  11.125 -0.1042  0.6804  1.5076
 6003TIP3    H242205   5.176   2.844  11.187  0.3837  0.4855  0.7238
 6004TIP3   OH242206   5.498   5.175  12.439 -0.1852  0.1570 -0.7925
 6004TIP3    H142207   5.468   5.266  12.430 -0.2883 -0.0185 -2.4649
 6004TIP3    H242208   5.418   5.127  12.461  0.2983  0.7865  3.0824
 6005TIP3   OH242209   7.229   5.108  13.138 -0.0187 -0.2371 -0.5179
 6005TIP3    H142210   7.262   5.087  13.050 -0.1274  1.5967 -1.0402
 6005TIP3    H242211   7.150   5.160  13.123 -0.4296 -0.4701  0.6902
 6006TIP3   OH242212   1.256   4.639  12.881  0.7601 -0.2314  0.4530
 6006TIP3    H142213   1.274   4.642  12.975  0.9377 -0.2926  0.4221
 6006TIP3    H242214   1.171   4.682  12.871  0.9375  0.1603  0.5915
 6007TIP3   OH242215   3.129   0.899  13.771  0.2930  0.0244 -0.0900
 6007TIP3    H142216   3.108   0.927  13.682  0.5823  0.4461 -0.0314
 6007TIP3    H242217   3.123   0.979  13.823 -0.3806 -0.3176  0.3617
 6008TIP3   OH242218   5.835   0.730  11.884 -0.1370 -0.2486 -0.2924
 6008TIP3    H142219   5.755   0.759  11.841 -0.1909 -2.0211 -1.5458
 6008TIP3    H242220   5.850   0.642  11.848  1.5025 -0.5945  1.1106
 6009TIP3   OH242221   5.883   1.158  11.910  0.5984 -0.2247  0.3648
 6009TIP3    H142222   5.892   1.118  11.823 -1.3254  0.4841 -0.2112
 6009TIP3    H242223   5.950   1.227  11.911 -0.2770  0.7257 -1.1842
 6010TIP3   OH242224   2.327   6.716  10.961  0.3822  0.3556 -0.3953
 6010TIP3    H142225   2.364   6.799  10.990  0.1322  1.3368 -2.6594
 6010TIP3    H242226   2.402   6.657  10.956  1.0615  1.2468 -1.3246
 6011TIP3   OH242227   4.849   0.865  12.610  0.4780 -0.2763 -0.0116
 6011TIP3    H142228   4.791   0.928  12.653  1.1836 -1.3840  2.7749
 6011TIP3    H242229   4.937   0.904  12.619  0.7637 -1.0414  0.5468
 6012TIP3   OH242230   2.129   2.876  12.175 -0.3892 -0.0645 -0.7809
 6012TIP3    H142231   2.177   2.818  12.116 -0.9619 -0.4279 -0.9063
 6012TIP3    H242232   2.040   2.878  12.139 -0.8178 -0.5108  0.2182
 6013TIP3   OH242233   7.519   1.883  11.415  0.5532  0.0771 -0.3933
 6013TIP3    H142234   7.581   1.841  11.355  1.0883  1.2306 -0.6750
 6013TIP3    H242235   7.439   1.830  11.409  1.7444 -1.9547  0.6096
 6014TIP3   OH242236   0.910   3.016  12.171 -0.2944  0.0352  0.3528
 6014TIP3    H142237   0.849   2.951  12.207 -1.1899  0.7075  0.0747
 6014TIP3    H242238   0.856   3.092  12.152  0.7114  0.8139  0.5053
 6015TIP3   OH242239   7.485   1.555  11.603 -0.3628  0.2098  0.3843
 6015TIP3    H142240   7.432   1.483  11.637  0.0585 -0.0999  0.3874
 6015TIP3    H242241   7.423   1.608  11.553 -0.6622 -0.1850  0.3311
 6016TIP3   OH242242   2.109   4.895  13.567  0.0140 -0.2922 -0.1537
 6016TIP3    H142243   2.102   4.877  13.661  1.7660 -3.4038 -0.4633
 6016TIP3    H242244   2.028   4.861  13.530 -1.0561  1.6954  0.2302
 6017TIP3   OH242245   3.378   1.669  11.048 -0.5743  0.1536  0.7876
 6017TIP3    H142246   3.454   1.614  11.029 -0.9251 -0.0579 -0.0129
 6017TIP3    H242247   3.305   1.625  11.005 -0.6719  1.8457 -0.9180
 6018TIP3   OH242248   2.715   6.379  11.208  0.0142 -0.2634 -0.6178
 6018TIP3    H142249   2.668   6.383  11.124 -1.3109  1.0795  0.1401
 6018TIP3    H242250   2.658   6.425  11.270  1.6273  0.0463  0.7136
 6019TIP3   OH242251   4.461   6.520  12.001 -0.3893  0.0262  0.4536
 6019TIP3    H142252   4.490   6.583  11.935 -1.9591  0.3303  0.0156
 6019TIP3    H242253   4.514   6.442  11.985  1.5096  1.1383  0.9232
 6020TIP3   OH242254   3.758   1.988  11.668 -0.0999  0.2016  0.3761
 6020TIP3    H142255   3.694   1.926  11.634  0.4790  0.1944 -0.7353
 6020TIP3    H242256   3.828   1.934  11.703 -0.0405  0.2265  0.2950
 6021TIP3   OH242257   1.281   4.931  11.635  0.1977 -0.2323 -0.2083
 6021TIP3    H142258   1.259   4.988  11.708 -0.4378 -0.9541  0.1752
 6021TIP3    H242259   1.211   4.943  11.572 -1.3307 -2.4104  0.9461
 6022TIP3   OH242260   5.573   2.551  12.479  0.0715 -0.4012  0.6029
 6022TIP3    H142261   5.636   2.529  12.547 -0.6800  1.5939  2.0461
 6022TIP3    H242262   5.617   2.619  12.427  1.1446 -2.7676 -1.8200
 6023TIP3   OH242263   0.329   4.773  11.755  0.1185  0.4777 -0.3613
 6023TIP3    H142264   0.259   4.716  11.787 -0.5326  2.1307  1.3612
 6023TIP3    H242265   0.389   4.714  11.709 -1.7157 -1.1851 -0.7331
 6024TIP3   OH242266   6.768   2.052  12.663  0.1364 -0.1140 -0.0357
 6024TIP3    H142267   6.688   2.104  12.672 -0.0097 -0.1989 -0.7788
 6024TIP3    H242268   6.800   2.042  12.753 -1.6734 -1.5956  0.5259
 6025TIP3   OH242269   2.975   3.700  11.066  0.1789  0.1367 -0.0173
 6025TIP3    H142270   2.888   3.662  11.075 -1.2837  3.1091 -0.2524
 6025TIP3    H242271   3.035   3.629  11.087 -2.2677 -2.1207 -0.1716
 6026TIP3   OH242272   1.938   0.581  12.555 -0.2068  0.4542  0.1025
 6026TIP3    H142273   1.882   0.556  12.629  2.6180  0.2725  2.3566
 6026TIP3    H242274   1.909   0.669  12.531 -0.4296  1.0294  2.2903
 6027TIP3   OH242275   7.657   6.602  12.166  0.0626 -0.2207  0.6090
 6027TIP3    H142276   7.659   6.697  12.177 -2.3475 -0.2543  2.2335
 6027TIP3    H242277   7.727   6.569  12.223  1.7114  0.5731 -0.8837
 6028TIP3   OH242278   1.089   4.118  12.637  0.1905 -0.0794  0.5660
 6028TIP3    H142279   1.005   4.162  12.628  0.7940  0.6325 -3.3394
 6028TIP3    H242280   1.154   4.188  12.634  0.9883 -0.8198 -0.1172
 6029TIP3   OH242281   7.422   1.999  11.638 -0.1140 -0.8271  0.0644
 6029TIP3    H142282   7.331   2.014  11.613 -0.0789  1.1822  0.9616
 6029TIP3    H242283   7.466   1.976  11.556 -0.7302  1.9347 -1.1478
 6030TIP3   OH242284   6.260   5.354  11.947  0.3262  0.2299 -0.4808
 6030TIP3    H142285   6.301   5.337  12.032 -1.4248 -0.6360  0.2351
 6030TIP3    H242286   6.269   5.449  11.935  0.5871  0.3639  0.6728
 6031TIP3   OH242287   3.899   4.436  12.320  0.7257 -0.3177 -0.4139
 6031TIP3    H142288   3.851   4.398  12.394  0.1160 -0.8015 -1.0468
 6031TIP3    H242289   3.971   4.485  12.361 -0.0365  0.0502  0.5353
 6032TIP3   OH242290   2.302   1.225  11.425  0.6700 -0.1814  0.6217
 6032TIP3    H142291   2.287   1.130  11.420 -1.2929  0.1244 -0.3244
 6032TIP3    H242292   2.319   1.252  11.335  0.6935  0.4412  0.8076
 6033TIP3   OH242293   3.321   0.370  13.703 -0.0696 -0.2166 -0.5278
 6033TIP3    H142294   3.384   0.414  13.760 -0.1008 -0.6387 -0.1699
 6033TIP3    H242295   3.329   0.416  13.619 -1.5974  1.8863  0.3933
 6034TIP3   OH242296   5.244   4.412  10.966  0.5243  0.0546  0.0756
 6034TIP3    H142297   5.187   4.353  11.016 -1.0172  0.7891 -0.7507
 6034TIP3    H242298   5.329   4.406  11.011 -0.5068 -0.1035  2.1468
 6035TIP3   OH242299   5.192   1.005  12.948  0.0518  0.5757  0.1277
 6035TIP3    H142300   5.173   0.968  12.862  1.6971 -0.2181  0.0762
 6035TIP3    H242301   5.287   1.002  12.955  0.2038  3.6841  0.6425
 6036TIP3   OH242302   1.320   1.889  11.003  0.4938 -0.5444  0.4860
 6036TIP3    H142303   1.269   1.808  11.001 -0.6298  0.1507  0.0490
 6036TIP3    H242304   1.257   1.957  10.981  1.8177  0.2344 -1.0977
 6037TIP3   OH242305   0.311   4.226  13.509  0.1730  0.0125  0.3075
 6037TIP3    H142306   0.296   4.133  13.523 -1.5698  0.3996  1.3034
 6037TIP3    H242307   0.373   4.251  13.579  0.6905 -0.3997 -0.0016
 6038TIP3   OH242308   1.301   4.477  10.878  0.0062 -0.1393 -0.4242
 6038TIP3    H142309   1.331   4.389  10.853  0.3536  0.0129 -0.5530
 6038TIP3    H242310   1.371   4.535  10.848  0.2220  0.0916  0.5143
 6039TIP3   OH242311   0.311   1.060  13.613 -0.2803  0.4363  0.0996
 6039TIP3    H142312   0.236   1.116  13.636 -1.7584 -1.0611 -0.8773
 6039TIP3    H242313   0.345   1.032  13.698 -0.5625  1.4335  0.5717
 6040TIP3   OH242314   5.628   6.960  12.619 -0.3817  0.4207 -0.1454
 6040TIP3    H142315   5.602   7.022  12.551 -0.3748  0.6547  0.0674
 6040TIP3    H242316   5.614   7.006  12.701 -0.4411  0.1174  0.0165
 6041TIP3   OH242317   5.186   0.872  12.214  0.3039 -0.4776  0.1178
 6041TIP3    H142318   5.125   0.804  12.185 -0.8609  0.6302 -0.0788
 6041TIP3    H242319   5.186   0.937  12.144  1.4501 -0.2759  0.2785
 6042TIP3   OH242320   5.163   2.794  12.144  0.3683  0.0357  0.7015
 6042TIP3    H142321   5.140   2.750  12.226  0.9974 -0.7776  0.4624
 6042TIP3    H242322   5.093   2.770  12.084  0.2714  0.0542  0.8054
 6043TIP3   OH242323   0.964   7.244  12.898 -0.0992 -0.2047 -0.6699
 6043TIP3    H142324   0.887   7.296  12.924 -0.2331 -0.7879  0.1352
 6043TIP3    H242325   0.946   7.218  12.807 -1.6492 -1.7030  0.0071
 6044TIP3   OH242326   1.128   5.336  12.003 -0.1775  0.7651 -0.2448
 6044TIP3    H142327   1.094   5.387  11.930  0.3703  1.9382  0.2986
 6044TIP3    H242328   1.222   5.353  12.003 -0.0886  0.3192  0.3723
 6045TIP3   OH242329   1.680   1.668  11.237  0.2318  0.0382  0.4453
 6045TIP3    H142330   1.676   1.613  11.158  2.6171  0.8983 -0.3641
 6045TIP3    H242331   1.618   1.627  11.298 -1.1580 -1.0700 -1.6008
 6046TIP3   OH242332   1.635   1.404  11.095 -0.3193 -0.5952  0.5707
 6046TIP3    H142333   1.594   1.322  11.068  0.4939 -0.4073 -1.3769
 6046TIP3    H242334   1.590   1.472  11.044 -0.3861  0.0977  1.5133
 6047TIP3   OH242335   4.785   3.151  11.033 -0.3012  0.3990  0.1430
 6047TIP3    H142336   4.735   3.227  11.061 -0.1090  0.5688  0.0270
 6047TIP3    H242337   4.825   3.177  10.949 -0.7481 -0.0460 -0.2164
 6048TIP3   OH242338   2.863   7.407  11.928  0.4274 -0.0382  1.2112
 6048TIP3    H142339   2.941   7.354  11.944  0.6388  0.1108  0.6895
 6048TIP3    H242340   2.845   7.450  12.012  1.2478  0.3798  1.1810
 6049TIP3   OH242341   2.105   6.706  11.283 -0.4208  0.2060  0.1143
 6049TIP3    H142342   2.161   6.776  11.314 -0.5090  0.3958 -0.1491
 6049TIP3    H242343   2.066   6.740  11.202 -0.4421 -0.1544 -0.0311
 6050TIP3   OH242344   5.963   5.707  11.237  0.0922  0.3215 -0.7128
 6050TIP3    H142345   5.998   5.694  11.325 -1.7985 -1.4095 -0.1447
 6050TIP3    H242346   5.950   5.801  11.230 -0.7644  0.3924  1.2930
 6051TIP3   OH242347   5.646   5.038  12.140 -0.1314  0.0929 -0.0166
 6051TIP3    H142348   5.704   4.993  12.079 -0.6402 -1.8926  0.8675
 6051TIP3    H242349   5.645   5.129  12.111  1.8618 -0.2225 -1.2164
 6052TIP3   OH242350   0.046   1.500  11.116  0.1508 -0.0330  0.0827
 6052TIP3    H142351   0.043   1.527  11.025  0.3672  0.7258  0.2964
 6052TIP3    H242352   0.133   1.460  11.127 -0.0421 -0.5149 -0.1501
 6053TIP3   OH242353   4.945   1.024  13.710 -0.0129 -0.0907  0.0026
 6053TIP3    H142354   4.927   1.048  13.619 -0.5015  0.6805  0.2879
 6053TIP3    H242355   4.993   1.099  13.745  2.3786 -1.3996 -0.2621
 6054TIP3   OH242356   5.131   3.363  11.627  0.1854  0.3382  0.7367
 6054TIP3    H142357   5.147   3.382  11.719 -1.5742  0.3508  1.0572
 6054TIP3    H242358   5.125   3.268  11.622 -0.3343  0.3697  0.7430
 6055TIP3   OH242359   0.004   4.570  12.085  0.4051  0.3717  0.0794
 6055TIP3    H142360   0.035   4.481  12.101  0.3476  0.4887  0.8536
 6055TIP3    H242361   0.045   4.623  12.153  2.2965  1.3647 -1.6912
 6056TIP3   OH242362   0.059   6.027  12.584 -0.0788 -0.1639 -0.0295
 6056TIP3    H142363   0.095   6.000  12.500  1.6638 -0.1994  0.6895
 6056TIP3    H242364   0.121   6.092  12.617 -1.5291  0.9899  0.5663
 6057TIP3   OH242365   0.305   1.388  11.046 -0.3730 -0.0916  0.0682
 6057TIP3    H142366   0.399   1.405  11.036 -0.3186  0.0156  0.7388
 6057TIP3    H242367   0.301   1.306  11.094 -0.6285 -0.3888 -0.4584
 6058TIP3   OH242368   5.260   4.423  11.308 -0.2821 -0.2090  0.7934
 6058TIP3    H142369   5.165   4.436  11.302 -0.3821 -1.2865 -0.1038
 6058TIP3    H242370   5.281   4.361  11.239  1.3015  1.0904  0.0175
 6059TIP3   OH242371   5.608   5.854  12.708 -0.2721 -0.1111 -0.0279
 6059TIP3    H142372   5.697   5.860  12.674  1.2004  0.0721  3.4168
 6059TIP3    H242373   5.555   5.902  12.645  2.4597  1.8363 -1.0499
 6060TIP3   OH242374   1.497   0.343  12.759 -0.2360 -0.1361 -0.2904
 6060TIP3    H142375   1.572   0.289  12.784 -0.4008 -0.9109 -1.3898
 6060TIP3    H242376   1.480   0.319  12.668 -3.2530 -1.7210  0.5449
 6061TIP3   OH242377   0.746   5.286  11.141 -0.1514 -0.2272 -0.3034
 6061TIP3    H142378   0.695   5.334  11.076 -0.1332 -0.7876 -0.7344
 6061TIP3    H242379   0.697   5.206  11.157  0.9462 -1.1530 -1.3109
 6062TIP3   OH242380   1.313   3.318  11.864  0.1625  0.1706 -0.1259
 6062TIP3    H142381   1.283   3.227  11.861  0.8488 -0.1126  0.9666
 6062TIP3    H242382   1.281   3.350  11.949 -0.8595  1.2454 -0.8885
 6063TIP3   OH242383   5.630   4.319  13.169 -0.5699 -0.0016  0.5376
 6063TIP3    H142384   5.638   4.414  13.168  0.5568 -0.0811  1.3118
 6063TIP3    H242385   5.573   4.300  13.094  1.5018  1.0802 -1.4318
 6064TIP3   OH242386   2.147   5.011  12.531 -0.9570 -0.0451  0.3899
 6064TIP3    H142387   2.118   5.096  12.565 -0.9221 -0.0625  0.4626
 6064TIP3    H242388   2.136   5.018  12.436 -0.3367  0.2738  0.3363
 6065TIP3   OH242389   4.755   2.286  12.004 -0.2695 -0.0835  0.2398
 6065TIP3    H142390   4.754   2.255  11.913 -0.4197 -0.0314  0.2233
 6065TIP3    H242391   4.843   2.322  12.016 -0.4573  0.5148 -0.0926
 6066TIP3   OH242392   1.250   1.419  13.653 -0.3901  0.4243 -0.2455
 6066TIP3    H142393   1.201   1.345  13.618  3.0117 -1.5261 -1.3728
 6066TIP3    H242394   1.252   1.404  13.748  0.3073 -1.0237 -0.4671
 6067TIP3   OH242395   3.247   4.678  11.955  0.2252  0.3709 -0.3240
 6067TIP3    H142396   3.230   4.602  11.899  0.4574 -1.0627  1.4873
 6067TIP3    H242397   3.328   4.657  12.001 -0.0127  1.4605  0.6334
 6068TIP3   OH242398   3.209   5.991  10.961  0.2026 -0.7475 -0.1409
 6068TIP3    H142399   3.114   5.999  10.960  0.0647 -1.7390  1.4056
 6068TIP3    H242400   3.240   6.061  10.904 -1.3167  1.6361  1.7585
 6069TIP3   OH242401   5.984   3.456  12.131 -0.1836 -0.4596 -0.2536
 6069TIP3    H142402   5.915   3.397  12.101  0.1935  0.2595 -2.7287
 6069TIP3    H242403   5.969   3.537  12.083  2.0687 -0.1178 -0.4741
 6070TIP3   OH242404   7.516   2.175  11.282  0.6757 -0.1345  0.4732
 6070TIP3    H142405   7.492   2.097  11.233  0.4135  0.2640 -0.0409
 6070TIP3    H242406   7.595   2.208  11.239  0.3598  0.3000  0.2229
 6071TIP3   OH242407   2.888   4.397  13.352  0.5695 -0.8244  0.3637
 6071TIP3    H142408   2.813   4.352  13.391  1.6947 -2.6347  0.5240
 6071TIP3    H242409   2.926   4.334  13.292  0.0270  1.2327 -2.3407
 6072TIP3   OH242410   6.693   7.164  11.545 -0.1965 -0.4206  0.4239
 6072TIP3    H142411   6.619   7.113  11.578 -1.9113  0.2797 -2.0613
 6072TIP3    H242412   6.706   7.132  11.456  0.2894  1.7766 -0.3445
 6073TIP3   OH242413   4.387   6.510  10.922  0.1135  0.1179  0.2456
 6073TIP3    H142414   4.467   6.536  10.969  1.3785  1.0606 -2.2397
 6073TIP3    H242415   4.417   6.492  10.833 -2.0222 -2.3911 -0.0759
 6074TIP3   OH242416   5.493   6.821  12.190  0.0845  0.1030  0.3852
 6074TIP3    H142417   5.492   6.744  12.133  0.7764  0.7046 -0.4711
 6074TIP3    H242418   5.473   6.786  12.277 -1.2322 -0.8065 -0.2456
 6075TIP3   OH242419   0.538   2.753  11.656  0.0414  0.0537 -0.0599
 6075TIP3    H142420   0.608   2.739  11.592  0.1449  2.6876 -0.6503
 6075TIP3    H242421   0.549   2.683  11.720  2.1698 -0.5726 -1.0236
 6076TIP3   OH242422   4.002   1.945  11.079  0.1373  0.3145  0.3783
 6076TIP3    H142423   3.998   1.857  11.117  2.0052 -1.5875 -3.2916
 6076TIP3    H242424   4.076   1.987  11.122  1.7198 -1.4778 -0.4143
 6077TIP3   OH242425   0.533   1.623  12.259 -0.6148 -0.0670  0.1970
 6077TIP3    H142426   0.577   1.605  12.342  0.3043 -1.4926 -0.5706
 6077TIP3    H242427   0.575   1.565  12.196 -1.3493  0.9330 -1.2666
 6078TIP3   OH242428   1.304   2.970  13.144 -0.2146 -0.1735 -0.0873
 6078TIP3    H142429   1.241   2.978  13.073  0.3036 -0.2501 -0.5720
 6078TIP3    H242430   1.354   3.052  13.141  0.6469 -0.6910 -0.6608
 6079TIP3   OH242431   4.829   2.904  11.449 -0.7080  0.0944  0.3277
 6079TIP3    H142432   4.781   2.967  11.395 -0.4541 -0.1550 -0.1871
 6079TIP3    H242433   4.818   2.820  11.405  2.2605  0.3975 -1.2353
 6080TIP3   OH242434   4.712   6.231  13.221 -0.0418  0.0642 -0.1280
 6080TIP3    H142435   4.718   6.162  13.288  2.3122 -1.9174 -2.1857
 6080TIP3    H242436   4.749   6.191  13.143  1.2626  3.6558 -1.5160
 6081TIP3   OH242437   6.679   7.268  12.452 -0.2716  0.7533  0.4767
 6081TIP3    H142438   6.641   7.276  12.364 -0.6262  0.1865  0.5687
 6081TIP3    H242439   6.747   7.335  12.455  1.4966 -0.8443 -1.1531
 6082TIP3   OH242440   6.954   4.486  13.362  0.1431  0.0021  0.4465
 6082TIP3    H142441   6.937   4.427  13.436  1.7170  0.6050  1.3347
 6082TIP3    H242442   7.041   4.461  13.331 -0.9794 -1.0940 -2.0813
 6083TIP3   OH242443   7.593   5.198  12.470  0.0825  0.4088  0.3902
 6083TIP3    H142444   7.543   5.117  12.473  2.4110 -1.1036  1.0972
 6083TIP3    H242445   7.527   5.268  12.473 -1.9287 -1.4360  1.7419
 6084TIP3   OH242446   0.864   1.931  12.241  0.5165  0.1538  0.7074
 6084TIP3    H142447   0.825   2.005  12.195  0.4005 -0.8143 -0.8200
 6084TIP3    H242448   0.956   1.957  12.253  0.1065  1.2088  1.6645
 6085TIP3   OH242449   2.493   2.499  11.647 -0.5371 -0.1941  0.8506
 6085TIP3    H142450   2.516   2.425  11.590 -1.3920  0.3861 -0.2915
 6085TIP3    H242451   2.423   2.544  11.600 -0.2395  1.1732  1.6785
 6086TIP3   OH242452   1.291   0.338  13.515 -0.1761  0.4270 -0.2040
 6086TIP3    H142453   1.369   0.394  13.527 -1.1818  1.5165  1.9049
 6086TIP3    H242454   1.227   0.373  13.577 -1.9221 -1.2554 -0.9522
 6087TIP3   OH242455   7.261   0.814  12.939 -0.2692  0.8521  0.5195
 6087TIP3    H142456   7.181   0.782  12.981 -0.7578 -0.4171 -1.2415
 6087TIP3    H242457   7.233   0.890  12.888 -1.1106 -1.2032 -2.3753
 6088TIP3   OH242458   6.902   4.902  12.184 -0.3398 -0.3164  0.3248
 6088TIP3    H142459   6.988   4.923  12.221  0.1135 -0.3946 -0.6774
 6088TIP3    H242460   6.871   4.984  12.146  0.0292 -0.6773 -0.7770
 6089TIP3   OH242461   7.503   5.545  12.210  0.4093 -0.0431 -0.1719
 6089TIP3    H142462   7.453   5.479  12.161 -0.0534 -0.7215  1.1744
 6089TIP3    H242463   7.479   5.530  12.301  1.0102  1.4077  0.2418
 6090TIP3   OH242464   6.808   5.606  12.467 -0.1844 -0.1807 -0.3859
 6090TIP3    H142465   6.733   5.595  12.526 -0.9672 -1.1356 -1.5141
 6090TIP3    H242466   6.884   5.585  12.522 -0.8827 -0.9361  0.3206
 6091TIP3   OH242467   4.472   2.241  11.500 -0.1157  0.2550  0.1459
 6091TIP3    H142468   4.404   2.205  11.558 -0.0657  1.2286  0.8310
 6091TIP3    H242469   4.427   2.309  11.450  0.5183  1.5173  1.2247
 6092TIP3   OH242470   3.486   3.782  13.243 -0.3895  0.1556 -0.0350
 6092TIP3    H142471   3.551   3.825  13.298 -0.9617 -0.7830  1.4284
 6092TIP3    H242472   3.495   3.824  13.157  1.6051  0.5796  0.3311
 6093TIP3   OH242473   1.543   6.657  12.981 -0.1528 -0.3136 -0.4785
 6093TIP3    H142474   1.605   6.587  12.959 -0.1509 -1.2478  2.1186
 6093TIP3    H242475   1.459   6.625  12.949  0.2630 -0.1699 -1.7965
 6094TIP3   OH242476   2.693   1.039  12.872  0.1525 -0.3254 -0.1256
 6094TIP3    H142477   2.719   0.948  12.884 -1.4668 -0.9291 -0.9006
 6094TIP3    H242478   2.668   1.046  12.780 -3.4688 -0.2004  0.6905
 6095TIP3   OH242479   5.758   6.057  13.104 -0.6586  0.3027 -0.2063
 6095TIP3    H142480   5.664   6.075  13.108 -0.7286 -0.2453  1.5114
 6095TIP3    H242481   5.779   6.018  13.189  0.9426 -0.5064 -0.9182
 6096TIP3   OH242482   2.249   4.501  12.721 -0.0994 -0.0054  0.1561
 6096TIP3    H142483   2.211   4.588  12.708 -0.6841 -0.2350  0.3020
 6096TIP3    H242484   2.259   4.493  12.816  0.8857  0.2891  0.0868
 6097TIP3   OH242485   7.355   2.963  11.591  0.3781  0.1786  0.2448
 6097TIP3    H142486   7.297   2.916  11.650  0.5134  0.0194  0.2512
 6097TIP3    H242487   7.306   3.042  11.566 -0.0873 -0.2639 -0.2465
 6098TIP3   OH242488   4.337   3.716  11.343  0.1853 -0.1363 -0.2138
 6098TIP3    H142489   4.394   3.694  11.268  0.8707  1.3114 -0.1430
 6098TIP3    H242490   4.254   3.673  11.323  1.5141 -3.1078  0.1093
 6099TIP3   OH242491   0.377   1.772  10.901 -0.5001  0.0160 -0.0188
 6099TIP3    H142492   0.412   1.847  10.853 -1.0024 -1.0359 -2.1371
 6099TIP3    H242493   0.282   1.778  10.888 -0.5960 -0.6206  0.3796
 6100TIP3   OH242494   5.429   1.391  11.167  0.5082  0.3478 -0.2200
 6100TIP3    H142495   5.441   1.307  11.211 -1.8488 -1.2106 -2.2742
 6100TIP3    H242496   5.479   1.384  11.086 -0.3900  0.5315 -0.8112
 6101TIP3   OH242497   7.047   2.282  11.306  0.5363 -0.5636 -0.1876
 6101TIP3    H142498   7.134   2.271  11.343  0.6107 -0.3368 -0.2977
 6101TIP3    H242499   7.039   2.376  11.289  0.0851 -0.5160  0.2821
 6102TIP3   OH242500   1.354   5.406  12.705  0.1618  0.6335 -0.3651
 6102TIP3    H142501   1.360   5.495  12.671  0.0426  2.0868  2.9718
 6102TIP3    H242502   1.300   5.415  12.784 -0.3906 -2.5483 -0.2535
 6103TIP3   OH242503   4.109   5.607  12.568 -0.1824 -0.1479 -0.0315
 6103TIP3    H142504   4.084   5.538  12.630  0.7007  0.0139  0.5263
 6103TIP3    H242505   4.034   5.666  12.566 -0.6822 -0.7695 -0.0034
 6104TIP3   OH242506   3.813   3.793  13.177  0.4662  0.5087 -0.3393
 6104TIP3    H142507   3.762   3.858  13.224 -1.1018 -0.6902 -0.2985
 6104TIP3    H242508   3.764   3.779  13.095  0.6150 -0.7953 -0.2246
 6105TIP3   OH242509   7.617   6.219  10.972  0.0280  0.3730 -0.5340
 6105TIP3    H142510   7.649   6.182  10.890 -2.3014 -1.9962 -0.4950
 6105TIP3    H242511   7.577   6.302  10.947 -0.3736 -0.1730 -1.7553
 6106TIP3   OH242512   2.253   5.790  14.191  0.2739  0.2400  0.3134
 6106TIP3    H142513   2.341   5.775  14.157  0.0364  0.0077 -0.2234
 6106TIP3    H242514   2.231   5.879  14.163 -0.2299 -0.2384 -0.8662
 6107TIP3   OH242515   5.607   7.143  12.306 -0.5400 -0.4311  0.3536
 6107TIP3    H142516   5.522   7.154  12.348 -0.4584  1.1090  0.1860
 6107TIP3    H242517   5.589   7.144  12.212 -0.1910  2.4564  0.2018
 6108TIP3   OH242518   1.267   3.270  11.525 -0.0574  0.1332  0.0143
 6108TIP3    H142519   1.229   3.209  11.587 -0.6181  0.0187 -0.4288
 6108TIP3    H242520   1.361   3.267  11.542  0.0552 -1.6741 -0.7196
 6109TIP3   OH242521   1.497   0.096  11.480  0.6064  0.4803 -0.2298
 6109TIP3    H142522   1.472   0.116  11.390  0.1727  0.8993 -0.0266
 6109TIP3    H242523   1.423   0.046  11.514 -0.0679  1.8613  0.4271
 6110TIP3   OH242524   0.932   2.091  12.915  0.0063  0.5819  0.1381
 6110TIP3    H142525   1.007   2.068  12.969 -0.1900  0.8020  0.5056
 6110TIP3    H242526   0.855   2.074  12.970 -0.6283 -4.2906 -1.7012
 6111TIP3   OH242527   0.804   4.647  10.923 -0.6232 -0.6143 -0.2528
 6111TIP3    H142528   0.871   4.584  10.897  0.5191  0.1581  0.6899
 6111TIP3    H242529   0.721   4.604  10.904  0.1388 -1.9039 -0.7476
 6112TIP3   OH242530   7.088   2.048  10.998  0.4796 -0.3607 -0.2536
 6112TIP3    H142531   7.145   2.094  10.936  1.6311  1.0120  1.7264
 6112TIP3    H242532   7.011   2.105  11.006  0.3807 -0.4842 -0.3146
 6113TIP3   OH242533   5.071   6.172  11.908 -0.2091  0.3897  0.7085
 6113TIP3    H142534   5.060   6.181  12.002 -2.3108 -0.2487  0.5745
 6113TIP3    H242535   5.125   6.094  11.897  1.8312  1.6266  1.3734
 6114TIP3   OH242536   4.944   2.533  11.168 -0.0980  0.6253 -0.2888
 6114TIP3    H142537   5.019   2.502  11.116 -1.5425 -0.3288 -1.9024
 6114TIP3    H242538   4.868   2.514  11.114 -1.6493  0.2292  1.9135
 6115TIP3   OH242539   3.450   4.458  12.832  0.5778 -0.5590  0.5271
 6115TIP3    H142540   3.533   4.420  12.861  1.8546  0.8474 -1.0349
 6115TIP3    H242541   3.459   4.465  12.737 -1.0912  0.1999  0.3952
 6116TIP3   OH242542   6.984   0.458  11.768  0.1475  0.0645  0.0828
 6116TIP3    H142543   7.057   0.476  11.708  0.6017 -2.3673 -0.2235
 6116TIP3    H242544   6.912   0.433  11.710 -0.5153  1.1185  0.4407
 6117TIP3   OH242545   1.240   0.340  12.477 -0.2758 -0.0490 -0.1132
 6117TIP3    H142546   1.334   0.335  12.496 -0.0082 -0.2061 -1.4126
 6117TIP3    H242547   1.235   0.377  12.389 -1.4034 -0.8094 -0.3898
 6118TIP3   OH242548   0.694   2.442  13.211 -0.1260  0.3458 -0.2491
 6118TIP3    H142549   0.752   2.464  13.284  1.1716 -0.4198 -1.0199
 6118TIP3    H242550   0.658   2.356  13.234 -0.8182  0.7298  0.1325
 6119TIP3   OH242551   1.905   7.621  13.135  0.0288 -0.4398 -0.4247
 6119TIP3    H142552   1.968   7.575  13.191 -0.2739 -0.3794 -0.0219
 6119TIP3    H242553   1.824   7.570  13.144 -0.5361  0.6003  0.6619
 6120TIP3   OH242554   4.380   0.560  11.953  0.1796 -0.4856  0.4461
 6120TIP3    H142555   4.388   0.562  11.857  0.4069 -2.2757  0.3914
 6120TIP3    H242556   4.469   0.576  11.984 -0.0333  0.8874  0.4002
 6121TIP3   OH242557   1.028   3.818  11.042  0.0491 -0.4329 -0.0233
 6121TIP3    H142558   1.068   3.848  10.960 -0.3724  0.8580  0.2126
 6121TIP3    H242559   1.101   3.780  11.092  0.4733 -0.4440 -0.6404
 6122TIP3   OH242560   1.401   0.064  11.037 -0.1161  0.3291  0.4406
 6122TIP3    H142561   1.357  -0.016  11.006 -1.7978  0.2833  2.6773
 6122TIP3    H242562   1.473   0.033  11.091  1.1124  0.4058 -1.0729
 6123TIP3   OH242563   6.670   0.281  11.111  0.4760  0.5531  0.0360
 6123TIP3    H142564   6.725   0.221  11.162 -0.2132 -1.7970 -1.7992
 6123TIP3    H242565   6.588   0.234  11.099  0.6965  0.7745 -3.4358
 6124TIP3   OH242566   3.111   0.671  11.342  0.0340 -0.0360 -0.4509
 6124TIP3    H142567   3.175   0.672  11.413 -0.7601  0.0558  0.2830
 6124TIP3    H242568   3.160   0.695  11.264  1.1019 -0.9418 -0.0827
 6125TIP3   OH242569   4.964   5.492  12.555  0.4070 -0.6090  0.0843
 6125TIP3    H142570   5.024   5.460  12.488  0.7838  0.0155  0.1186
 6125TIP3    H242571   4.877   5.467  12.523  0.5290  0.2499 -0.9585
 6126TIP3   OH242572   3.465   2.326  11.964  0.0311  0.4428  0.0945
 6126TIP3    H142573   3.463   2.232  11.983 -1.5139  0.5663  0.6857
 6126TIP3    H242574   3.489   2.366  12.048 -2.2361  0.7123  0.6788
 6127TIP3   OH242575   6.727   5.913  11.560  0.2248  0.1929 -0.1642
 6127TIP3    H142576   6.716   5.886  11.469 -0.2893 -0.4501  0.0800
 6127TIP3    H242577   6.771   5.840  11.602 -0.6802 -0.0593  0.3805
 6128TIP3   OH242578   4.018   3.584  13.286  0.0655  0.4972  0.8587
 6128TIP3    H142579   3.966   3.642  13.231  0.4430  0.2413  0.2129
 6128TIP3    H242580   3.971   3.501  13.285  0.1013  0.4766  0.8699
 6129TIP3   OH242581   1.019   5.438  11.773 -0.3824 -0.3404 -0.2893
 6129TIP3    H142582   0.975   5.499  11.833 -1.5867  0.6623 -2.1096
 6129TIP3    H242583   0.948   5.395  11.725  0.5344 -1.5450 -0.6316
 6130TIP3   OH242584   3.936   4.649  12.880 -0.1358 -0.4097  0.1965
 6130TIP3    H142585   3.982   4.662  12.963 -1.6420 -1.4357  1.2381
 6130TIP3    H242586   4.001   4.609  12.822  0.8486  0.0505  0.9512
 6131TIP3   OH242587   0.109   7.109  13.374  0.0845 -0.4180  0.5332
 6131TIP3    H142588   0.091   7.080  13.463 -0.8189 -0.9823  0.1829
 6131TIP3    H242589   0.148   7.033  13.331  1.4698  0.1657  0.7112
 6132TIP3   OH242590   5.494   1.148  11.287  0.5780  0.9055  0.0184
 6132TIP3    H142591   5.539   1.137  11.371  0.2858 -1.0242 -0.0306
 6132TIP3    H242592   5.552   1.107  11.223 -0.2440  0.2742 -0.3465
 6133TIP3   OH242593   5.147   1.249  11.999  0.2396 -0.0197 -0.4513
 6133TIP3    H142594   5.130   1.343  11.999 -0.5176  0.0144 -4.4485
 6133TIP3    H242595   5.065   1.210  12.031  0.6611  0.5632  1.5343
 6134TIP3   OH242596   7.382   7.199  12.289  1.0636  0.0279  0.2385
 6134TIP3    H142597   7.456   7.248  12.252 -0.8697  1.7618 -1.5546
 6134TIP3    H242598   7.401   7.108  12.267  2.8002  0.3626  0.1544
 6135TIP3   OH242599   2.989   3.454  12.281 -0.3624  0.5359  0.3045
 6135TIP3    H142600   3.000   3.429  12.373 -0.8573  1.8074  0.7292
 6135TIP3    H242601   2.920   3.396  12.248  1.6953 -1.8701 -0.1056
 6136TIP3   OH242602   3.884   1.325  11.755  0.2599  0.3905  0.9923
 6136TIP3    H142603   3.972   1.328  11.717 -0.1273  3.1306  0.1383
 6136TIP3    H242604   3.847   1.242  11.722  1.2521  0.9163 -1.6726
 6137TIP3   OH242605   2.618   1.342  11.137 -0.2101 -0.3544 -0.3679
 6137TIP3    H142606   2.542   1.313  11.086 -1.6717 -1.0420  2.0486
 6137TIP3    H242607   2.668   1.262  11.153 -0.9182 -0.5370  1.0457
 6138TIP3   OH242608   2.395   5.027  12.203  0.1937  0.2155 -0.3417
 6138TIP3    H142609   2.383   5.052  12.111  0.4200 -0.7575 -0.6544
 6138TIP3    H242610   2.342   4.947  12.212 -1.5876  1.4728  0.9562
 6139TIP3   OH242611   4.747   7.149  13.468  0.1299  0.5899 -0.5657
 6139TIP3    H142612   4.681   7.206  13.507 -0.3148  0.6178 -1.3378
 6139TIP3    H242613   4.816   7.208  13.440 -0.4445  0.8035 -1.5966
 6140TIP3   OH242614   0.430   2.436  11.796  0.2185  0.4824 -0.2354
 6140TIP3    H142615   0.389   2.512  11.838  0.2857  0.9010 -0.9244
 6140TIP3    H242616   0.366   2.408  11.730  1.0500  1.1839 -1.3690
 6141TIP3   OH242617   1.278   5.944  10.657 -0.6158  0.2363  0.3363
 6141TIP3    H142618   1.206   5.907  10.707 -0.5144 -3.1009 -1.6854
 6141TIP3    H242619   1.337   5.870  10.641  1.6895  2.1645 -0.7457
 6142TIP3   OH242620   1.440   5.702  13.178  0.2884 -0.3302  0.2611
 6142TIP3    H142621   1.371   5.676  13.117 -0.1943 -0.6092  0.9111
 6142TIP3    H242622   1.521   5.669  13.139  0.0210 -0.2963 -0.3393
 6143TIP3   OH242623   7.087   6.418  12.859 -0.0769  0.2993 -0.2633
 6143TIP3    H142624   7.176   6.392  12.834  0.1623  0.5934  0.2494
 6143TIP3    H242625   7.036   6.409  12.779  0.3662 -0.0971 -0.5092
 6144TIP3   OH242626   4.890   4.227  11.578 -0.7543  0.3344  0.2468
 6144TIP3    H142627   4.975   4.235  11.536 -0.1112  0.4820  1.5228
 6144TIP3    H242628   4.907   4.178  11.659 -2.1153 -0.8182 -0.1275
 6145TIP3   OH242629   1.915   7.639  13.669 -0.6322 -0.4416  0.0848
 6145TIP3    H142630   1.973   7.598  13.605 -0.8956 -0.1297 -0.3534
 6145TIP3    H242631   1.913   7.577  13.742  0.0972 -0.5488  0.0280
 6146TIP3   OH242632   2.262   6.007  13.999  0.0442 -0.1566  0.0163
 6146TIP3    H142633   2.209   6.054  13.934 -1.6576  0.8296  2.0211
 6146TIP3    H242634   2.278   5.922  13.959 -0.1194  0.7392 -2.0868
 6147TIP3   OH242635   2.797   1.320  12.888  0.6751 -0.0527  0.2590
 6147TIP3    H142636   2.891   1.311  12.902  0.6151 -0.0059  0.7213
 6147TIP3    H242637   2.764   1.230  12.886  0.5333 -0.0577  1.5817
 6148TIP3   OH242638   6.068   7.060  11.938 -0.8819  0.0983 -0.0468
 6148TIP3    H142639   6.010   6.984  11.938 -1.5790  0.6170  0.1427
 6148TIP3    H242640   6.064   7.094  11.849  0.5172 -0.8748 -0.5148
 6149TIP3   OH242641   6.776   4.445  11.346  0.2065  0.5575 -0.1119
 6149TIP3    H142642   6.727   4.380  11.296 -0.8858  2.5673 -1.8180
 6149TIP3    H242643   6.716   4.472  11.416 -1.0865  2.6579 -1.9054
 6150TIP3   OH242644   4.175   6.677  11.491 -0.2682 -0.1427  0.0571
 6150TIP3    H142645   4.195   6.681  11.585 -0.9025 -0.0621  0.1940
 6150TIP3    H242646   4.104   6.741  11.479 -0.6117 -0.5976 -0.3599
 6151TIP3   OH242647   4.660   2.863  12.395 -0.3406  0.3096  0.1240
 6151TIP3    H142648   4.603   2.796  12.359 -0.8327  0.9022 -0.2101
 6151TIP3    H242649   4.621   2.885  12.480 -1.3006  1.5487 -0.6085
 6152TIP3   OH242650   7.321   1.357  11.697 -0.1754 -0.0517 -0.0743
 6152TIP3    H142651   7.254   1.318  11.753 -0.8137 -2.2223 -2.1974
 6152TIP3    H242652   7.385   1.288  11.684  0.8439  0.9648 -0.6625
 6153TIP3   OH242653   6.644   5.151  12.304 -0.2247  0.4172  0.2903
 6153TIP3    H142654   6.688   5.224  12.346 -0.4975 -0.1360  1.5880
 6153TIP3    H242655   6.616   5.094  12.376 -1.3311 -0.2252 -0.5968
 6154TIP3   OH242656   6.588   0.473  13.340 -0.1596  0.5383  0.0398
 6154TIP3    H142657   6.626   0.505  13.258 -0.0348  0.7007  0.1613
 6154TIP3    H242658   6.523   0.409  13.313  1.6075 -1.3007 -0.1509
 6155TIP3   OH242659   7.551   3.883  11.359  0.5495  0.4648  0.0163
 6155TIP3    H142660   7.606   3.886  11.281 -0.3803  2.2992 -0.6272
 6155TIP3    H242661   7.563   3.969  11.400 -0.3711  0.1848  0.8987
 6156TIP3   OH242662   3.065   2.748  12.460  0.5263  0.3285  0.0760
 6156TIP3    H142663   3.093   2.784  12.375 -1.2156  1.5256 -0.0397
 6156TIP3    H242664   2.975   2.777  12.470  0.9100  0.8775  2.7001
 6157TIP3   OH242665   7.193   1.365  12.365  0.0300  0.3737 -0.5423
 6157TIP3    H142666   7.138   1.442  12.378 -1.1748 -0.0807 -2.4488
 6157TIP3    H242667   7.244   1.357  12.446 -0.4456  2.6331  0.0488
 6158TIP3   OH242668   6.310   4.270  12.280 -0.2745  0.7239  0.7218
 6158TIP3    H142669   6.317   4.363  12.260  2.1431  0.6085  0.6791
 6158TIP3    H242670   6.342   4.262  12.369 -1.0371 -0.0074  0.9413
 6159TIP3   OH242671   6.322   6.318  11.553  0.7047  0.4663  0.7951
 6159TIP3    H142672   6.356   6.275  11.632  0.2475 -1.7714 -0.1392
 6159TIP3    H242673   6.400   6.344  11.504  1.0052  0.3911  1.2281
 6160TIP3   OH242674   7.322   4.281  11.312 -0.4190  0.3785 -0.6113
 6160TIP3    H142675   7.296   4.201  11.268 -1.4040  0.8178 -0.8455
 6160TIP3    H242676   7.355   4.252  11.397  2.6251 -0.5979 -1.9925
 6161TIP3   OH242677   7.403   7.176  11.258 -0.2696 -0.4613 -0.0480
 6161TIP3    H142678   7.450   7.170  11.341  0.6555 -0.7871 -0.5766
 6161TIP3    H242679   7.448   7.113  11.201 -1.6962 -1.1799 -0.4139
 6162TIP3   OH242680   2.434   2.328  12.601 -0.7033  0.3026  0.5578
 6162TIP3    H142681   2.362   2.386  12.576 -1.4545 -0.2060  1.4708
 6162TIP3    H242682   2.489   2.382  12.658 -1.1149  0.2895  0.9757
 6163TIP3   OH242683   5.039   1.261  11.242  0.1829 -0.1056 -0.2602
 6163TIP3    H142684   5.051   1.230  11.332 -2.0692  0.9029  0.4494
 6163TIP3    H242685   5.025   1.181  11.191  0.2473 -0.6035  0.4878
 6164TIP3   OH242686   0.358   6.154  13.681  0.3501 -0.4242 -0.3311
 6164TIP3    H142687   0.435   6.175  13.734  0.0594  1.0773 -0.4450
 6164TIP3    H242688   0.390   6.159  13.591  0.0151  0.7897 -0.4002
 6165TIP3   OH242689   2.896   2.636  11.112 -0.2985  0.0805 -0.4389
 6165TIP3    H142690   2.808   2.649  11.148 -0.2096 -0.7417  0.0893
 6165TIP3    H242691   2.916   2.719  11.070 -0.7604  0.7720  0.6516
 6166TIP3   OH242692   6.964   6.398  11.105 -0.2992 -0.3664 -0.2032
 6166TIP3    H142693   7.014   6.441  11.036 -1.6786  0.9347 -0.4302
 6166TIP3    H242694   6.879   6.380  11.067 -0.6252 -0.9107  0.7315
 6167TIP3   OH242695   4.007   0.684  11.105 -0.2521 -0.1430 -0.1441
 6167TIP3    H142696   3.956   0.647  11.033  0.2532  0.4050 -0.7866
 6167TIP3    H242697   3.955   0.758  11.135  0.4688  0.8298 -1.2416
 6168TIP3   OH242698   4.870   0.785  13.594 -0.0156  0.2623 -0.3284
 6168TIP3    H142699   4.831   0.856  13.645  0.0840  0.5335 -0.6279
 6168TIP3    H242700   4.963   0.806  13.591  0.1653 -0.3662  0.3556
 6169TIP3   OH242701   2.293   4.531  19.301 -0.2139 -0.7010 -0.6040
 6169TIP3    H142702   2.252   4.587  19.367  1.7702  1.3351 -0.9872
 6169TIP3    H242703   2.223   4.513  19.238 -0.7993  1.9836 -0.8384
 6170TIP3   OH242704   2.804   7.035  11.964  0.1025 -0.0912 -0.2368
 6170TIP3    H142705   2.749   7.113  11.971  3.0541  2.3450 -1.3977
 6170TIP3    H242706   2.882   7.057  12.016 -0.4999 -3.9902  2.6854
 6171TIP3   OH242707   4.233   7.233  13.502  0.0102  0.2870 -0.1591
 6171TIP3    H142708   4.166   7.279  13.552  0.0240  2.8523 -2.2844
 6171TIP3    H242709   4.183   7.176  13.443 -0.1250 -0.3606  0.5646
 6172TIP3   OH242710   5.557   6.120  12.832  0.6281  0.6915 -0.9698
 6172TIP3    H142711   5.592   6.146  12.917  1.5510 -0.6856 -0.8825
 6172TIP3    H242712   5.582   6.028  12.824 -1.0428  0.2901 -1.9402
 6173TIP3   OH242713   5.318   0.499  12.795 -0.3074 -0.3553 -0.4501
 6173TIP3    H142714   5.398   0.547  12.772 -0.1603 -0.2746  0.2112
 6173TIP3    H242715   5.264   0.504  12.717  0.5557 -0.8707 -1.0950
 6174TIP3   OH242716   2.872   3.822  12.772  0.2300 -0.9020 -0.6775
 6174TIP3    H142717   2.811   3.809  12.845  0.4096 -1.7262 -0.6669
 6174TIP3    H242718   2.925   3.742  12.771  1.1224 -0.3252 -0.8645
 6175TIP3   OH242719   6.411   0.093  13.058  0.4833  1.0395 -0.2889
 6175TIP3    H142720   6.382   0.007  13.089 -0.2777  1.2792 -0.3150
 6175TIP3    H242721   6.337   0.127  13.009  1.4103  0.9722 -1.7972
 6176TIP3   OH242722   2.150   2.519  11.761  0.6683 -0.2081 -0.5555
 6176TIP3    H142723   2.159   2.442  11.705  1.3882 -0.4784 -0.0870
 6176TIP3    H242724   2.062   2.551  11.745  0.9858 -0.0612 -2.1196
 6177TIP3   OH242725   1.480   2.823  11.629  0.2619 -0.0332 -0.2352
 6177TIP3    H142726   1.495   2.846  11.721 -0.2730  0.2016 -0.2019
 6177TIP3    H242727   1.446   2.734  11.632 -0.6764  0.3105 -0.1209
 6178TIP3   OH242728   1.561   6.121  12.847 -0.5458  0.3521 -0.4982
 6178TIP3    H142729   1.508   6.044  12.868 -0.8706  0.6482 -0.2067
 6178TIP3    H242730   1.634   6.087  12.796  0.2357 -0.3883  1.0699
 6179TIP3   OH242731   1.791   4.193  11.987  0.5412 -0.0106  0.0078
 6179TIP3    H142732   1.754   4.125  12.045 -0.4989  0.4976 -0.0316
 6179TIP3    H242733   1.858   4.235  12.040 -0.4506  0.5047  0.9022
 6180TIP3   OH242734   6.771   3.966  11.092 -0.8601 -0.4019 -0.1576
 6180TIP3    H142735   6.862   3.991  11.079 -0.8273  0.4060  1.4229
 6180TIP3    H242736   6.773   3.871  11.101  0.0117 -0.2766  1.1117
 6181TIP3   OH242737   0.167   2.979  11.037 -0.3829  0.2485  0.5393
 6181TIP3    H142738   0.214   3.007  11.115  1.4143 -1.3560  0.1161
 6181TIP3    H242739   0.091   3.036  11.032  1.4824  2.9838  1.3020
 6182TIP3   OH242740   1.472   4.029  12.342 -0.0009 -0.5381 -0.7264
 6182TIP3    H142741   1.547   4.028  12.282  0.3369 -0.4052 -0.3136
 6182TIP3    H242742   1.507   3.991  12.423  0.2614  1.5638  0.2172
 6183TIP3   OH242743   0.910   3.814  10.607 -0.1519  0.3420 -0.1140
 6183TIP3    H142744   0.997   3.834  10.642 -0.3599  1.9976 -0.4923
 6183TIP3    H242745   0.898   3.720  10.625  1.6242  0.1293  0.1007
 6184TIP3   OH242746   4.704   7.476  12.618 -0.4628  0.3241  0.1527
 6184TIP3    H142747   4.699   7.427  12.536  0.5848 -1.3328  1.0109
 6184TIP3    H242748   4.613   7.486  12.645 -0.7182 -1.7614  0.2405
 6185TIP3   OH242749   5.757   1.352  12.640 -0.5692  0.2974 -0.4971
 6185TIP3    H142750   5.824   1.412  12.674 -0.9419  0.3914  0.0853
 6185TIP3    H242751   5.800   1.267  12.639 -0.8498  0.0926  1.2160
 6186TIP3   OH242752   3.604   4.006  11.716 -0.4084 -0.7630  0.5172
 6186TIP3    H142753   3.695   3.996  11.743 -0.6982 -1.7028  1.2351
 6186TIP3    H242754   3.563   4.054  11.788 -0.2891  0.5534 -0.2580
 6187TIP3   OH242755   6.479   3.498  10.734  0.2022  0.3355 -0.2971
 6187TIP3    H142756   6.414   3.430  10.751 -0.3842  0.9214 -0.1700
 6187TIP3    H242757   6.467   3.520  10.641  0.2151  0.4537 -0.2712
 6188TIP3   OH242758   0.735   2.942  11.287 -0.2936  0.4277  0.1750
 6188TIP3    H142759   0.808   2.952  11.227 -0.2252  0.1257  0.2024
 6188TIP3    H242760   0.698   3.029  11.297 -0.0041  0.5605  0.0746
 6189TIP3   OH242761   1.395   2.317  10.863  0.1528 -0.4021 -0.5639
 6189TIP3    H142762   1.326   2.380  10.843 -0.9044 -1.0535  0.8428
 6189TIP3    H242763   1.461   2.368  10.910 -0.5150 -0.2416  0.2252
 6190TIP3   OH242764   1.515   1.230  13.439 -0.2218 -0.3367 -0.0451
 6190TIP3    H142765   1.424   1.251  13.416  0.0393 -0.1711 -0.9665
 6190TIP3    H242766   1.508   1.185  13.523 -1.1173  0.0840  0.1298
 6191TIP3   OH242767   3.301   1.098  10.807 -0.6393  0.0626 -0.0387
 6191TIP3    H142768   3.218   1.144  10.795 -2.0382 -2.5027 -1.1396
 6191TIP3    H242769   3.361   1.164  10.841 -2.8043  2.3036 -0.2987
 6192TIP3   OH242770   5.882   0.480  11.758  0.1864 -0.3262 -0.0934
 6192TIP3    H142771   5.897   0.414  11.826 -0.5817 -1.3389 -0.8606
 6192TIP3    H242772   5.799   0.452  11.717  0.0993  0.8545 -0.7495
 6193TIP3   OH242773   7.139   0.829  11.674  0.9548 -0.1265  0.2587
 6193TIP3    H142774   7.126   0.880  11.594 -0.3310  1.3647  1.3485
 6193TIP3    H242775   7.148   0.739  11.643  2.7443  0.6247 -1.6968
 6194TIP3   OH242776   1.656   4.641  11.578 -0.1909  0.2308  0.0874
 6194TIP3    H142777   1.677   4.727  11.614 -0.9098  1.8631 -2.9655
 6194TIP3    H242778   1.569   4.652  11.538 -0.2012 -1.8523 -0.5993
 6195TIP3   OH242779   6.197   2.138  11.116  0.1224 -0.1108 -0.3149
 6195TIP3    H142780   6.118   2.187  11.140 -0.7336 -0.9106 -1.3824
 6195TIP3    H242781   6.167   2.047  11.108  1.6384 -0.8178  1.4464
 6196TIP3   OH242782   7.446   5.258  13.582  0.3010 -0.2086  0.2095
 6196TIP3    H142783   7.415   5.180  13.536  0.2277  0.0297 -0.1512
 6196TIP3    H242784   7.369   5.315  13.587  0.3503 -0.1682  0.4830
 6197TIP3   OH242785   2.169   1.793  12.677  0.5574 -0.3024  0.0975
 6197TIP3    H142786   2.254   1.831  12.653  0.3820 -0.5808 -1.0046
 6197TIP3    H242787   2.109   1.822  12.608  0.1860 -1.6845 -0.1916
 6198TIP3   OH242788   1.389   6.267  11.056  0.3400  0.1418  0.2622
 6198TIP3    H142789   1.403   6.248  10.963 -0.1342 -1.0224  0.4164
 6198TIP3    H242790   1.327   6.201  11.085  1.8847 -0.7097  1.8514
 6199TIP3   OH242791   7.462   3.073  11.297  0.0012  0.3171  0.0622
 6199TIP3    H142792   7.546   3.028  11.306  0.2631  0.7075 -0.3752
 6199TIP3    H242793   7.399   3.003  11.280  0.0826 -0.0682  1.2556
 6200TIP3   OH242794   0.344   5.764  12.501 -0.3550  0.1486 -0.0379
 6200TIP3    H142795   0.250   5.765  12.489 -0.1489  2.3020 -2.2475
 6200TIP3    H242796   0.380   5.745  12.415  1.2690 -1.2048  0.8683
 6201TIP3   OH242797   1.271   5.621  11.560  0.0485  0.4227  0.0389
 6201TIP3    H142798   1.213   5.652  11.491 -0.3151 -0.1288  0.0905
 6201TIP3    H242799   1.252   5.527  11.567  0.8112  0.2675  0.1816
 6202TIP3   OH242800   6.297   4.643  11.067 -0.1259  0.3695  0.3773
 6202TIP3    H142801   6.296   4.685  10.981  0.4454 -0.6597 -0.1554
 6202TIP3    H242802   6.368   4.686  11.114  0.1834  0.2876 -0.0117
 6203TIP3   OH242803   4.172   4.244  13.089 -0.0057  0.1724 -0.2041
 6203TIP3    H142804   4.214   4.158  13.081 -0.1746  0.1519 -1.0105
 6203TIP3    H242805   4.079   4.227  13.075  0.0655  0.5964 -1.3745
 6204TIP3   OH242806   0.903   2.724  11.554 -0.0643 -0.0147  0.1389
 6204TIP3    H142807   0.827   2.699  11.501  0.0870  0.9843 -0.5836
 6204TIP3    H242808   0.974   2.733  11.491  0.1712  1.0030  0.5249
 6205TIP3   OH242809   2.263   4.946  11.931 -0.1176 -0.3440 -0.0080
 6205TIP3    H142810   2.269   4.878  11.864  1.7301 -0.5769  0.3270
 6205TIP3    H242811   2.304   5.023  11.891 -0.0206 -0.1516  0.4542
 6206TIP3   OH242812   7.445   3.921  11.616  0.2693 -0.0027  0.2262
 6206TIP3    H142813   7.486   4.001  11.581  1.8160 -0.3806  1.1089
 6206TIP3    H242814   7.469   3.853  11.553  2.4571 -0.5448  1.5654
 6207TIP3   OH242815   4.377   1.745  11.091 -0.1997 -0.4315  0.1514
 6207TIP3    H142816   4.384   1.835  11.059  0.0271 -1.2945 -2.4460
 6207TIP3    H242817   4.364   1.754  11.186 -0.3982  2.3150 -0.0632
 6208TIP3   OH242818   0.165   6.128  12.990  0.1329 -0.3562  0.2836
 6208TIP3    H142819   0.090   6.185  13.007 -0.4884 -1.8644  3.2348
 6208TIP3    H242820   0.232   6.159  13.051  0.4472 -1.5545  0.5540
 6209TIP3   OH242821   0.490   6.031  13.126 -0.7181 -0.6919  0.1678
 6209TIP3    H142822   0.457   6.116  13.157 -1.0212 -0.7038 -0.1172
 6209TIP3    H242823   0.416   5.972  13.140 -1.1163 -0.5588 -1.2255
 6210TIP3   OH242824   0.837   4.064  12.866 -0.0977  0.0132  0.2127
 6210TIP3    H142825   0.906   3.998  12.856  0.6140  0.4828  1.8078
 6210TIP3    H242826   0.850   4.123  12.792 -0.2246 -1.1442 -0.7661
 6211TIP3   OH242827   5.195   5.930  12.440 -0.0944 -0.0686  0.1464
 6211TIP3    H142828   5.209   5.860  12.377 -0.3723 -0.2290  0.2619
 6211TIP3    H242829   5.259   5.997  12.416 -1.2325  0.5635 -1.3228
 6212TIP3   OH242830   6.076   4.537  11.201 -0.4646 -0.0351  0.2828
 6212TIP3    H142831   6.096   4.450  11.234  2.0919  0.8138  1.2279
 6212TIP3    H242832   6.153   4.561  11.148 -1.9801  0.8934 -1.6383
 6213TIP3   OH242833   6.619   6.502  11.657  0.0295  0.1632 -0.5620
 6213TIP3    H142834   6.590   6.459  11.577  1.9623 -1.2884 -0.5671
 6213TIP3    H242835   6.713   6.482  11.662  0.0828  0.7226  1.7424
 6214TIP3   OH242836   6.858   0.937  12.401  0.1233  0.7967 -0.1117
 6214TIP3    H142837   6.889   0.915  12.313 -0.8543  0.3790 -0.3690
 6214TIP3    H242838   6.771   0.976  12.387  0.6092  2.1935  0.5577
 6215TIP3   OH242839   1.574   0.667  11.603 -0.1459  0.3335 -0.0840
 6215TIP3    H142840   1.480   0.680  11.589 -0.7213 -1.6781  1.4013
 6215TIP3    H242841   1.615   0.740  11.558 -2.4307  1.3935 -0.6136
 6216TIP3   OH242842   1.086   1.324  12.933 -0.1768 -0.2644 -0.5872
 6216TIP3    H142843   1.179   1.346  12.941 -0.1942  0.0769 -1.2588
 6216TIP3    H242844   1.053   1.383  12.865 -0.5539 -1.3530 -1.3819
 6217TIP3   OH242845   6.989   6.395  12.544  0.2080 -0.1000 -0.0731
 6217TIP3    H142846   6.917   6.387  12.482 -0.0248  1.5227 -0.0563
 6217TIP3    H242847   7.068   6.392  12.491  0.1092 -1.1202 -0.1738
 6218TIP3   OH242848   7.490   0.531  10.937  0.6784 -0.1112 -0.6695
 6218TIP3    H142849   7.454   0.444  10.920  0.0386  0.3153 -1.5597
 6218TIP3    H242850   7.417   0.580  10.975  1.2961 -0.2146  0.7251
 6219TIP3   OH242851   6.086   2.798  11.794 -0.0950  0.6126 -0.7197
 6219TIP3    H142852   5.992   2.817  11.792 -0.1450  0.6506  0.5699
 6219TIP3    H242853   6.091   2.703  11.795 -0.1325  0.6120 -0.5421
 6220TIP3   OH242854   4.450   2.948  12.910 -0.7430 -0.2048  0.5175
 6220TIP3    H142855   4.446   2.853  12.925  1.1295 -0.7618 -1.7450
 6220TIP3    H242856   4.533   2.975  12.948 -1.1225  0.4688  0.8760
 6221TIP3   OH242857   2.858   6.671  11.704  0.1583 -0.3817 -0.2195
 6221TIP3    H142858   2.871   6.659  11.610  1.4196  0.0089 -0.1084
 6221TIP3    H242859   2.900   6.595  11.745  0.9542  0.2025  0.0829
 6222TIP3   OH242860   2.193   1.355  12.835  0.0718 -0.1558  0.3794
 6222TIP3    H142861   2.208   1.362  12.741 -0.1328 -1.7444  0.2034
 6222TIP3    H242862   2.161   1.266  12.848  0.0848  0.0364  1.9558
 6223TIP3   OH242863   1.625   3.971  11.164  0.2965 -0.2729 -0.4440
 6223TIP3    H142864   1.575   3.964  11.245 -0.3356 -0.6138 -0.8563
 6223TIP3    H242865   1.682   4.047  11.178 -0.5801  0.3411 -0.0978
 6224TIP3   OH242866   5.055   0.657  11.134  0.1462 -0.6182 -0.9925
 6224TIP3    H142867   4.979   0.716  11.133  1.7417  1.5750 -0.1611
 6224TIP3    H242868   5.124   0.705  11.089  0.5541 -3.4475 -3.7481
 6225TIP3   OH242869   2.846   0.693  11.489 -0.0361  0.1050  0.7603
 6225TIP3    H142870   2.935   0.679  11.456  0.0498 -2.7397  1.9200
 6225TIP3    H242871   2.796   0.718  11.411  1.2882 -0.7035 -0.4079
 6226TIP3   OH242872   6.058   5.427  12.574 -0.3073 -0.2973  0.1235
 6226TIP3    H142873   6.053   5.432  12.478  0.5934 -0.0570  0.0788
 6226TIP3    H242874   6.086   5.337  12.592  1.5435  0.2326  0.0488
 6227TIP3   OH242875   5.764   2.702  11.423  0.1135 -0.6908  0.0983
 6227TIP3    H142876   5.810   2.702  11.507 -0.2345  1.1222  0.3404
 6227TIP3    H242877   5.704   2.776  11.429  0.3532 -0.2741 -1.8835
 6228TIP3   OH242878   6.664   4.956  12.857 -0.0656  0.6618 -0.0981
 6228TIP3    H142879   6.734   4.893  12.874 -0.1307  0.6844  0.2610
 6228TIP3    H242880   6.585   4.902  12.851  0.0910  0.5422 -1.3412
 6229TIP3   OH242881   0.413   5.721  11.173 -0.4281 -0.1419 -0.5846
 6229TIP3    H142882   0.363   5.768  11.239  0.8541 -0.1923  0.4577
 6229TIP3    H242883   0.437   5.788  11.109 -0.7653  0.1221 -0.4326
 6230TIP3   OH242884   2.479   0.101  11.027 -0.4761 -0.1260  0.4216
 6230TIP3    H142885   2.409   0.062  11.079  0.0784  0.4349  1.6160
 6230TIP3    H242886   2.560   0.071  11.069  0.0080 -0.3186 -0.6095
 6231TIP3   OH242887   3.163   4.484  11.015  0.3825  0.6235 -0.2439
 6231TIP3    H142888   3.083   4.530  11.039 -0.2257 -1.0833  1.2296
 6231TIP3    H242889   3.137   4.393  11.007  1.6741  0.3777 -2.4583
 6232TIP3   OH242890   1.644   3.530  11.477 -0.1267 -0.1760  0.2514
 6232TIP3    H142891   1.703   3.455  11.480 -0.8944 -0.8469 -0.7815
 6232TIP3    H242892   1.564   3.500  11.522  0.5582  1.0050  2.4090
 6233TIP3   OH242893   4.135   2.038  12.139 -0.2956  0.3369  1.0148
 6233TIP3    H142894   4.133   1.945  12.118  0.8460  0.3843  0.6303
 6233TIP3    H242895   4.226   2.057  12.160 -0.3792  1.4987  0.4541
 6234TIP3   OH242896   1.351   3.696  12.112 -0.0874 -0.1310  0.2899
 6234TIP3    H142897   1.305   3.617  12.137  0.9758 -0.5277  1.0681
 6234TIP3    H242898   1.306   3.766  12.159  0.6432 -0.6272  1.8176
 6235TIP3   OH242899   3.992   0.907  12.690 -0.1062 -0.0265 -0.1211
 6235TIP3    H142900   4.083   0.919  12.664  0.1450  0.8601  1.0694
 6235TIP3    H242901   3.991   0.824  12.738  0.5656  0.9570  1.7351
 6236TIP3   OH242902   3.997   7.507  11.980 -0.3969  0.0547  0.6305
 6236TIP3    H142903   4.009   7.560  11.901  0.7455  0.6623  1.1862
 6236TIP3    H242904   3.907   7.475  11.973 -0.5255  0.5939 -0.6111
 6237TIP3   OH242905   4.586   2.859  11.593  0.4279  0.1961 -0.0531
 6237TIP3    H142906   4.658   2.889  11.538  3.4629 -1.3815  2.7572
 6237TIP3    H242907   4.581   2.922  11.664 -0.1671 -0.3774  0.4276
 6238TIP3   OH242908   4.275   5.722  12.906  0.1058 -0.1434  0.4333
 6238TIP3    H142909   4.219   5.791  12.870  0.2338  0.5654  1.5471
 6238TIP3    H242910   4.345   5.769  12.952  0.8260 -1.0231  0.2721
 6239TIP3   OH242911   7.532   4.131  13.542 -0.7128  0.0887 -0.1184
 6239TIP3    H142912   7.561   4.092  13.625 -0.4847 -0.0323 -0.2515
 6239TIP3    H242913   7.503   4.056  13.489 -0.6636  0.1409 -0.2203
 6240TIP3   OH242914   3.715   4.478  12.819  0.8788 -0.2089  0.0547
 6240TIP3    H142915   3.796   4.522  12.843  0.1308  0.3287  1.7285
 6240TIP3    H242916   3.653   4.549  12.803  0.6338 -0.6222 -0.9068
 6241TIP3   OH242917   0.733   5.385  11.908  0.2296  0.2233  0.2290
 6241TIP3    H142918   0.754   5.304  11.954 -0.6646  0.4257  1.0332
 6241TIP3    H242919   0.799   5.448  11.937  1.2041 -0.3081 -0.7438
 6242TIP3   OH242920   3.899   1.776  11.791 -0.3133  0.3562 -0.3146
 6242TIP3    H142921   3.841   1.763  11.866 -0.4010 -1.4927 -0.6739
 6242TIP3    H242922   3.880   1.703  11.732 -0.0200  1.5886 -2.0129
 6243TIP3   OH242923   1.423   4.275  12.948 -0.5035  0.0779  0.3288
 6243TIP3    H142924   1.416   4.336  12.875 -0.1265  0.6585  0.7642
 6243TIP3    H242925   1.332   4.258  12.974 -0.6382  2.6900  1.9898
 6244TIP3   OH242926   2.915   5.305  12.933  0.4964  0.5171 -0.0255
 6244TIP3    H142927   2.908   5.312  13.029  0.4060  0.8443 -0.0533
 6244TIP3    H242928   3.008   5.287  12.917  0.3737 -0.3284  0.1628
 6245TIP3   OH242929   2.486   5.084  12.943 -0.4803  0.3608 -0.3633
 6245TIP3    H142930   2.449   5.107  13.028  1.0849 -1.2207  0.8186
 6245TIP3    H242931   2.421   5.114  12.880 -0.9868  2.9820  1.2638
 6246TIP3   OH242932   5.030   5.353  10.987  0.0895  0.1753 -0.3106
 6246TIP3    H142933   5.066   5.440  10.966  0.9732 -0.1860 -0.3203
 6246TIP3    H242934   4.966   5.370  11.055  3.0977  0.4500  2.7194
 6247TIP3   OH242935   6.849   5.336  12.328  0.0590  0.1922 -0.6304
 6247TIP3    H142936   6.801   5.409  12.290  1.0350  0.1431 -2.0329
 6247TIP3    H242937   6.926   5.376  12.368 -1.6343  0.4278  2.7310
 6248TIP3   OH242938   5.176   5.114  11.352 -0.0289 -0.4594  0.8561
 6248TIP3    H142939   5.213   5.186  11.300  0.0186 -1.5198 -0.6608
 6248TIP3    H242940   5.083   5.135  11.359 -0.2621 -0.8460 -0.6976
 6249TIP3   OH242941   1.843   6.202  12.319 -0.1178  0.0691  0.6490
 6249TIP3    H142942   1.906   6.149  12.271 -0.1394  0.4019  0.2439
 6249TIP3    H242943   1.867   6.292  12.299 -0.3276  0.2065  1.0067
 6250TIP3   OH242944   5.411   3.928  12.718 -1.1065 -0.1713  0.2155
 6250TIP3    H142945   5.362   3.880  12.651 -0.1941 -0.1352 -0.5099
 6250TIP3    H242946   5.438   4.009  12.674 -1.8671  0.6031  1.1433
 6251TIP3   OH242947   2.519   5.983  12.814 -0.3049  0.2873  0.1723
 6251TIP3    H142948   2.505   6.049  12.881  0.2750 -1.0126  1.6394
 6251TIP3    H242949   2.609   5.954  12.827 -0.3022 -0.2409 -0.9343
 6252TIP3   OH242950   0.194   7.486  11.320 -0.3235  0.4577  0.2837
 6252TIP3    H142951   0.161   7.427  11.388 -0.0736  1.8534  1.6659
 6252TIP3    H242952   0.123   7.491  11.257  0.2286 -2.5375 -0.7486
 6253TIP3   OH242953   2.721   1.694  13.215 -0.0430  0.4688 -0.3107
 6253TIP3    H142954   2.797   1.749  13.193 -1.7719  2.8264 -0.6789
 6253TIP3    H242955   2.691   1.662  13.130  0.1935 -0.0229 -0.2132
 6254TIP3   OH242956   6.032   2.549  11.565 -0.1849 -0.0989  0.2226
 6254TIP3    H142957   6.109   2.541  11.621  0.7327  0.5650 -0.9165
 6254TIP3    H242958   5.958   2.552  11.627  0.7539  0.1052  1.3673
 6255TIP3   OH242959   4.840   6.415  11.598 -0.3617 -0.4462 -0.0428
 6255TIP3    H142960   4.823   6.486  11.661 -0.8176 -0.6371  0.0598
 6255TIP3    H242961   4.841   6.336  11.652 -0.0548 -0.5380 -0.1851
 6256TIP3   OH242962   1.272   0.576  13.014 -0.1708 -0.4916 -0.6108
 6256TIP3    H142963   1.297   0.513  13.081 -1.8040  0.7177  1.2286
 6256TIP3    H242964   1.287   0.530  12.931  1.9482 -2.0145  0.5190
 6257TIP3   OH242965   4.693   6.580  12.906 -0.4461 -0.1823  0.3196
 6257TIP3    H142966   4.676   6.514  12.839 -1.2047 -0.0604  0.3851
 6257TIP3    H242967   4.753   6.537  12.967  0.8919 -0.0232 -0.8449
 6258TIP3   OH242968   1.320   2.601  11.694 -0.3875  0.6534 -0.5070
 6258TIP3    H142969   1.371   2.603  11.775  0.3469 -0.5191 -0.9190
 6258TIP3    H242970   1.233   2.572  11.722  0.1947 -0.9603 -0.2731
 6259TIP3   OH242971   6.840   0.099  11.593 -0.1100 -0.0003  0.4036
 6259TIP3    H142972   6.838   0.194  11.585  0.7679  0.0496  0.7080
 6259TIP3    H242973   6.919   0.072  11.546 -1.4064 -0.7771 -1.4695
 6260TIP3   OH242974   0.096   3.712  10.878 -0.3398  0.5419 -0.1295
 6260TIP3    H142975   0.039   3.648  10.836 -0.6996  1.0273 -0.3758
 6260TIP3    H242976   0.181   3.667  10.885 -0.6420 -0.0367 -0.1096
 6261TIP3   OH242977   6.486   4.275  12.786  0.2556 -0.3428 -0.4166
 6261TIP3    H142978   6.433   4.206  12.826 -1.7249  0.8582 -0.8570
 6261TIP3    H242979   6.553   4.295  12.852 -1.0063 -0.5802  0.9795
 6262TIP3   OH242980   7.007   3.976  10.459 -0.3617  0.1297 -0.2563
 6262TIP3    H142981   7.059   3.903  10.426  0.0474 -0.5150  1.6920
 6262TIP3    H242982   6.917   3.945  10.456 -0.2954 -0.0464 -0.4267
 6263TIP3   OH242983   3.007   4.082  11.750 -0.1462 -0.5434 -0.1265
 6263TIP3    H142984   3.083   4.111  11.700 -1.0209  0.0166 -1.1658
 6263TIP3    H242985   3.040   4.070  11.840  1.2732 -0.8274 -0.6591
 6264TIP3   OH242986   7.210   3.168  11.886 -0.3533  0.8285 -0.1662
 6264TIP3    H142987   7.284   3.223  11.859  1.7219 -1.4554  0.5013
 6264TIP3    H242988   7.230   3.144  11.977 -2.8235  1.4773  0.6243
 6265TIP3   OH242989   5.051   2.658  12.377 -0.2910  0.3932 -0.8528
 6265TIP3    H142990   5.032   2.565  12.369  0.0625  0.1586  0.7498
 6265TIP3    H242991   5.017   2.683  12.462 -1.1410  1.9486 -1.5997
 6266TIP3   OH242992   6.333   2.584  10.943 -0.2082 -0.0636  0.1604
 6266TIP3    H142993   6.270   2.524  10.904 -0.6332 -0.6233  1.6444
 6266TIP3    H242994   6.284   2.665  10.956  0.1923  0.4277 -1.2734
 6267TIP3   OH242995   1.347   5.439  10.944 -0.1120  0.6104 -0.1179
 6267TIP3    H142996   1.347   5.436  11.040 -0.9562 -0.5348 -0.1329
 6267TIP3    H242997   1.259   5.412  10.919 -0.1007  1.5165 -1.2175
 6268TIP3   OH242998   5.432   2.620  12.857  0.4404 -0.0199  0.2408
 6268TIP3    H142999   5.455   2.527  12.852 -0.7847 -0.3258 -0.0874
 6268TIP3    H243000   5.514   2.666  12.840  0.7675 -1.0515 -1.1891
 6269TIP3   OH243001   4.902   7.034  10.899  0.3055 -0.3291 -0.2310
 6269TIP3    H143002   4.962   7.047  10.826  1.4855  0.1198  0.7705
 6269TIP3    H243003   4.954   6.985  10.963 -0.6984 -0.7136  0.3029
 6270TIP3   OH243004   7.466   5.010  10.889  0.4670 -0.2787 -0.1825
 6270TIP3    H143005   7.451   4.938  10.951  0.4416  0.7262  1.0125
 6270TIP3    H243006   7.404   5.078  10.916  2.3787  1.2695  0.4857
 6271TIP3   OH243007   0.958   6.699  11.793 -0.4431  0.4676 -0.6621
 6271TIP3    H143008   0.988   6.788  11.775 -1.0104  0.8574  0.2558
 6271TIP3    H243009   1.011   6.671  11.868 -1.8551  0.9107  0.5361
 6272TIP3   OH243010   6.268   5.090  11.350 -0.1740 -0.5405 -0.2335
 6272TIP3    H143011   6.344   5.083  11.293 -0.8404  1.5331 -1.4666
 6272TIP3    H243012   6.193   5.073  11.292 -0.7773 -0.2199  0.4334
 6273TIP3   OH243013   2.378   5.106  10.946 -0.0083 -0.9802 -0.5738
 6273TIP3    H143014   2.442   5.129  10.878 -1.9441  0.0094 -2.1431
 6273TIP3    H243015   2.299   5.155  10.923 -0.6854 -0.3769  2.5879
 6274TIP3   OH243016   1.733   6.779  11.988 -0.0121 -0.1550 -0.1141
 6274TIP3    H143017   1.797   6.758  12.056  1.0977  1.0720 -0.7215
 6274TIP3    H243018   1.763   6.729  11.911  0.8628  1.2059 -0.6945
 6275TIP3   OH243019   3.988   3.842  11.839  0.0986 -0.4309 -0.1859
 6275TIP3    H143020   4.051   3.866  11.770  0.5067  0.1261  0.3664
 6275TIP3    H243021   3.943   3.924  11.859  0.6141 -0.3883  0.8406
 6276TIP3   OH243022   4.109   4.473  12.802 -0.3414  0.3963  0.8750
 6276TIP3    H143023   4.201   4.461  12.776 -0.5457  0.4274  0.1173
 6276TIP3    H243024   4.072   4.385  12.800 -0.6220  0.5242  0.0148
 6277TIP3   OH243025   1.754   5.649  11.463 -0.1333 -0.0457 -0.3538
 6277TIP3    H143026   1.668   5.612  11.445 -0.3916  0.8905 -1.1145
 6277TIP3    H243027   1.800   5.580  11.510 -2.4194  0.6008  3.2001
 6278TIP3   OH243028   5.881   0.966  11.654  0.5597  0.0018  0.1803
 6278TIP3    H143029   5.939   0.893  11.632  1.2593  0.2161  1.2102
 6278TIP3    H243030   5.881   1.021  11.575  0.3176 -0.9178 -0.4698
 6279TIP3   OH243031   0.542   0.950  11.957 -0.0433 -0.1158 -0.4891
 6279TIP3    H143032   0.625   0.931  11.913  0.6818  3.8441 -1.1928
 6279TIP3    H243033   0.560   0.934  12.050  1.5192  0.5841 -0.6460
 6280TIP3   OH243034   6.239   3.605  11.445  0.3977 -0.0305 -0.2181
 6280TIP3    H143035   6.166   3.568  11.396 -0.1059 -0.1807  0.6194
 6280TIP3    H243036   6.201   3.679  11.492  1.1423  0.8791 -0.9900
 6281TIP3   OH243037   2.573   0.760  12.265 -0.4659 -0.2380 -0.6302
 6281TIP3    H143038   2.525   0.782  12.346 -0.8504 -0.5086 -0.7816
 6281TIP3    H243039   2.660   0.796  12.279 -0.2029 -1.1977  0.3462
 6282TIP3   OH243040   3.562   1.198  11.155  0.1356 -0.3243 -0.6916
 6282TIP3    H143041   3.549   1.143  11.232 -1.3815 -1.3072 -1.6001
 6282TIP3    H243042   3.539   1.286  11.185 -0.2488 -0.6587  0.0314
 6283TIP3   OH243043   6.929   4.391  13.047 -0.3066 -0.0761  0.0580
 6283TIP3    H143044   6.988   4.448  12.998 -0.5814  0.2583  0.1139
 6283TIP3    H243045   6.971   4.381  13.133 -0.4059  0.2796  0.1471
 6284TIP3   OH243046   5.361   3.004  11.365  0.4760  0.2335 -0.4793
 6284TIP3    H143047   5.309   3.080  11.389  1.8298  1.1246 -0.2758
 6284TIP3    H243048   5.312   2.964  11.292 -0.6784  0.7876 -0.0336
 6285TIP3   OH243049   4.070   4.723  13.116 -0.2817 -0.1130  0.2816
 6285TIP3    H143050   4.164   4.739  13.120 -0.6247  2.6445 -0.4221
 6285TIP3    H243051   4.044   4.707  13.206  0.1608  4.5082  1.4433
 6286TIP3   OH243052   4.026   7.426  12.898  0.1766  0.6154 -0.1032
 6286TIP3    H143053   4.015   7.333  12.878  1.7253  0.3595  0.0442
 6286TIP3    H243054   3.965   7.471  12.840 -1.1112 -0.5212  0.3304
 6287TIP3   OH243055   0.526   1.664  13.498  0.0354  0.3017 -0.9806
 6287TIP3    H143056   0.433   1.641  13.495 -0.1583  1.1352 -2.1883
 6287TIP3    H243057   0.534   1.718  13.576 -0.2724 -0.6322 -0.2854
 6288TIP3   OH243058   0.966   3.442  12.903 -0.2924  0.6937 -0.2703
 6288TIP3    H143059   0.970   3.418  12.810 -1.6928  0.6388 -0.3474
 6288TIP3    H243060   0.925   3.367  12.945 -0.7165  1.1784  0.2022
 6289TIP3   OH243061   5.523   4.933  13.096 -0.3099 -0.0832 -0.2101
 6289TIP3    H143062   5.575   4.963  13.171 -1.7281  0.3835  0.6275
 6289TIP3    H243063   5.556   4.983  13.022  0.2357  0.4088  0.3555
 6290TIP3   OH243064   5.513   1.493  12.685 -0.1391 -0.2055  0.0492
 6290TIP3    H143065   5.599   1.461  12.657  0.4561  1.0062  0.4256
 6290TIP3    H243066   5.508   1.582  12.648 -0.8912  0.0322  0.7080
 6291TIP3   OH243067   7.487   1.103  11.601  0.1611 -0.2717  0.4941
 6291TIP3    H143068   7.419   1.092  11.535  0.2365  0.8184  0.2121
 6291TIP3    H243069   7.496   1.017  11.641 -1.3509 -0.4591  0.5051
 6292TIP3   OH243070   0.639   3.793  13.130 -0.1807 -0.9823 -0.6696
 6292TIP3    H143071   0.602   3.882  13.124 -0.1946 -1.0274 -1.3175
 6292TIP3    H243072   0.563   3.735  13.124 -0.0508 -1.0690 -1.7482
 6293TIP3   OH243073   7.303   5.654  11.272 -0.3917  1.0460 -0.3055
 6293TIP3    H143074   7.342   5.584  11.219  1.8896  2.3933 -0.5455
 6293TIP3    H243075   7.221   5.675  11.228 -0.6528 -0.7847 -0.7813
 6294TIP3   OH243076   2.763   3.368  11.205  0.4097 -1.2346  1.0274
 6294TIP3    H143077   2.718   3.288  11.176  0.5778 -1.8855  2.4919
 6294TIP3    H243078   2.853   3.339  11.222  0.9837 -0.3031 -0.2434
 6295TIP3   OH243079   0.196   3.442  10.702 -0.0074  0.5791  0.5724
 6295TIP3    H143080   0.159   3.507  10.643  0.4309  1.6199  1.4057
 6295TIP3    H243081   0.260   3.491  10.754 -0.5033 -0.2482  2.0219
 6296TIP3   OH243082   2.544   0.550  13.071  0.2269  0.3195  0.0648
 6296TIP3    H143083   2.521   0.642  13.083  2.0470  0.5799  2.3575
 6296TIP3    H243084   2.477   0.515  13.012 -0.3766  3.1338 -1.0597
 6297TIP3   OH243085   4.420   6.006  11.413  0.5414  0.5071  0.3783
 6297TIP3    H143086   4.435   6.059  11.491  1.5548  0.2416  0.3771
 6297TIP3    H243087   4.502   5.957  11.401  0.3185  0.3791 -0.7143
 6298TIP3   OH243088   0.881   5.463  12.753 -0.1888 -0.2948 -0.1895
 6298TIP3    H143089   0.896   5.525  12.824  1.0216 -0.5141 -0.2435
 6298TIP3    H243090   0.934   5.495  12.681 -0.1647 -0.9666 -0.4758
 6299TIP3   OH243091   2.436   4.086  12.663 -0.4556 -0.2236 -0.1589
 6299TIP3    H143092   2.515   4.103  12.714 -0.2010 -1.0900 -0.2489
 6299TIP3    H243093   2.409   3.998  12.689 -0.5093 -0.5553 -1.2552
 6300TIP3   OH243094   0.504   3.576  11.556  0.1778  0.2804  0.2049
 6300TIP3    H143095   0.469   3.665  11.561  2.1665  1.0880  0.8512
 6300TIP3    H243096   0.591   3.586  11.519  0.5226 -1.3853  0.4732
 6301TIP3   OH243097   2.830   0.760  10.785 -0.8485  0.4068 -0.1251
 6301TIP3    H143098   2.807   0.674  10.820  0.8060 -0.6544 -1.4643
 6301TIP3    H243099   2.914   0.746  10.741  0.2931  3.0831  1.0162
 6302TIP3   OH243100   0.631   4.895  11.724  0.1307  0.1233 -0.2072
 6302TIP3    H143101   0.604   4.842  11.798 -2.8493 -1.1288 -1.9996
 6302TIP3    H243102   0.658   4.832  11.657 -1.8405  0.8514 -1.7991
 6303TIP3   OH243103   5.024   3.938  12.170  0.4557  0.1180  0.0384
 6303TIP3    H143104   4.939   3.923  12.212  0.2829  1.1051  0.0690
 6303TIP3    H243105   5.083   3.961  12.242  0.9901 -1.4466  0.1331
 6304TIP3   OH243106   4.795   4.275  13.216 -0.2080  0.3898  0.0772
 6304TIP3    H143107   4.727   4.208  13.224  0.7662 -0.7299 -0.6327
 6304TIP3    H243108   4.747   4.356  13.200 -1.3893 -0.3004 -0.0154
 6305TIP3   OH243109   1.446   3.606  10.677 -0.2128  0.2591  0.4387
 6305TIP3    H143110   1.447   3.528  10.733 -1.0316  0.1401  0.2969
 6305TIP3    H243111   1.403   3.578  10.597  3.5915 -0.4195 -1.5714
 6306TIP3   OH243112   2.164   2.392  12.530 -0.9497  0.1541 -0.1540
 6306TIP3    H143113   2.089   2.335  12.548  0.9178 -3.0949 -1.7885
 6306TIP3    H243114   2.149   2.425  12.442  0.0098 -1.4855 -0.9746
 6307TIP3   OH243115   6.902   4.025  12.989 -0.0459 -0.5342  0.8325
 6307TIP3    H143116   6.807   4.022  13.000 -0.0040 -2.1714  0.9653
 6307TIP3    H243117   6.915   4.024  12.894 -0.1975  5.0750  0.4170
 6308TIP3   OH243118   0.279   2.424  11.419  0.3031  0.1411  0.3903
 6308TIP3    H143119   0.219   2.405  11.491 -2.1709  1.5648 -1.1458
 6308TIP3    H243120   0.316   2.339  11.396  1.3904 -0.3383  3.4113
 6309TIP3   OH243121   5.816   1.097  12.498 -0.1776 -0.4106  0.5046
 6309TIP3    H143122   5.734   1.052  12.520 -0.6473 -0.4474 -1.1929
 6309TIP3    H243123   5.885   1.036  12.522 -0.6714 -0.6587  1.3150
 6310TIP3   OH243124   5.620   3.346  12.673 -0.9401  0.4612 -0.0781
 6310TIP3    H143125   5.595   3.428  12.630 -2.5420 -1.2015 -2.5755
 6310TIP3    H243126   5.688   3.309  12.617  1.4372  1.0332  2.2484
 6311TIP3   OH243127   5.399   7.475  11.215 -0.3224  0.8160  0.0971
 6311TIP3    H143128   5.384   7.491  11.308 -0.4876 -0.9218  0.3959
 6311TIP3    H243129   5.459   7.401  11.213 -1.1995  0.1018 -1.1871
 6312TIP3   OH243130   1.273   5.278  13.527 -0.1393  0.5884 -0.1234
 6312TIP3    H143131   1.231   5.238  13.603 -2.2318  0.4749 -1.2835
 6312TIP3    H243132   1.238   5.230  13.452  1.0504  1.4069 -1.2436
 6313TIP3   OH243133   0.443   2.982  11.842  0.2855 -0.1443 -0.2955
 6313TIP3    H143134   0.471   3.050  11.781 -1.6695 -1.5401 -2.9432
 6313TIP3    H243135   0.497   2.906  11.819  0.9857 -0.1343  1.2036
 6314TIP3   OH243136   2.550   0.289  11.569  0.3457  0.0132 -0.3244
 6314TIP3    H143137   2.462   0.322  11.549  0.2841  0.1513  0.1651
 6314TIP3    H243138   2.598   0.366  11.600  0.0852 -0.4135  1.2142
 6315TIP3   OH243139   2.733   6.170  11.602 -0.0704  0.1565 -0.2724
 6315TIP3    H143140   2.725   6.133  11.690 -1.1269 -0.5243 -0.6328
 6315TIP3    H243141   2.679   6.113  11.547 -1.9198  2.3016 -0.8517
 6316TIP3   OH243142   6.302   0.753  11.600  0.4148 -0.1477 -0.0806
 6316TIP3    H143143   6.362   0.827  11.591  1.8520 -1.1123  1.2097
 6316TIP3    H243144   6.289   0.743  11.694 -2.4166  0.4803 -0.2952
 6317TIP3   OH243145   3.698   0.435  12.264 -0.3656 -0.4042 -0.0126
 6317TIP3    H143146   3.758   0.495  12.222  0.1317 -1.6736 -1.1974
 6317TIP3    H243147   3.632   0.416  12.197  0.8322 -3.0164 -0.5919
 6318TIP3   OH243148   5.787   6.942  12.305 -0.1123  0.1706  0.5401
 6318TIP3    H143149   5.765   6.883  12.377 -0.0308 -0.5744 -0.0332
 6318TIP3    H243150   5.728   7.016  12.316 -0.0022  0.1389  1.4523
 6319TIP3   OH243151   6.807   2.738  12.285 -0.6310 -0.0071  0.7382
 6319TIP3    H143152   6.832   2.650  12.255 -1.9031 -0.3613  0.6390
 6319TIP3    H243153   6.806   2.791  12.205  0.1411  0.1107  0.7979
 6320TIP3   OH243154   6.533   5.606  11.895 -0.2880 -0.2509  0.1708
 6320TIP3    H143155   6.495   5.558  11.969 -1.3459 -0.1299 -0.2916
 6320TIP3    H243156   6.523   5.698  11.919  1.6312 -0.1932  0.9996
 6321TIP3   OH243157   3.713   5.241  13.144 -0.0207  0.1899  0.4078
 6321TIP3    H143158   3.647   5.274  13.084  1.4007 -0.3495 -1.5584
 6321TIP3    H243159   3.682   5.267  13.231 -2.1242  1.0544 -0.5372
 6322TIP3   OH243160   2.748   6.769  12.358 -0.3507 -0.3620  0.3820
 6322TIP3    H143161   2.834   6.774  12.314 -0.3213  1.0519  0.5317
 6322TIP3    H243162   2.759   6.822  12.437 -2.1901  2.6523 -1.1594
 6323TIP3   OH243163   4.788   6.002  13.339  0.4519  0.1216  0.0464
 6323TIP3    H143164   4.859   5.939  13.353 -1.0506 -1.5056  0.7925
 6323TIP3    H243165   4.723   5.953  13.288 -0.5746  1.2148  0.2627
 6324TIP3   OH243166   2.362   6.980  11.050 -0.2151  0.2493  0.2961
 6324TIP3    H143167   2.336   7.017  11.134 -0.7976 -0.3752  0.4082
 6324TIP3    H243168   2.457   6.991  11.046 -0.2271  0.5717  0.8902
 6325TIP3   OH243169   3.443   1.101  12.041 -0.0607 -0.4340 -0.9573
 6325TIP3    H143170   3.536   1.119  12.055  0.7325 -3.8391 -1.0642
 6325TIP3    H243171   3.410   1.180  11.997  3.0627  0.3605 -2.1690
 6326TIP3   OH243172   0.319   2.508  12.690  0.1806 -0.3366  0.0287
 6326TIP3    H143173   0.411   2.528  12.674  0.0445 -1.2187 -2.2551
 6326TIP3    H243174   0.296   2.444  12.622 -2.5236  1.0836 -0.5514
 6327TIP3   OH243175   5.075   3.763  11.948  0.0022  0.2547 -0.0069
 6327TIP3    H143176   4.982   3.749  11.930 -0.0622  2.5028 -1.9079
 6327TIP3    H243177   5.077   3.818  12.027 -0.3101  0.5795 -0.2244
 6328TIP3   OH243178   0.052   2.280  11.138  0.2218 -0.6428 -0.4508
 6328TIP3    H143179   0.118   2.334  11.094 -0.4801 -0.5822 -1.4370
 6328TIP3    H243180   0.057   2.308  11.230  1.3968 -0.4654 -0.5499
 6329TIP3   OH243181   3.329   5.567  13.049  0.4800 -0.3121  0.3299
 6329TIP3    H143182   3.373   5.640  13.092 -0.4616 -0.6917  2.0261
 6329TIP3    H243183   3.277   5.607  12.980 -0.2298  0.6748  1.4108
 6330TIP3   OH243184   0.523   1.271  12.441 -0.4164 -0.2209 -0.2658
 6330TIP3    H143185   0.481   1.337  12.497  0.3498 -1.2965  1.7011
 6330TIP3    H243186   0.612   1.305  12.430 -0.7569  0.3233 -1.4553
 6331TIP3   OH243187   5.894   5.122  12.514 -0.0407  0.6386  0.5842
 6331TIP3    H143188   5.834   5.185  12.556  0.0091  1.6802 -0.8648
 6331TIP3    H243189   5.957   5.100  12.583 -1.6370  0.0501  1.9437
 6332TIP3   OH243190   1.839   5.714  11.755 -0.5094  0.6131 -0.3537
 6332TIP3    H143191   1.743   5.715  11.745 -0.6177 -1.7371  0.0758
 6332TIP3    H243192   1.867   5.631  11.716  1.1631  0.4528  1.0808
 6333TIP3   OH243193   2.498   2.000  11.757  0.0819 -0.2233  0.5660
 6333TIP3    H143194   2.460   2.023  11.672 -2.2755  0.0796  1.6113
 6333TIP3    H243195   2.496   2.081  11.807  2.2418 -0.1969  0.6917
 6334TIP3   OH243196   5.374   5.020  12.093 -0.1975  0.0583 -0.0165
 6334TIP3    H143197   5.450   5.021  12.151 -0.7833  0.4322  0.7685
 6334TIP3    H243198   5.377   4.934  12.051  1.5466  0.6816 -1.2271
 6335TIP3   OH243199   5.448   2.133  11.481  0.1700  0.1607 -0.3364
 6335TIP3    H143200   5.395   2.205  11.517  1.8853  1.3368 -0.0160
 6335TIP3    H243201   5.389   2.087  11.421 -1.4085  0.9502  0.5360
 6336TIP3   OH243202   2.412   4.872  12.478 -0.2190 -0.1072 -0.0970
 6336TIP3    H143203   2.446   4.785  12.500 -0.0681  0.0813  0.4305
 6336TIP3    H243204   2.369   4.860  12.393  3.1024  0.1445 -1.9834
 6337TIP3   OH243205   0.795   5.488  13.975 -0.0851 -0.3558 -0.1820
 6337TIP3    H143206   0.828   5.527  13.894 -0.6447 -0.4614 -0.4617
 6337TIP3    H243207   0.706   5.460  13.954  0.6408 -2.8142 -0.3747
 6338TIP3   OH243208   5.397   4.543  12.925 -0.2259  0.2534  0.2962
 6338TIP3    H143209   5.470   4.570  12.981  1.0172  1.4209 -1.7846
 6338TIP3    H243210   5.319   4.557  12.979  1.0108 -0.5290  2.4003
 6339TIP3   OH243211   1.864   6.117  12.882  0.6034  0.2502  0.1286
 6339TIP3    H143212   1.833   6.028  12.867  1.9013 -0.1253 -0.4683
 6339TIP3    H243213   1.926   6.109  12.954 -0.6815  1.0115  1.3867
 6340TIP3   OH243214   6.099   4.875  12.729  0.2664 -0.2419  0.2275
 6340TIP3    H143215   6.075   4.966  12.746  1.7902  0.4790 -1.1651
 6340TIP3    H243216   6.023   4.838  12.684 -0.3453  0.3333  0.7624
 6341TIP3   OH243217   7.659   2.160  12.225  0.0151  0.1232 -0.1399
 6341TIP3    H143218   7.638   2.132  12.136  1.5653  1.3699 -0.9551
 6341TIP3    H243219   7.610   2.242  12.236  0.4432  0.3852 -0.1574
 6342TIP3   OH243220   6.603   0.491  12.172  0.1691 -0.2873  0.1219
 6342TIP3    H143221   6.523   0.541  12.190  0.2710 -0.2211  0.4065
 6342TIP3    H243222   6.572   0.409  12.135 -0.0317 -0.2576  0.2207
 6343TIP3   OH243223   6.799   0.049  13.081  0.3274 -0.4782  0.1734
 6343TIP3    H143224   6.876   0.101  13.103  0.6841 -1.0054  0.1979
 6343TIP3    H243225   6.725   0.107  13.097  0.7437  0.2193 -0.3718
 6344TIP3   OH243226   0.162   0.102  11.274  0.4981  0.3798 -0.0283
 6344TIP3    H143227   0.177   0.011  11.298  0.5987 -0.2910 -2.3765
 6344TIP3    H243228   0.211   0.153  11.338  2.6602 -1.3225 -0.2210
 6345TIP3   OH243229   6.157   0.380  11.698 -0.2287 -0.5446  1.0030
 6345TIP3    H143230   6.217   0.435  11.749  1.0706 -0.6084 -0.3940
 6345TIP3    H243231   6.082   0.437  11.681  1.1111  0.8909 -0.4705
 6346TIP3   OH243232   0.154   2.713  12.400 -0.5979  1.2344 -0.8853
 6346TIP3    H143233   0.167   2.698  12.306 -0.5147  0.5007 -0.7585
 6346TIP3    H243234   0.082   2.776  12.404 -0.2541  1.6776 -1.4532
 6347TIP3   OH243235   5.348   3.435  11.143  0.6578  0.0737 -0.3279
 6347TIP3    H143236   5.424   3.387  11.175  1.2631  2.2141  1.6857
 6347TIP3    H243237   5.379   3.525  11.132 -0.9614  0.5016 -1.9636
 6348TIP3   OH243238   4.661   4.031  12.067  0.4926  1.0121  0.6068
 6348TIP3    H143239   4.677   4.116  12.026 -0.2362 -0.0645 -2.1726
 6348TIP3    H243240   4.711   4.033  12.148  4.3289  2.4091 -1.5388
 6349TIP3   OH243241   2.330   1.632  13.463 -0.0327 -0.0029 -0.5352
 6349TIP3    H143242   2.318   1.643  13.369  0.8957 -0.8270 -0.7653
 6349TIP3    H243243   2.263   1.688  13.503 -1.1100 -0.4418 -1.6754
 6350TIP3   OH243244   2.749   1.110  11.178  0.2960  0.8033 -0.4359
 6350TIP3    H143245   2.834   1.122  11.220  0.2806  1.6876 -0.6374
 6350TIP3    H243246   2.763   1.039  11.115  1.3905  2.1780 -1.8017
 6351TIP3   OH243247   7.601   4.330  10.589 -0.4392  0.2239 -0.0094
 6351TIP3    H143248   7.675   4.367  10.636  0.9880 -1.4103 -0.8805
 6351TIP3    H243249   7.535   4.313  10.657  1.2121 -1.2228  1.3106
 6352TIP3   OH243250   0.150   3.170  13.362 -0.5142 -0.2320  0.0137
 6352TIP3    H143251   0.114   3.190  13.449 -0.7446  0.2535 -0.1891
 6352TIP3    H243252   0.234   3.128  13.380  1.1859  3.0212  0.4992
 6353TIP3   OH243253   1.288   3.801  13.149 -0.0651 -0.3421 -0.1353
 6353TIP3    H143254   1.344   3.731  13.182  0.9551  0.8747  0.7868
 6353TIP3    H243255   1.276   3.860  13.223  0.6008  1.4077 -1.3470
 6354TIP3   OH243256   7.466   5.545  10.924  0.4027 -0.2066 -0.2415
 6354TIP3    H143257   7.453   5.629  10.968 -1.0503 -0.4974 -0.0759
 6354TIP3    H243258   7.489   5.568  10.834 -0.7392  0.3885 -0.3987
 6355TIP3   OH243259   1.907   7.489  12.355 -0.1738  0.1224  0.3110
 6355TIP3    H143260   1.884   7.565  12.409  0.2674  1.3556 -1.1702
 6355TIP3    H243261   1.884   7.414  12.410 -3.1742  1.2614  0.8340
 6356TIP3   OH243262   3.107   7.674  13.590 -0.0768 -0.3091  0.1840
 6356TIP3    H143263   3.202   7.682  13.580  0.2714 -2.3065  1.2902
 6356TIP3    H243264   3.086   7.732  13.664  0.1538  0.6363 -0.4737
 6357TIP3   OH243265   0.360   2.986  11.554 -0.0383  0.0818 -0.2550
 6357TIP3    H143266   0.293   2.941  11.606  0.6937 -0.5224  0.1941
 6357TIP3    H243267   0.442   2.947  11.584  0.7111  2.3199  0.7863
 6358TIP3   OH243268   1.255   1.193  13.341 -0.9380  0.0162 -0.5615
 6358TIP3    H143269   1.193   1.224  13.407 -0.3027  1.1551 -0.4820
 6358TIP3    H243270   1.235   1.100  13.331 -0.8284 -0.2717  1.5018
 6359TIP3   OH243271   1.552   2.591  10.977 -0.0782 -0.0102 -0.1841
 6359TIP3    H143272   1.592   2.508  11.001 -0.3971 -0.3509 -0.8002
 6359TIP3    H243273   1.625   2.644  10.944  0.3442  0.4273  1.3650
 6360TIP3   OH243274   6.778   4.673  11.183 -0.3937 -0.1294  0.4366
 6360TIP3    H143275   6.731   4.744  11.226 -1.8411 -0.8266  0.0555
 6360TIP3    H243276   6.781   4.603  11.248  1.4860  0.3934  1.0018
 6361TIP3   OH243277   1.410   6.531  11.133 -0.2130 -0.2942 -0.6988
 6361TIP3    H143278   1.366   6.445  11.134  0.6307 -0.7397 -0.8890
 6361TIP3    H243279   1.491   6.516  11.084  0.4986  0.3374  0.2341
 6362TIP3   OH243280   4.178   7.082  11.594 -0.0163  0.5215 -0.4432
 6362TIP3    H143281   4.206   7.173  11.602 -0.6663  0.8499 -1.6975
 6362TIP3    H243282   4.146   7.074  11.504 -1.2151 -0.5966  0.0502
 6363TIP3   OH243283   2.699   0.113  12.182  0.3991 -0.5513 -0.4666
 6363TIP3    H143284   2.658   0.113  12.268 -0.4553 -1.0830 -0.8575
 6363TIP3    H243285   2.772   0.174  12.190  0.6809 -1.0317  0.7906
 6364TIP3   OH243286   7.270   5.174  11.041  0.1239  0.4256  0.5152
 6364TIP3    H143287   7.189   5.213  11.010 -0.7910 -1.2608  0.6595
 6364TIP3    H243288   7.243   5.092  11.082  2.0890 -1.5196 -1.7810
 6365TIP3   OH243289   6.121   2.031  12.810 -0.4258  0.5703  0.1073
 6365TIP3    H143290   6.183   2.099  12.835  1.0072 -1.3487  2.0608
 6365TIP3    H243291   6.109   2.044  12.716  1.8998  1.8386 -0.0913
 6366TIP3   OH243292   7.583   4.743  12.918  0.4239 -0.1687  0.0745
 6366TIP3    H143293   7.576   4.728  12.824  0.2234 -0.5842  0.1561
 6366TIP3    H243294   7.496   4.774  12.944  0.9573  1.6840 -0.1791
 6367TIP3   OH243295   1.104   6.147  13.065  0.5878 -0.0309  0.2225
 6367TIP3    H143296   1.175   6.185  13.117 -0.2246  0.3916  1.0616
 6367TIP3    H243297   1.070   6.220  13.013 -0.8831  0.4322  1.7309
 6368TIP3   OH243298   0.451   3.414  11.328  0.5778 -0.5260  0.1441
 6368TIP3    H143299   0.442   3.445  11.418 -0.6446 -0.4073  0.0042
 6368TIP3    H243300   0.496   3.485  11.282  0.5499 -0.2708  0.5051
 6369TIP3   OH243301   0.005   4.295  13.376  0.3879  0.3365  0.1613
 6369TIP3    H143302  -0.066   4.269  13.433 -0.0712  1.0278 -0.0761
 6369TIP3    H243303   0.053   4.214  13.357 -2.5550 -0.9422 -2.7711
 6370TIP3   OH243304   2.454   6.247  12.642 -0.9013  0.2460 -0.5628
 6370TIP3    H143305   2.492   6.220  12.559 -0.9897 -1.7973  0.0230
 6370TIP3    H243306   2.360   6.227  12.633 -0.4775 -3.2199  1.1266
 6371TIP3   OH243307   4.277   6.338  12.293 -0.0140 -0.3039 -0.3798
 6371TIP3    H143308   4.269   6.295  12.378 -1.5170 -0.7355 -0.6993
 6371TIP3    H243309   4.360   6.308  12.257 -0.1491 -1.4451  0.2255
 6372TIP3   OH243310   4.270   4.526  10.842  0.3239  0.2858 -0.3034
 6372TIP3    H143311   4.312   4.611  10.860  0.6975  0.0381  0.0045
 6372TIP3    H243312   4.321   4.463  10.892  0.6669 -0.2635 -1.3182
 6373TIP3   OH243313   6.509   7.578  12.695 -0.0377 -0.2968 -0.0459
 6373TIP3    H143314   6.573   7.636  12.736 -0.5394  1.4999 -1.6653
 6373TIP3    H243315   6.429   7.591  12.746  0.2260 -0.7059  0.4872
 6374TIP3   OH243316   7.540   0.221  12.157 -0.2651  0.4761  0.1971
 6374TIP3    H143317   7.459   0.183  12.121 -1.3149  1.7643  1.0906
 6374TIP3    H243318   7.585   0.147  12.197 -0.6445 -0.4010 -0.9377
 6375TIP3   OH243319   5.753   1.518  11.854 -0.0328 -0.0904 -0.3655
 6375TIP3    H143320   5.747   1.535  11.948 -0.8701  0.6058 -0.5337
 6375TIP3    H243321   5.839   1.477  11.842 -0.0459 -0.4615  0.7390
 6376TIP3   OH243322   4.575   1.665  12.641  0.1796 -0.1519 -0.0097
 6376TIP3    H143323   4.511   1.594  12.647  0.0861 -0.0958 -0.3213
 6376TIP3    H243324   4.566   1.698  12.551  1.5175 -0.9755 -0.4817
 6377TIP3   OH243325   0.453   0.218  12.049  0.2372 -0.0542  0.0305
 6377TIP3    H143326   0.520   0.251  12.109  2.2175 -0.2640 -1.9179
 6377TIP3    H243327   0.467   0.123  12.047 -1.9263 -0.4772  1.5746
 6378TIP3   OH243328   6.053   1.758  11.797  0.5910 -0.1544  0.8007
 6378TIP3    H143329   5.971   1.797  11.765 -0.0089 -0.6968  1.6313
 6378TIP3    H243330   6.122   1.808  11.754 -0.1722 -0.6204 -1.0372
 6379TIP3   OH243331   5.091   4.367  12.920 -0.5653 -0.4052  0.5302
 6379TIP3    H143332   5.133   4.395  12.838 -2.5477 -0.3133 -0.5272
 6379TIP3    H243333   5.115   4.435  12.983  2.0557 -1.1383  0.4379
 6380TIP3   OH243334   6.742   3.253  10.696 -0.9475 -0.0584 -0.5872
 6380TIP3    H143335   6.747   3.175  10.751 -0.0282 -0.5980 -1.3953
 6380TIP3    H243336   6.814   3.309  10.726 -1.7933  0.6245  0.1931
 6381TIP3   OH243337   3.411   2.431  12.540  0.1027 -0.5507 -0.0497
 6381TIP3    H143338   3.342   2.425  12.474  0.9189  0.8555 -1.1032
 6381TIP3    H243339   3.444   2.342  12.548 -0.1486 -0.7905 -1.4324
 6382TIP3   OH243340   2.549   6.472  12.460 -0.4659  0.3635  0.2580
 6382TIP3    H143341   2.516   6.449  12.547 -1.3083 -0.1414 -0.1769
 6382TIP3    H243342   2.638   6.501  12.475 -0.4688 -0.0920  1.2518
 6383TIP3   OH243343   3.464   3.874  10.835 -0.3029 -0.1033 -0.0021
 6383TIP3    H143344   3.492   3.929  10.908  0.2604 -0.1956 -0.1375
 6383TIP3    H243345   3.434   3.935  10.768  0.8310  0.0906 -0.3673
 6384TIP3   OH243346   5.206   1.641  13.645 -0.2702 -0.0235 -0.4097
 6384TIP3    H143347   5.300   1.626  13.632 -0.1044 -1.0910  1.6035
 6384TIP3    H243348   5.190   1.726  13.604  1.2947 -0.3715 -1.8787
 6385TIP3   OH243349   6.269   1.901  13.548  0.0550 -0.1390  0.8276
 6385TIP3    H143350   6.195   1.952  13.579 -0.2197  0.6496 -1.0269
 6385TIP3    H243351   6.231   1.832  13.494  0.6788  1.5100 -1.8818
 6386TIP3   OH243352   4.476   3.900  13.696 -0.0060 -0.4288 -0.4093
 6386TIP3    H143353   4.417   3.856  13.634  1.3702 -0.0071 -2.0897
 6386TIP3    H243354   4.563   3.886  13.660  0.7900  0.4751  1.0694
 6387TIP3   OH243355   0.796   5.321  10.778  0.4730  0.3171  0.3288
 6387TIP3    H143356   0.870   5.271  10.813  0.3922  0.9213  1.3995
 6387TIP3    H243357   0.833   5.368  10.704  0.9516 -0.0601  0.3186
 6388TIP3   OH243358   1.769   3.948  11.810  0.2055  0.2476  0.5033
 6388TIP3    H143359   1.686   3.924  11.852 -0.9465  2.7785 -0.0924
 6388TIP3    H243360   1.797   4.027  11.858  2.1365 -0.3831  0.4881
 6389TIP3   OH243361   6.797   2.072  11.687  0.2327  0.1033  0.2065
 6389TIP3    H143362   6.813   2.103  11.598  0.0699 -0.7905 -0.1428
 6389TIP3    H243363   6.882   2.078  11.730  0.9142 -1.8846 -0.7802
 6390TIP3   OH243364   1.274   4.698  12.600 -0.1367  0.2121 -0.0251
 6390TIP3    H143365   1.365   4.683  12.625  0.5108  1.8285 -1.2446
 6390TIP3    H243366   1.238   4.754  12.669 -0.3531 -0.7277  0.6504
 6391TIP3   OH243367   4.833   3.414  12.224  0.9125 -0.1998 -0.2029
 6391TIP3    H143368   4.796   3.327  12.239 -1.5267  0.7355 -0.3605
 6391TIP3    H243369   4.823   3.459  12.308 -0.5043  0.8005 -0.8653
 6392TIP3   OH243370   0.405   6.176  12.278  0.5463 -0.0073 -0.5761
 6392TIP3    H143371   0.458   6.201  12.353  1.7826 -2.6040 -0.4768
 6392TIP3    H243372   0.468   6.152  12.210 -0.5337  1.9060 -2.3909
 6393TIP3   OH243373   3.697   1.214  12.095 -0.1146 -0.1992  0.0859
 6393TIP3    H143374   3.776   1.168  12.123  0.9392  1.2347 -0.3924
 6393TIP3    H243375   3.684   1.281  12.162  0.6993  1.3305 -1.2277
 6394TIP3   OH243376   2.906   6.677  13.704 -0.3672  0.5860  0.8764
 6394TIP3    H143377   2.831   6.695  13.647  1.0744  1.6230 -0.7910
 6394TIP3    H243378   2.904   6.582  13.716  0.0510  0.0949 -2.1533
 6395TIP3   OH243379   3.340   1.812  11.801  0.0981  0.2715 -0.7730
 6395TIP3    H143380   3.292   1.730  11.813 -0.2032  0.6533  0.7421
 6395TIP3    H243381   3.364   1.839  11.889  1.2144  1.2215 -1.3482
 6396TIP3   OH243382   7.225   7.365  19.736 -0.0963  0.3856 -0.2925
 6396TIP3    H143383   7.265   7.418  19.667  0.5061  1.4103  0.8007
 6396TIP3    H243384   7.152   7.419  19.767 -0.2009  0.0540  0.0393
 6397TIP3   OH243385   5.807   1.238  13.587  0.8595 -0.1364 -0.9771
 6397TIP3    H143386   5.872   1.210  13.651 -1.2551  1.3894  2.1060
 6397TIP3    H243387   5.724   1.203  13.620 -0.2427 -0.2720 -3.6059
 6398TIP3   OH243388   5.036   5.665  12.300 -0.4673  0.0411 -0.0988
 6398TIP3    H143389   5.081   5.583  12.322 -1.1293 -0.9484 -2.2278
 6398TIP3    H243390   4.981   5.643  12.225 -1.6644  2.1418  0.1011
 6399TIP3   OH243391   0.280   5.825  13.090 -0.8265  0.0417  0.1768
 6399TIP3    H143392   0.278   5.731  13.103  1.8695 -0.5356 -2.5070
 6399TIP3    H243393   0.253   5.839  13.000 -0.7209  1.8039  0.3644
 6400TIP3   OH243394   1.709   3.995  12.151 -0.5843 -0.3938  0.9468
 6400TIP3    H143395   1.724   3.941  12.228 -0.0172 -2.4426 -0.5223
 6400TIP3    H243396   1.666   3.937  12.088  1.5012  0.3447 -1.2958
 6401TIP3   OH243397   2.747   5.189  11.281  0.1882 -0.3237 -0.5105
 6401TIP3    H143398   2.753   5.100  11.315  0.3374 -0.0261  0.2618
 6401TIP3    H243399   2.657   5.196  11.248 -0.1708 -0.4143  0.4276
 6402TIP3   OH243400   3.458   2.149  12.538 -0.4087 -0.1970  0.1918
 6402TIP3    H143401   3.538   2.105  12.507  1.0887  1.3427  1.6886
 6402TIP3    H243402   3.422   2.089  12.603  0.1034 -0.4454  0.2554
 6403TIP3   OH243403   5.108   3.395  12.944 -0.1421 -0.0220  0.1149
 6403TIP3    H143404   5.102   3.465  13.010  0.0347 -0.4258  0.5658
 6403TIP3    H243405   5.072   3.434  12.865 -1.3710  0.1333  0.7233
 6404TIP3   OH243406   6.022   3.515  11.257 -0.6259 -0.0970  0.5868
 6404TIP3    H143407   6.095   3.481  11.205 -0.2730  0.5929  0.6209
 6404TIP3    H243408   5.984   3.438  11.298 -1.4092 -0.7758 -1.3005
 6405TIP3   OH243409   4.233   6.320  13.393  0.2346  0.2071 -0.4564
 6405TIP3    H143410   4.272   6.407  13.384  0.3376  0.0429 -1.7324
 6405TIP3    H243411   4.308   6.261  13.400  0.2066  0.3771  2.8148
 6406TIP3   OH243412   2.232   4.569  12.979  0.1717  0.2931  0.1495
 6406TIP3    H143413   2.187   4.523  13.049 -0.7567  1.2449  0.1974
 6406TIP3    H243414   2.204   4.660  12.988  2.0632  0.9079  0.1335
 6407TIP3   OH243415   7.055   3.834  13.114  0.3616 -0.1290 -0.9461
 6407TIP3    H143416   7.020   3.745  13.116  1.2332 -0.4724 -0.7551
 6407TIP3    H243417   6.998   3.881  13.053  1.9256 -1.7121 -3.8062
 6408TIP3   OH243418   0.510   4.790  13.014 -0.4757 -0.5518  0.5376
 6408TIP3    H143419   0.603   4.788  13.037 -0.0969  4.2876  0.4579
 6408TIP3    H243420   0.465   4.796  13.098 -0.2538  1.6663  0.5592
 6409TIP3   OH243421   2.899   4.076  12.867  0.0900  0.8708  0.0708
 6409TIP3    H143422   2.942   4.136  12.806 -0.4180  0.7920 -0.3655
 6409TIP3    H243423   2.921   3.989  12.834 -1.7042  0.8241 -1.0931
 6410TIP3   OH243424   4.625   4.494  13.136  0.3793  0.4554  0.0815
 6410TIP3    H143425   4.566   4.488  13.061 -0.0994  0.6013  0.4391
 6410TIP3    H243426   4.607   4.580  13.174 -0.8884 -0.4339  1.5912
 6411TIP3   OH243427   4.805   0.967  11.639  0.9179 -0.3654  0.2449
 6411TIP3    H143428   4.821   1.060  11.623 -0.3496  0.0264  1.0944
 6411TIP3    H243429   4.873   0.942  11.702  0.5475  0.3006  0.9257
 6412TIP3   OH243430   3.081   3.978  13.471  0.3461 -0.0767 -0.0479
 6412TIP3    H143431   2.989   3.968  13.449  0.3672  0.7196 -0.5339
 6412TIP3    H243432   3.081   4.034  13.549  0.4203  0.0120 -0.1111
 6413TIP3   OH243433   3.400   3.329  13.461 -0.0994 -0.2942 -0.2879
 6413TIP3    H143434   3.363   3.257  13.410  1.5927 -0.6389 -1.0773
 6413TIP3    H243435   3.489   3.302  13.481  0.3055  1.2355  0.1008
 6414TIP3   OH243436   0.696   0.834  11.324 -0.1180  0.4318  0.4598
 6414TIP3    H143437   0.787   0.861  11.340  0.0110  0.9309 -0.9916
 6414TIP3    H243438   0.654   0.842  11.410  1.3925 -0.6431  1.3586
 6415TIP3   OH243439   6.061   6.506  11.557 -0.0528  0.0899  0.6877
 6415TIP3    H143440   6.144   6.460  11.555 -0.6692 -1.0102 -0.2321
 6415TIP3    H243441   5.996   6.441  11.531 -0.8443  1.6596 -1.5949
 6416TIP3   OH243442   0.759   3.601  11.490 -0.7458 -0.0321 -0.0439
 6416TIP3    H143443   0.819   3.608  11.564 -1.6429  0.6420  0.6391
 6416TIP3    H243444   0.804   3.544  11.428  1.1808  1.4705 -0.1231
 6417TIP3   OH243445   6.921   6.303  13.368  0.1598 -0.3610 -0.3551
 6417TIP3    H143446   6.989   6.270  13.310 -0.9132 -1.7635 -0.8570
 6417TIP3    H243447   6.909   6.234  13.433  0.6782  0.7863  1.0225
 6418TIP3   OH243448   2.080   0.122  11.968 -0.7122  0.5647  0.2651
 6418TIP3    H143449   2.016   0.053  11.951 -1.9732  1.4380  1.3423
 6418TIP3    H243450   2.065   0.147  12.059  0.2828  1.7139  0.1380
 6419TIP3   OH243451   0.315   7.356  12.052  0.3388  0.1503  0.0950
 6419TIP3    H143452   0.299   7.265  12.030  1.0923  0.6028 -2.7368
 6419TIP3    H243453   0.406   7.359  12.081  0.6271  0.1369 -0.7953
 6420TIP3   OH243454   3.057   0.505  13.067  0.3041  0.2019 -0.5575
 6420TIP3    H143455   3.078   0.597  13.049  1.0508  0.4780  1.3828
 6420TIP3    H243456   2.965   0.506  13.091  0.6761  0.7545  0.9871
 6421TIP3   OH243457   0.711   5.104  13.212  0.1230  0.6690  0.1768
 6421TIP3    H143458   0.728   5.089  13.305  1.2466 -0.9075 -0.2220
 6421TIP3    H243459   0.617   5.118  13.206 -0.1945 -0.6714  1.4172
 6422TIP3   OH243460   1.209   1.647  10.977  0.3740 -0.8661  0.3453
 6422TIP3    H143461   1.240   1.571  10.927  0.7768 -1.1044  0.9586
 6422TIP3    H243462   1.124   1.620  11.010 -1.0136  0.1217 -2.1245
 6423TIP3   OH243463   0.023   4.829  10.884  0.4357 -0.0571 -0.3216
 6423TIP3    H143464   0.024   4.734  10.875 -0.3712  0.0327 -1.4955
 6423TIP3    H243465   0.058   4.845  10.972  1.1347 -1.4007 -0.3320
 6424TIP3   OH243466   6.209   3.010  11.894 -0.3923 -0.5428 -0.7005
 6424TIP3    H143467   6.192   3.000  11.988 -2.5260  0.0458 -0.9632
 6424TIP3    H243468   6.170   2.933  11.854  2.6481 -2.0498 -0.9829
 6425TIP3   OH243469   4.416   3.085  11.968  0.1168 -0.3995 -0.6009
 6425TIP3    H143470   4.383   3.141  11.897 -0.8682  0.9375  0.8522
 6425TIP3    H243471   4.339   3.064  12.020  1.2375  1.5827  2.0540
 6426TIP3   OH243472   3.518   3.599  11.460 -0.1792 -0.3354 -0.1795
 6426TIP3    H143473   3.577   3.674  11.462 -2.9575  2.0810 -0.9896
 6426TIP3    H243474   3.513   3.570  11.551  3.2846 -1.6962 -0.2633
 6427TIP3   OH243475   6.909   2.482  12.320  0.0458 -0.3199  0.6857
 6427TIP3    H143476   6.947   2.416  12.378  0.8486  0.1503  0.7032
 6427TIP3    H243477   6.971   2.489  12.247 -0.3879 -0.0930  0.3352
 6428TIP3   OH243478   5.621   6.299  12.296  0.0349 -0.6548 -0.0013
 6428TIP3    H143479   5.706   6.261  12.319  1.1461  1.2389 -0.7151
 6428TIP3    H243480   5.642   6.387  12.263 -2.3714  0.8295  2.0054
 6429TIP3   OH243481   5.084   2.419  12.244 -0.4281 -0.0661  1.0679
 6429TIP3    H143482   5.135   2.493  12.278 -0.1454 -0.0943  0.7065
 6429TIP3    H243483   5.150   2.354  12.220 -0.1184  1.6595 -3.9914
 6430TIP3   OH243484   1.536   3.433  12.200 -0.2243 -0.0526 -0.6726
 6430TIP3    H143485   1.578   3.467  12.122  1.5609 -1.3714 -0.3548
 6430TIP3    H243486   1.459   3.488  12.213  0.5063  1.3933 -2.2439
 6431TIP3   OH243487   5.587   5.504  11.053 -0.0713 -0.9230  0.0091
 6431TIP3    H143488   5.577   5.441  10.981  1.8436 -2.1205  0.7107
 6431TIP3    H243489   5.681   5.518  11.060 -0.3867  1.5519  0.3495
 6432TIP3   OH243490   0.339   6.979  11.377  0.5828  0.7666 -0.2571
 6432TIP3    H143491   0.358   6.888  11.400 -0.6620  0.9148  1.6035
 6432TIP3    H243492   0.263   6.975  11.321  1.2966  0.6145 -1.2396
 6433TIP3   OH243493   3.418   0.523  13.492  0.0054 -0.1296  0.2333
 6433TIP3    H143494   3.502   0.557  13.523 -0.0694  1.1899 -0.9284
 6433TIP3    H243495   3.397   0.577  13.416 -2.3230  0.1731  1.0114
 6434TIP3   OH243496   0.334   6.266  13.164  0.2089 -0.0666 -0.1585
 6434TIP3    H143497   0.276   6.308  13.227  0.8905  0.4565  0.1264
 6434TIP3    H243498   0.385   6.337  13.127  1.4397 -0.6302  0.3954
 6435TIP3   OH243499   1.419   5.402  13.027  0.4557 -0.2310 -0.7785
 6435TIP3    H143500   1.463   5.333  13.077  0.1458  0.1570  0.0537
 6435TIP3    H243501   1.490   5.449  12.983  0.8663  0.1718  0.2730
 6436TIP3   OH243502   1.619   4.410  11.045 -0.3552 -1.1220  0.4590
 6436TIP3    H143503   1.636   4.333  10.990  0.9015 -1.4416  1.2498
 6436TIP3    H243504   1.706   4.448  11.060 -1.0414  1.1055 -0.8103
 6437TIP3   OH243505   3.135   0.925  12.085 -0.2204  0.1390 -0.2542
 6437TIP3    H143506   3.183   0.982  12.025 -0.1551  1.3094  0.8804
 6437TIP3    H243507   3.055   0.902  12.037  1.3799 -1.8601 -2.1853
 6438TIP3   OH243508   4.316   4.339  12.195  0.3897 -0.1650  0.7647
 6438TIP3    H143509   4.400   4.333  12.150 -0.4006  1.2807 -1.0391
 6438TIP3    H243510   4.337   4.370  12.283  1.8102 -0.8406  0.6836
 6439TIP3   OH243511   6.676   2.588  12.694  0.0774 -0.1244  0.0440
 6439TIP3    H143512   6.749   2.532  12.721  0.2139 -1.0727 -2.0705
 6439TIP3    H243513   6.717   2.659  12.644 -0.4278 -1.4531 -2.4345
 6440TIP3   OH243514   7.468   5.910  10.711  0.1411 -0.6684 -0.6035
 6440TIP3    H143515   7.494   5.895  10.802 -1.5565 -2.3105 -0.3137
 6440TIP3    H243516   7.376   5.933  10.717  0.7129  2.2502 -1.7489
 6441TIP3   OH243517   2.444   1.821  12.599  0.3467 -0.0800  0.3977
 6441TIP3    H143518   2.505   1.833  12.525  0.0502  2.9209  0.5035
 6441TIP3    H243519   2.494   1.770  12.663  0.7058 -2.5419 -1.6880
 6442TIP3   OH243520   3.391   2.600  12.202 -0.1672  0.0174 -0.0171
 6442TIP3    H143521   3.416   2.625  12.113  2.1808 -0.2309  0.5158
 6442TIP3    H243522   3.440   2.520  12.220  0.5404  0.8116  1.9715
 6443TIP3   OH243523   0.759   1.068  13.273  0.0427  0.6312  0.1959
 6443TIP3    H143524   0.807   1.126  13.332 -1.0955  0.6085  1.1845
 6443TIP3    H243525   0.693   1.026  13.329 -0.0283 -0.6020 -0.7725
 6444TIP3   OH243526   0.106   4.376  12.331 -0.1707  0.3827 -0.3356
 6444TIP3    H143527   0.196   4.405  12.315 -0.2925  0.0616 -1.7097
 6444TIP3    H243528   0.090   4.310  12.263 -1.7213  1.0223 -0.6190
 6445TIP3   OH243529   4.177   6.609  12.343 -0.3409 -0.2715 -0.3677
 6445TIP3    H143530   4.197   6.522  12.310  0.8973 -0.9785  2.0198
 6445TIP3    H243531   4.098   6.598  12.395  0.9922 -0.5337  1.7352
 6446TIP3   OH243532   1.598   6.697  13.440  0.5106 -0.3550  0.8775
 6446TIP3    H143533   1.577   6.673  13.530 -2.2769 -0.2070  0.3565
 6446TIP3    H243534   1.525   6.662  13.389  0.9477  1.4020 -1.0617
 6447TIP3   OH243535   5.029   3.050  11.587  0.5189 -0.8804 -0.0553
 6447TIP3    H143536   4.998   2.966  11.553 -1.2321 -0.0724 -0.5943
 6447TIP3    H243537   4.951   3.106  11.587  1.6920  0.8287  0.0348
 6448TIP3   OH243538   5.012   0.888  11.788 -0.5824  0.5490 -0.0416
 6448TIP3    H143539   5.047   0.973  11.762  0.0153  0.1973 -0.4091
 6448TIP3    H243540   5.086   0.828  11.780 -0.6510  0.2198  1.4626
 6449TIP3   OH243541   3.041   4.640  12.737 -0.0719  0.2311  0.0967
 6449TIP3    H143542   2.953   4.633  12.699 -0.4380  0.4395  0.8784
 6449TIP3    H243543   3.047   4.732  12.763  0.1911  0.0999  0.4938
 6450TIP3   OH243544   4.336   4.709  12.892 -0.1868  0.0992  0.2457
 6450TIP3    H143545   4.418   4.756  12.877 -1.9625  3.8499  1.1309
 6450TIP3    H243546   4.315   4.726  12.984 -2.6286  0.5124 -0.3313
 6451TIP3   OH243547   1.155   7.083  12.578  0.4389 -0.0242  0.4638
 6451TIP3    H143548   1.140   7.071  12.484 -0.8827  1.9195  0.3584
 6451TIP3    H243549   1.208   7.163  12.583 -0.1505  0.3189  1.3911
 6452TIP3   OH243550   5.467   0.906  12.895 -0.1780 -0.1504  0.2838
 6452TIP3    H143551   5.452   0.862  12.811 -2.2961 -1.1284  1.0843
 6452TIP3    H243552   5.507   0.989  12.873 -3.4128  0.9844 -2.0469
 6453TIP3   OH243553   6.360   5.049  11.970  0.4945 -0.5982  0.4168
 6453TIP3    H143554   6.357   4.959  12.003 -1.3716 -0.7719 -0.0869
 6453TIP3    H243555   6.269   5.068  11.947  0.8627  1.4159  0.4843
 6454TIP3   OH243556   6.892   3.899  12.194  0.3552  0.4850 -0.5733
 6454TIP3    H143557   6.961   3.964  12.207  1.9686 -0.9905 -1.3606
 6454TIP3    H243558   6.938   3.820  12.164 -1.6592 -0.6173 -0.9667
 6455TIP3   OH243559   6.349   4.977  12.646 -0.3132  0.2562 -0.0370
 6455TIP3    H143560   6.254   4.969  12.655 -0.3017  0.2752  0.0987
 6455TIP3    H243561   6.384   4.945  12.729 -0.1956  0.1382 -0.1321
 6456TIP3   OH243562   6.392   0.518  12.728  0.0044  0.5314 -0.3890
 6456TIP3    H143563   6.312   0.501  12.778  0.1478  1.4716  0.1747
 6456TIP3    H243564   6.463   0.501  12.790  0.2466 -0.1310 -0.8365
 6457TIP3   OH243565   1.103   4.905  13.103  0.2511 -0.5424 -0.4410
 6457TIP3    H143566   1.060   4.977  13.057 -0.7987 -1.8503 -1.5958
 6457TIP3    H243567   1.063   4.904  13.189  0.0318  0.0323 -0.5314
 6458TIP3   OH243568   3.100   0.197  11.736  0.2727 -0.1127 -0.3775
 6458TIP3    H143569   3.175   0.234  11.781 -1.3868  2.5905  0.4031
 6458TIP3    H243570   3.064   0.133  11.797  0.1998  0.8148  0.5755
 6459TIP3   OH243571   7.261   2.391  12.653  0.2277  0.0226  0.2383
 6459TIP3    H143572   7.193   2.408  12.719 -1.0909 -1.3516 -0.6911
 6459TIP3    H243573   7.342   2.418  12.696 -0.6913  0.1108  2.0611
 6460TIP3   OH243574   1.314   0.069  12.617 -0.2798  0.2920  0.3016
 6460TIP3    H143575   1.399   0.025  12.614  0.9994  2.4695  1.8235
 6460TIP3    H243576   1.317   0.132  12.545 -1.5379 -1.0837 -1.0067
 6461TIP3   OH243577   3.293   6.286  13.091  0.3718 -0.6645 -0.1887
 6461TIP3    H143578   3.359   6.247  13.033  1.0514 -0.7912  0.6521
 6461TIP3    H243579   3.344   6.329  13.159 -0.3962  0.7627 -0.4903
 6462TIP3   OH243580   0.758   1.462  12.469  0.0941 -0.0430 -0.1453
 6462TIP3    H143581   0.787   1.436  12.382 -0.0961  0.4374 -0.3500
 6462TIP3    H243582   0.786   1.553  12.478 -0.6723  0.1823 -0.0470
 6463TIP3   OH243583   1.892   1.171  12.172  0.0600 -0.1767 -0.0238
 6463TIP3    H143584   1.811   1.218  12.151  0.7865  0.8972 -0.5030
 6463TIP3    H243585   1.862   1.087  12.207 -1.2691  0.4591  0.4442
 6464TIP3   OH243586   1.944   0.643  12.955 -0.1846 -0.2584  0.0167
 6464TIP3    H143587   1.981   0.694  13.027 -1.4103 -0.0626  0.5349
 6464TIP3    H243588   1.911   0.709  12.894  0.1960 -0.4270 -0.3719
 6465TIP3   OH243589   4.877   1.570  13.429  0.4754  0.0080  0.5178
 6465TIP3    H143590   4.917   1.493  13.469  0.5758 -0.6567 -0.8058
 6465TIP3    H243591   4.815   1.534  13.365 -2.2628  0.9839  2.4621
 6466TIP3   OH243592   6.758   0.028  11.283 -0.0033 -0.3912 -0.0333
 6466TIP3    H143593   6.746  -0.065  11.301 -0.0106  0.0439  2.5907
 6466TIP3    H243594   6.844   0.033  11.240  0.6530 -1.4924  1.0984
 6467TIP3   OH243595   3.891   2.162  12.277 -0.3766  0.1032 -0.1775
 6467TIP3    H143596   3.881   2.140  12.184  0.6629 -1.4016  0.0349
 6467TIP3    H243597   3.969   2.114  12.305 -1.8298 -1.1752  1.9927
 6468TIP3   OH243598   5.411   1.677  11.603 -0.6414  0.0702  0.4371
 6468TIP3    H143599   5.433   1.584  11.592 -0.2052  0.1397  0.6830
 6468TIP3    H243600   5.470   1.722  11.543 -0.2059  0.2495  0.9896
 6469TIP3   OH243601   2.793   6.945  12.560 -0.0434 -0.4712 -0.1108
 6469TIP3    H143602   2.782   7.040  12.552 -1.0524 -0.4036  1.5852
 6469TIP3    H243603   2.879   6.928  12.522 -0.3928  0.9189 -1.6624
 6470TIP3   OH243604   0.086   4.850  11.174 -0.1037 -0.1819  0.3587
 6470TIP3    H143605   0.131   4.821  11.253 -0.4240 -0.1366  0.5566
 6470TIP3    H243606   0.120   4.939  11.158  1.3538 -0.8584 -0.5987
 6471TIP3   OH243607   3.719   5.024  11.084  0.3972  0.1346 -0.2006
 6471TIP3    H143608   3.641   5.078  11.073  0.0319 -0.6926 -1.9730
 6471TIP3    H243609   3.793   5.085  11.077 -0.0305  1.1426  2.8029
 6472TIP3   OH243610   1.838   2.885  11.168  0.1011  0.0994 -0.0188
 6472TIP3    H143611   1.750   2.909  11.198  0.5181  2.7424 -0.6618
 6472TIP3    H243612   1.895   2.906  11.242  0.4233  0.5601 -0.3902
 6473TIP3   OH243613   4.432   4.702  10.985 -0.1190  0.2401 -0.0706
 6473TIP3    H143614   4.455   4.785  10.943 -0.4056 -0.1280 -0.9702
 6473TIP3    H243615   4.450   4.717  11.078 -0.6809  1.4878 -0.1422
 6474TIP3   OH243616   1.183   2.148  10.822 -0.6873  0.1378  0.6547
 6474TIP3    H143617   1.267   2.194  10.816 -0.3992 -0.4987 -0.8092
 6474TIP3    H243618   1.149   2.171  10.908  0.5099  1.2316  0.8758
 6475TIP3   OH243619   5.672   0.050  11.685  0.2458  0.1427  0.3748
 6475TIP3    H143620   5.661   0.002  11.767  0.3968  0.0566  0.3456
 6475TIP3    H243621   5.585   0.047  11.644 -0.3278  1.7863  1.3889
 6476TIP3   OH243622   2.182   7.284  13.524 -0.3005  0.1824  0.2886
 6476TIP3    H143623   2.218   7.313  13.607 -0.2739  0.5860  0.1400
 6476TIP3    H243624   2.235   7.329  13.458  0.4053 -0.9875  0.0309
 6477TIP3   OH243625   5.117   1.602  12.706  0.2541  0.1559 -0.5044
 6477TIP3    H143626   5.133   1.653  12.785  1.2909  0.4129 -0.8636
 6477TIP3    H243627   5.160   1.518  12.722 -0.1719 -0.0685 -0.5081
 6478TIP3   OH243628   6.249   1.565  12.894 -0.1384 -0.3899 -0.1799
 6478TIP3    H143629   6.185   1.573  12.823  1.0104 -0.2105 -1.2376
 6478TIP3    H243630   6.206   1.511  12.959 -1.8512  0.7465 -0.2819
 6479TIP3   OH243631   2.315   5.785  13.824 -0.1754 -0.2708  0.4396
 6479TIP3    H143632   2.293   5.849  13.756  1.2745 -1.8885 -1.7022
 6479TIP3    H243633   2.351   5.710  13.775  3.4655 -0.5118  3.0641
 6480TIP3   OH243634   4.975   2.177  12.531 -0.1530  0.1543 -0.4920
 6480TIP3    H143635   4.906   2.213  12.474  0.8284  3.2689  0.0843
 6480TIP3    H243636   5.040   2.142  12.470 -0.2785  1.1352 -1.2205
 6481TIP3   OH243637   0.578   3.422  12.997 -0.4006 -0.6494  0.0965
 6481TIP3    H143638   0.503   3.459  13.043  0.0014  0.2432  0.0590
 6481TIP3    H243639   0.651   3.431  13.058  0.0984  0.3904 -0.6209
 6482TIP3   OH243640   4.115   1.814  13.348 -0.2242  0.3084 -0.0570
 6482TIP3    H143641   4.120   1.740  13.408 -2.7184  0.0794 -0.0253
 6482TIP3    H243642   4.092   1.774  13.264  0.8946  0.8592 -0.6521
 6483TIP3   OH243643   6.272   5.924  12.727 -0.1517 -0.0473 -0.3514
 6483TIP3    H143644   6.183   5.888  12.736 -0.3108  0.2740 -0.6284
 6483TIP3    H243645   6.274   5.997  12.789 -0.3716  0.4967 -0.9802
 6484TIP3   OH243646   4.214   4.908  11.649 -0.2460  0.0250  0.0988
 6484TIP3    H143647   4.157   4.831  11.654 -0.5849  0.2716  0.0626
 6484TIP3    H243648   4.290   4.886  11.703 -0.7055 -0.0256  0.7244
 6485TIP3   OH243649   1.659   1.744  11.570  0.6063  0.8867  0.2411
 6485TIP3    H143650   1.686   1.732  11.661  0.7876  0.0050  0.0846
 6485TIP3    H243651   1.628   1.657  11.543 -0.8433  1.4826 -0.0887
 6486TIP3   OH243652   5.004   4.831  11.849 -0.5580 -0.4198 -0.1498
 6486TIP3    H143653   4.992   4.872  11.763  0.9324  1.6848  0.5700
 6486TIP3    H243654   5.084   4.780  11.840  1.2542  2.0719  0.6542
 6487TIP3   OH243655   3.905   3.293  11.105  0.2658  0.0992 -0.3333
 6487TIP3    H143656   3.818   3.312  11.139  0.1208 -2.4761  0.9535
 6487TIP3    H243657   3.950   3.378  11.103 -1.8960  1.3000 -0.0232
 6488TIP3   OH243658   5.972   1.166  12.891  0.3710  0.1325  0.4945
 6488TIP3    H143659   5.882   1.169  12.924  0.5365 -1.0406  1.0832
 6488TIP3    H243660   6.026   1.153  12.970  1.1025  1.2518  0.2030
 6489TIP3   OH243661   3.444   6.040  11.168  0.3680  0.2443  0.0707
 6489TIP3    H143662   3.360   5.993  11.171 -0.0374  0.6972 -2.2455
 6489TIP3    H243663   3.484   6.012  11.086  1.8190  1.1746  0.4300
 6490TIP3   OH243664   6.517   3.854  10.602 -0.0172  0.3224  0.4419
 6490TIP3    H143665   6.511   3.949  10.611  2.7942  0.5478  0.7113
 6490TIP3    H243666   6.526   3.822  10.692  0.4901 -0.0713  0.2504
 6491TIP3   OH243667   4.305   1.124  12.707 -0.5756  0.1320  0.5854
 6491TIP3    H143668   4.274   1.033  12.700 -2.2349  0.6819  0.3853
 6491TIP3    H243669   4.398   1.116  12.729 -0.9385 -1.6208  1.6925
 6492TIP3   OH243670   6.258   0.318  11.425 -0.3990 -0.0070  0.3348
 6492TIP3    H143671   6.227   0.366  11.502  0.7611 -1.0058  1.4587
 6492TIP3    H243672   6.181   0.270  11.394 -0.7142 -0.1130  1.2649
 6493TIP3   OH243673   0.493   3.907  10.978 -0.4130 -0.5104 -0.0727
 6493TIP3    H143674   0.571   3.859  10.950 -0.4809  0.2302 -1.6194
 6493TIP3    H243675   0.448   3.846  11.037  1.5457 -0.7792  1.2471
 6494TIP3   OH243676   1.695   6.527  12.166  0.0870 -0.3378 -0.2383
 6494TIP3    H143677   1.700   6.484  12.252  1.5964 -2.1649 -1.1551
 6494TIP3    H243678   1.766   6.591  12.167 -1.8906  2.0141  0.9655
 6495TIP3   OH243679   3.122   0.942  10.985  0.0030 -0.2998 -0.1790
 6495TIP3    H143680   3.157   0.899  11.063  0.3683  0.6277  0.1817
 6495TIP3    H243681   3.185   1.011  10.965 -1.9818  2.0165  1.0138
 6496TIP3   OH243682   1.775   4.205  13.091 -0.3884 -0.0680 -0.4736
 6496TIP3    H143683   1.850   4.225  13.147 -1.1759 -2.3789  1.5697
 6496TIP3    H243684   1.708   4.269  13.117 -0.3090 -0.2916  0.2873
 6497TIP3   OH243685   0.857   1.292  11.045  0.0257 -0.0711 -0.2503
 6497TIP3    H143686   0.903   1.235  11.107  2.5708  0.2377 -1.7193
 6497TIP3    H243687   0.853   1.377  11.089 -0.0512 -0.3358  0.2723
 6498TIP3   OH243688   1.100   1.812  13.419 -0.1711  0.5214  0.0368
 6498TIP3    H143689   1.123   1.793  13.328  0.1365 -0.6105  0.3331
 6498TIP3    H243690   1.005   1.801  13.423 -0.1557  0.3497 -0.0904
 6499TIP3   OH243691   4.124   6.048  11.162  0.4893  0.2569  0.2958
 6499TIP3    H143692   4.104   6.141  11.166  1.0276  0.3807  0.1632
 6499TIP3    H243693   4.146   6.025  11.252 -0.1756  0.1323  0.4314
 6500TIP3   OH243694   6.601   3.454  13.504 -0.2029 -0.0922 -0.1664
 6500TIP3    H143695   6.545   3.378  13.520 -0.7918  0.2013 -0.7524
 6500TIP3    H243696   6.541   3.528  13.504  0.0471  0.1382 -1.6516
 6501TIP3   OH243697   2.785   4.569  12.525 -0.0305  0.0080  0.0683
 6501TIP3    H143698   2.708   4.566  12.469 -1.1618  3.3995  1.1544
 6501TIP3    H243699   2.757   4.527  12.606 -0.0125 -0.5939 -0.2287
 6502TIP3   OH243700   5.101   6.654  12.043 -0.2621 -0.4562  0.6838
 6502TIP3    H143701   5.022   6.688  12.085 -0.4970 -0.3715  0.1868
 6502TIP3    H243702   5.069   6.584  11.985  0.0117 -0.3618  0.4126
 6503TIP3   OH243703   4.168   2.520  12.726  0.0507 -0.2453 -0.1275
 6503TIP3    H143704   4.075   2.506  12.747 -0.1774  0.5661 -0.5549
 6503TIP3    H243705   4.191   2.447  12.669 -0.5265 -0.0691 -0.6003
 6504TIP3   OH243706   6.885   2.793  13.446  0.7222  0.2434 -0.6362
 6504TIP3    H143707   6.881   2.769  13.354  0.4786  0.6209 -0.7249
 6504TIP3    H243708   6.794   2.792  13.476  0.4316  3.0866 -1.1718
 6505TIP3   OH243709   2.009   6.314  12.055 -0.0566 -0.6324  0.1579
 6505TIP3    H143710   1.974   6.381  12.114 -1.6485 -1.0590 -0.2481
 6505TIP3    H243711   1.942   6.304  11.987  2.3778  0.9707 -2.7138
 6506TIP3   OH243712   1.483   5.632  11.394 -0.3138  0.0543 -0.2079
 6506TIP3    H143713   1.419   5.601  11.458  0.4698 -2.6465 -0.6037
 6506TIP3    H243714   1.474   5.728  11.396 -2.5291 -0.0900  1.5782
 6507TIP3   OH243715   4.283   3.622  13.221  0.3170 -0.4036  0.1940
 6507TIP3    H143716   4.327   3.570  13.288  2.0975 -0.0644 -0.6745
 6507TIP3    H243717   4.192   3.591  13.224  1.2241 -3.4594 -0.1401
 6508TIP3   OH243718   2.379   3.968  13.417 -0.1471  0.2679  0.1593
 6508TIP3    H143719   2.301   4.010  13.381 -0.1670  0.0596 -0.0385
 6508TIP3    H243720   2.367   3.974  13.512 -0.1903  0.6345  0.1346
 6509TIP3   OH243721   0.831   0.731  13.375 -0.1440 -0.6424 -0.5519
 6509TIP3    H143722   0.857   0.757  13.463  0.4030 -0.6911 -0.6943
 6509TIP3    H243723   0.895   0.664  13.350  0.1719 -0.0901 -1.2751
 6510TIP3   OH243724   3.901   5.411  12.516 -0.1396  0.4761 -0.6555
 6510TIP3    H143725   3.961   5.336  12.509 -0.6965 -0.0226 -0.1444
 6510TIP3    H243726   3.898   5.431  12.610  0.2326  1.3346 -0.8144
 6511TIP3   OH243727   3.692   4.858  12.886 -0.4231 -0.1170  0.0990
 6511TIP3    H143728   3.688   4.899  12.972 -2.1499  1.3643 -0.6209
 6511TIP3    H243729   3.767   4.799  12.891 -0.6521 -0.3050  2.6965
 6512TIP3   OH243730   3.511   1.893  12.227 -0.0170  0.5524  0.4604
 6512TIP3    H143731   3.563   1.874  12.148 -2.4471 -2.3918 -0.6105
 6512TIP3    H243732   3.479   1.982  12.213  0.7205  0.5977 -1.2347
 6513TIP3   OH243733   4.325   6.189  12.525  0.5957 -0.9188  0.3064
 6513TIP3    H143734   4.269   6.236  12.586  0.3292 -1.3684  0.4096
 6513TIP3    H243735   4.408   6.179  12.572  1.1216  0.6240 -0.2174
 6514TIP3   OH243736   2.773   2.992  12.347  0.3091 -1.0539  0.4917
 6514TIP3    H143737   2.788   3.042  12.267  2.6019 -0.5056  1.1828
 6514TIP3    H243738   2.680   2.969  12.344  0.0852 -0.1196 -1.7645
 6515TIP3   OH243739   3.699   5.270  12.280 -0.0976 -0.3274  0.9526
 6515TIP3    H143740   3.767   5.314  12.229 -1.2935  1.3319  0.7310
 6515TIP3    H243741   3.711   5.303  12.369 -1.5452  1.1963  0.6195
 6516TIP3   OH243742   5.329   0.419  12.010  0.2300 -0.0991 -0.2326
 6516TIP3    H143743   5.247   0.467  12.000  0.1469  0.3952  2.2293
 6516TIP3    H243744   5.303   0.326  12.009 -0.4992  0.0661  1.3228
 6517TIP3   OH243745   3.799   0.153  12.252  0.4659  0.7038 -0.4649
 6517TIP3    H143746   3.854   0.176  12.176  0.8652  1.6426  0.0909
 6517TIP3    H243747   3.788   0.235  12.299 -0.6372  0.3272 -0.0470
 6518TIP3   OH243748   7.580   5.633  11.278  0.0346 -0.1562  0.2736
 6518TIP3    H143749   7.589   5.545  11.242  1.6694 -0.3001  0.9606
 6518TIP3    H243750   7.488   5.639  11.302 -0.1517 -1.6142  0.0421
 6519TIP3   OH243751   6.161   7.444  12.821 -0.5428  0.0947 -0.0233
 6519TIP3    H143752   6.122   7.510  12.764 -0.7113  1.2017  1.3225
 6519TIP3    H243753   6.094   7.376  12.828 -0.8056  0.2888 -0.5605
 6520TIP3   OH243754   1.183   7.663  12.834 -0.1706 -0.1779  0.3537
 6520TIP3    H143755   1.222   7.707  12.758 -0.9275  0.7395  0.4795
 6520TIP3    H243756   1.228   7.701  12.909 -1.4932  1.1550  0.5228
 6521TIP3   OH243757   2.771   7.203  12.714 -0.7044  0.4805 -0.2012
 6521TIP3    H143758   2.728   7.241  12.791 -2.8256 -0.8904 -0.6268
 6521TIP3    H243759   2.715   7.229  12.641 -0.6922 -1.1575 -0.8243
 6522TIP3   OH243760   3.192   3.345  12.863 -0.2169  0.3244 -0.0897
 6522TIP3    H143761   3.246   3.327  12.787  0.4400  3.0649 -0.4042
 6522TIP3    H243762   3.253   3.386  12.925 -1.3142  0.6646  0.7845
 6523TIP3   OH243763   0.887   6.154  13.521  0.3876  0.6499 -0.1250
 6523TIP3    H143764   0.965   6.178  13.470  0.8911  1.1056  0.8344
 6523TIP3    H243765   0.869   6.232  13.573 -0.4793  0.4007 -0.0515
 6524TIP3   OH243766   5.044   0.578  11.735 -0.0973  0.0159 -0.0767
 6524TIP3    H143767   5.132   0.615  11.721  0.9741 -2.5563 -0.6770
 6524TIP3    H243768   4.998   0.594  11.652 -0.1165  1.0961  0.1293
 6525TIP3   OH243769   1.976   4.813  10.945 -0.0955  0.0143 -0.2430
 6525TIP3    H143770   2.057   4.862  10.929  0.3496  0.0462  1.8341
 6525TIP3    H243771   1.971   4.806  11.040 -2.2078 -0.5674 -0.3514
 6526TIP3   OH243772   5.230   2.534  11.751 -0.2253  0.1281  0.3887
 6526TIP3    H143773   5.281   2.606  11.788  0.3399  0.9047 -1.7412
 6526TIP3    H243774   5.229   2.468  11.819 -1.3502  2.3658  2.7259
 6527TIP3   OH243775   5.306   6.277  12.886 -0.0377 -0.5913 -0.3474
 6527TIP3    H143776   5.392   6.300  12.921  0.6480 -2.2055 -0.8902
 6527TIP3    H243777   5.303   6.182  12.891 -1.0623 -0.6742 -2.0063
 6528TIP3   OH243778   2.158   6.090  13.052 -0.2615  0.6800  0.3543
 6528TIP3    H143779   2.173   6.080  13.146 -2.3075  0.6465  0.7256
 6528TIP3    H243780   2.136   6.002  13.022 -2.4565  1.1529  0.4523
 6529TIP3   OH243781   3.660   5.332  12.749 -0.2665  0.1242  0.1320
 6529TIP3    H143782   3.640   5.240  12.766 -1.5368  0.3233 -0.1698
 6529TIP3    H243783   3.742   5.330  12.699 -0.7264 -0.9010 -0.6186
 6530TIP3   OH243784   2.750   7.307  12.424 -0.0885  0.3163  0.0339
 6530TIP3    H143785   2.831   7.294  12.375 -0.8205  0.4502 -1.2579
 6530TIP3    H243786   2.684   7.328  12.357 -1.5514 -1.4057  0.8465
 6531TIP3   OH243787   1.566   5.776  11.669  1.0286 -0.0895  0.2355
 6531TIP3    H143788   1.504   5.849  11.663 -0.4344 -1.3087  0.0462
 6531TIP3    H243789   1.612   5.778  11.585  0.6546  0.3136  0.0303
 6532TIP3   OH243790   5.697   2.713  12.292  0.1391 -0.7724 -0.0437
 6532TIP3    H143791   5.764   2.672  12.237  0.3011  1.3743 -1.5526
 6532TIP3    H243792   5.618   2.713  12.238 -0.0375  0.2220  0.1938
 6533TIP3   OH243793   3.332   4.218  12.904 -0.0677  0.1207 -0.2519
 6533TIP3    H143794   3.273   4.183  12.837 -0.5992  0.2271  0.1500
 6533TIP3    H243795   3.362   4.302  12.869  1.1639 -0.6832 -1.1908
 6534TIP3   OH243796   2.047   5.147  13.301  0.3668 -0.4211 -0.1502
 6534TIP3    H143797   2.024   5.240  13.309  0.7992 -0.4624  3.1032
 6534TIP3    H243798   2.138   5.142  13.333 -0.2197 -2.1208  1.4483
 6535TIP3   OH243799   7.428   2.996  12.757  0.2590 -0.3883 -0.3285
 6535TIP3    H143800   7.381   2.914  12.749 -0.8052 -0.0043  1.5954
 6535TIP3    H243801   7.360   3.063  12.759  1.1103  0.5990 -1.9915
 6536TIP3   OH243802   7.462   2.520  13.344 -0.3432  0.1348 -0.5370
 6536TIP3    H143803   7.545   2.568  13.342  0.5898 -1.3915 -0.8953
 6536TIP3    H243804   7.409   2.566  13.409  1.9437 -0.6096  2.0955
 6537TIP3   OH243805   2.672   5.203  11.839  0.2773 -0.2369 -0.2770
 6537TIP3    H143806   2.702   5.126  11.887  0.6100  0.4921  0.7380
 6537TIP3    H243807   2.753   5.242  11.804  0.0746 -0.5437 -1.1002
 6538TIP3   OH243808   6.970   1.555  12.352  0.0949  0.0377 -0.2385
 6538TIP3    H143809   6.925   1.619  12.298 -0.6681  1.2282  1.7021
 6538TIP3    H243810   6.920   1.474  12.341 -0.0333  0.2536 -1.2947
 6539TIP3   OH243811   2.423   0.782  13.248 -0.5442  0.2589 -0.1997
 6539TIP3    H143812   2.485   0.816  13.313 -0.2362  0.7158 -0.7238
 6539TIP3    H243813   2.343   0.767  13.297 -0.4028  0.8743  0.2334
 6540TIP3   OH243814   4.028   5.565  11.267  0.6662 -0.1430 -0.3389
 6540TIP3    H143815   3.953   5.614  11.300  1.2274  0.4483  0.1144
 6540TIP3    H243816   4.062   5.619  11.195  0.9943 -0.1143 -0.1639
 6541TIP3   OH243817   2.928   4.210  12.618 -0.1185 -0.3700 -0.1778
 6541TIP3    H143818   2.839   4.193  12.588 -1.5134  1.9253  2.1637
 6541TIP3    H243819   2.954   4.290  12.573  1.5035 -1.8529 -2.0508
 6542TIP3   OH243820   2.828   6.568  12.778  0.2324  0.2943 -0.1916
 6542TIP3    H143821   2.804   6.477  12.764  0.6714  0.2803 -0.9009
 6542TIP3    H243822   2.835   6.577  12.873 -0.9552 -0.1063 -0.0458
 6543TIP3   OH243823   5.486   6.649  13.073 -0.1542 -0.0429 -0.2825
 6543TIP3    H143824   5.433   6.578  13.111  0.9738 -1.1740 -0.7486
 6543TIP3    H243825   5.438   6.729  13.094 -0.4396 -0.7597  2.0513
 6544TIP3   OH243826   2.069   5.469  12.858  0.3595  0.0153 -0.3533
 6544TIP3    H143827   2.088   5.528  12.931 -0.9031  0.3750 -0.2995
 6544TIP3    H243828   1.976   5.482  12.840  0.3826 -0.9545 -1.2476
 6545TIP3   OH243829   0.205   3.284  11.283  0.5397 -0.6241 -0.4098
 6545TIP3    H143830   0.158   3.335  11.217 -0.6586 -0.2563  0.6904
 6545TIP3    H243831   0.270   3.344  11.318 -0.6195  0.0669  0.6167
 6546TIP3   OH243832   2.145   3.293  13.532  0.0781  0.0361  0.5230
 6546TIP3    H143833   2.176   3.378  13.563  0.9241 -0.4657  1.1218
 6546TIP3    H243834   2.218   3.234  13.549 -1.3104 -1.2754  2.2374
 6547TIP3   OH243835   6.609   2.501  10.785  1.3813  0.3066  0.1037
 6547TIP3    H143836   6.659   2.566  10.834 -0.1983  0.0466  2.1978
 6547TIP3    H243837   6.524   2.541  10.772  0.8707 -0.7599  0.0833
 6548TIP3   OH243838   1.254   3.484  13.657 -0.6030 -0.1215  0.3442
 6548TIP3    H143839   1.230   3.564  13.610 -0.1109 -0.0258  0.2428
 6548TIP3    H243840   1.286   3.514  13.742 -0.6371 -0.2283  0.3954
 6549TIP3   OH243841   5.360   0.230  11.624 -0.1517  0.5467 -0.3248
 6549TIP3    H143842   5.346   0.318  11.658 -2.6259 -0.1228  0.5724
 6549TIP3    H243843   5.306   0.225  11.545 -0.2155 -0.2274 -0.2446
 6550TIP3   OH243844   6.472   5.560  12.173  0.3848 -0.2607 -0.1967
 6550TIP3    H143845   6.425   5.631  12.217  2.3896 -0.2674  2.2305
 6550TIP3    H243846   6.438   5.480  12.214  0.1964 -0.5024 -0.8168
 6551TIP3   OH243847   0.713   6.279  12.208 -0.9074 -0.0392  0.1426
 6551TIP3    H143848   0.654   6.293  12.282 -0.9921 -3.1625  0.8100
 6551TIP3    H243849   0.799   6.309  12.239 -0.8638 -1.6291  1.7348
 6552TIP3   OH243850   2.965   2.175  11.821 -0.1970  0.5112 -0.1006
 6552TIP3    H143851   3.020   2.103  11.790 -1.0253 -0.3693  0.4434
 6552TIP3    H243852   2.959   2.234  11.745  0.0059 -0.2716 -0.7475
 6553TIP3   OH243853   0.540   1.072  13.463  0.2534 -0.1201 -0.3949
 6553TIP3    H143854   0.451   1.059  13.496  0.1095  0.0306 -0.7207
 6553TIP3    H243855   0.597   1.044  13.535 -0.0514  0.7309  0.1810
 6554TIP3   OH243856   3.074   4.379  11.298  0.1971  1.3859  0.0064
 6554TIP3    H143857   3.051   4.290  11.269  0.6968  0.8189  1.2771
 6554TIP3    H243858   3.094   4.426  11.217  2.3061 -0.3610 -0.5991
 6555TIP3   OH243859   1.518   6.904  12.792 -0.3358  0.5050  0.3627
 6555TIP3    H143860   1.507   6.833  12.854  1.1241  0.7736  0.9832
 6555TIP3    H243861   1.429   6.929  12.767 -0.8867 -2.5155 -1.0601
 6556TIP3   OH243862   5.032   6.831  11.514 -0.9155 -0.4077  0.0382
 6556TIP3    H143863   5.071   6.895  11.572  1.1421  0.5596 -2.2489
 6556TIP3    H243864   4.938   6.840  11.527 -0.5577  0.4484  2.3994
 6557TIP3   OH243865   6.765   4.111  11.364 -0.3895  0.0107  0.8360
 6557TIP3    H143866   6.700   4.144  11.302 -2.0682 -1.3777  1.7886
 6557TIP3    H243867   6.803   4.034  11.321 -1.7518 -1.1173  1.5856
 6558TIP3   OH243868   7.386   0.870  11.763 -0.1596 -1.1489  0.3053
 6558TIP3    H143869   7.292   0.875  11.779  0.0404  0.8617  1.2461
 6558TIP3    H243870   7.396   0.804  11.695 -2.3434 -0.7039 -0.5277
 6559TIP3   OH243871   1.602   1.603  10.894  0.2160  0.1696 -0.1412
 6559TIP3    H143872   1.602   1.633  10.803  0.3632 -0.7453 -0.4532
 6559TIP3    H243873   1.550   1.669  10.941  1.4776  1.5212 -0.5767
 6560TIP3   OH243874   3.086   5.708  12.936 -0.2625 -0.4305  0.8501
 6560TIP3    H143875   3.097   5.796  12.972 -0.1351 -0.4732  0.9165
 6560TIP3    H243876   3.047   5.722  12.850  1.1408 -0.2126  0.2098
 6561TIP3   OH243877   5.846   6.119  12.328 -0.2955  0.2041  0.2681
 6561TIP3    H143878   5.936   6.088  12.335 -1.3446 -2.7929  2.0059
 6561TIP3    H243879   5.828   6.117  12.234  1.2600  0.3458 -0.0603
 6562TIP3   OH243880   3.826   5.013  13.086 -0.2974  0.1911 -0.4451
 6562TIP3    H143881   3.805   4.970  13.169  0.9768 -0.1484 -0.2721
 6562TIP3    H243882   3.810   5.106  13.103 -0.2959  0.0961  0.1043
 6563TIP3   OH243883   5.429   3.425  11.848  1.1463 -0.0454 -0.0325
 6563TIP3    H143884   5.339   3.441  11.876  0.9173 -0.0750 -0.7219
 6563TIP3    H243885   5.432   3.331  11.831  1.2434 -0.0137 -0.1962
 6564TIP3   OH243886   2.950   0.236  12.199 -0.2284  0.0974  0.1840
 6564TIP3    H143887   2.946   0.329  12.221  0.6788 -0.0341  0.9911
 6564TIP3    H243888   3.029   0.227  12.146 -0.4481 -0.1724 -0.0994
 6565TIP3   OH243889   1.863   6.354  11.826 -0.7345 -0.1709  0.7229
 6565TIP3    H143890   1.800   6.426  11.820 -0.0193  0.4386  0.1911
 6565TIP3    H243891   1.811   6.277  11.848 -1.6053  0.3915  0.6634
 6566TIP3   OH243892   2.915   1.996  12.568  0.0646 -0.0697 -0.5682
 6566TIP3    H143893   2.901   1.967  12.477 -1.6397 -0.1388 -0.3163
 6566TIP3    H243894   2.944   1.918  12.614 -3.2496 -1.2270 -0.1774
 6567TIP3   OH243895   4.968   3.906  12.604 -0.4749 -0.1762  0.2450
 6567TIP3    H143896   5.005   3.994  12.592 -2.0637  0.3278 -1.3689
 6567TIP3    H243897   4.921   3.889  12.523  0.8570 -3.1046 -0.0288
 6568TIP3   OH243898   7.020   2.141  13.216  0.0889 -0.6506  0.2847
 6568TIP3    H143899   7.104   2.119  13.257  0.4187  0.6400  0.3343
 6568TIP3    H243900   6.984   2.056  13.189  0.4295 -1.4397  2.1337
 6569TIP3   OH243901   5.190   4.871  11.262 -0.2920  0.3686 -0.3886
 6569TIP3    H143902   5.247   4.825  11.323 -2.1309  1.0094  1.9601
 6569TIP3    H243903   5.173   4.956  11.304  0.2065  1.8532 -2.9316
 6570TIP3   OH243904   5.682   0.001  10.987 -0.3138 -0.0402  0.5303
 6570TIP3    H143905   5.682  -0.037  10.899 -1.4216 -1.3668  1.0689
 6570TIP3    H243906   5.734  -0.061  11.039  0.8514  1.0455  0.7258
 6571TIP3   OH243907   6.594   1.766  12.120 -0.0224  0.2302  0.0720
 6571TIP3    H143908   6.520   1.723  12.077  0.0860  0.6014 -0.4963
 6571TIP3    H243909   6.554   1.824  12.185 -0.1477 -1.2767  1.3984
 6572TIP3   OH243910   3.035   7.466  11.713 -0.8976  0.5194  0.0301
 6572TIP3    H143911   2.940   7.469  11.718 -0.8612  0.6621  0.7499
 6572TIP3    H243912   3.065   7.514  11.790 -0.2478 -0.6738  0.5393
 6573TIP3   OH243913   0.302   6.473  12.541  0.0367 -0.3166  0.5651
 6573TIP3    H143914   0.387   6.434  12.521 -0.8105 -2.2727  0.5503
 6573TIP3    H243915   0.299   6.478  12.637 -0.4248 -1.7266  0.6416
 6574TIP3   OH243916   0.917   4.358  13.400  0.3243 -0.7079 -0.2093
 6574TIP3    H143917   0.976   4.420  13.443 -1.5594  0.5671  0.6637
 6574TIP3    H243918   0.903   4.395  13.313 -0.8503  0.1780  0.3341
 6575TIP3   OH243919   4.562   2.140  12.598 -0.1554 -0.2142  0.5090
 6575TIP3    H143920   4.492   2.076  12.586  0.2460 -0.4947 -0.3857
 6575TIP3    H243921   4.530   2.198  12.667 -1.4545 -0.0825 -0.1885
 6576TIP3   OH243922   4.059   1.112  11.125  0.6168 -0.1793 -0.4290
 6576TIP3    H143923   4.002   1.042  11.092  0.5277 -1.0488  1.4015
 6576TIP3    H243924   4.003   1.190  11.128 -0.6893 -1.0939  1.6735
 6577TIP3   OH243925   3.951   4.652  13.420  0.4528  0.0362 -0.1210
 6577TIP3    H143926   3.984   4.647  13.509 -0.4469  2.7656  0.4630
 6577TIP3    H243927   3.860   4.624  13.426  0.2396  0.7326 -0.0724
 6578TIP3   OH243928   5.357   6.128  11.173  0.2674 -0.4727  0.4863
 6578TIP3    H143929   5.339   6.039  11.142 -2.3217 -0.2653  1.1698
 6578TIP3    H243930   5.286   6.147  11.234  0.0336  2.5331 -0.5600
 6579TIP3   OH243931   2.295   7.607  12.448 -0.3825  0.2089  0.1012
 6579TIP3    H143932   2.242   7.561  12.513  1.3814 -1.8880  0.1842
 6579TIP3    H243933   2.241   7.610  12.370 -1.1827 -0.5114  0.6170
 6580TIP3   OH243934   0.905   3.285  12.662  0.0840  0.3617  0.1699
 6580TIP3    H143935   0.889   3.194  12.687  0.1187  0.2295 -0.2694
 6580TIP3    H243936   0.823   3.331  12.682  0.7598  0.7115  2.4422
 6581TIP3   OH243937   7.658   0.807  12.313 -0.1963 -0.3583  0.4719
 6581TIP3    H143938   7.725   0.743  12.288 -0.0688 -0.4755  1.1017
 6581TIP3    H243939   7.622   0.774  12.395 -1.4925 -0.6418 -0.1855
 6582TIP3   OH243940   0.013   2.932  11.340  0.2417  0.1372 -0.3897
 6582TIP3    H143941   0.097   2.972  11.320  1.1309 -0.3133  2.1059
 6582TIP3    H243942   0.017   2.846  11.297  2.0783 -0.8301  1.5443
 6583TIP3   OH243943   4.462   3.965  11.373 -0.7607 -0.0048  0.0775
 6583TIP3    H143944   4.438   3.875  11.351 -0.1486 -0.3191  0.6845
 6583TIP3    H243945   4.549   3.959  11.410 -0.7135  0.8464  0.1297
 6584TIP3   OH243946   3.587   5.955  10.967 -0.6264  0.2918  0.4610
 6584TIP3    H143947   3.626   6.027  10.918  0.3605  0.1025  0.9356
 6584TIP3    H243948   3.658   5.890  10.976 -1.0784 -0.1194  1.2333
 6585TIP3   OH243949   4.639   4.681  12.217 -0.5489  0.8420 -0.1456
 6585TIP3    H143950   4.694   4.616  12.261 -0.3164  2.0964  1.5402
 6585TIP3    H243951   4.684   4.699  12.135  0.2181  0.0404  0.0762
 6586TIP3   OH243952   1.561   4.125  10.966  0.2719 -0.0712  0.4333
 6586TIP3    H143953   1.466   4.115  10.959  0.3320 -0.5222  0.2928
 6586TIP3    H243954   1.586   4.073  11.042  0.5374 -0.7736 -0.1252
 6587TIP3   OH243955   4.167   7.314  11.209 -0.0586 -0.3076  0.6139
 6587TIP3    H143956   4.170   7.317  11.113 -2.6300 -0.4051  0.4618
 6587TIP3    H243957   4.234   7.377  11.237 -0.0042  0.5455 -1.2653
 6588TIP3   OH243958   1.229   4.997  11.181  0.1300 -0.0577  0.1323
 6588TIP3    H143959   1.152   5.048  11.156  0.3692 -0.2599 -1.0646
 6588TIP3    H243960   1.268   5.045  11.254  0.3028  1.4240 -0.9085
 6589TIP3   OH243961   4.552   3.766  11.755 -0.6011  0.0090  0.3581
 6589TIP3    H143962   4.586   3.828  11.690 -1.9570  0.3334 -0.0675
 6589TIP3    H243963   4.523   3.690  11.703  0.5672 -0.7896  0.8273
 6590TIP3   OH243964   2.258   0.926  10.874  0.5805 -0.4035  0.0129
 6590TIP3    H143965   2.317   0.999  10.895  0.8880 -0.7889  0.5016
 6590TIP3    H243966   2.307   0.873  10.811  0.3365 -0.1626 -0.3817
 6591TIP3   OH243967   4.716   2.264  11.739 -0.4486  0.3727 -0.2195
 6591TIP3    H143968   4.701   2.176  11.705 -0.8768  0.4601 -0.2558
 6591TIP3    H243969   4.777   2.304  11.677  0.4125 -0.1859  0.2522
 6592TIP3   OH243970   0.218   3.258  12.153  0.6395 -0.1333  0.4553
 6592TIP3    H143971   0.285   3.262  12.085  0.3357 -1.0580  0.0948
 6592TIP3    H243972   0.183   3.169  12.149  0.0976  0.0177  1.3257
 6593TIP3   OH243973   5.055   4.566  12.502 -0.0009 -0.2275 -0.7548
 6593TIP3    H143974   5.037   4.660  12.504  0.4135 -0.1218 -1.5403
 6593TIP3    H243975   5.084   4.545  12.592 -1.1081  0.1722 -0.2959
 6594TIP3   OH243976   7.285   2.211  12.321 -0.1308 -0.6593 -0.0677
 6594TIP3    H143977   7.350   2.158  12.368 -0.9013 -1.1281  0.5021
 6594TIP3    H243978   7.208   2.154  12.316 -0.5540 -0.0478 -0.5692
 6595TIP3   OH243979   7.007   0.552  12.077 -0.0958 -0.0444 -0.4677
 6595TIP3    H143980   7.034   0.630  12.125  0.4256 -0.3640 -0.2234
 6595TIP3    H243981   6.997   0.580  11.987 -0.5961  0.4567 -0.2590
 6596TIP3   OH243982   5.626   1.897  11.511  0.3408  0.5109 -0.1559
 6596TIP3    H143983   5.619   1.905  11.416 -1.2259  2.5246  0.0505
 6596TIP3    H243984   5.630   1.987  11.542  1.7006 -0.1220  1.6700
 6597TIP3   OH243985   6.089   3.762  11.865 -0.1303 -0.0692 -0.1255
 6597TIP3    H143986   6.181   3.780  11.885  0.3306 -1.6854 -0.6281
 6597TIP3    H243987   6.045   3.764  11.950 -0.0365  2.5526 -0.0527
 6598TIP3   OH243988   7.201   3.403  11.516 -0.3644  0.1373  0.3966
 6598TIP3    H143989   7.155   3.483  11.541 -0.8428 -0.2875  0.9193
 6598TIP3    H243990   7.266   3.431  11.452 -1.3204  0.7704 -0.3281
 6599TIP3   OH243991   5.300   3.146  12.839  0.9450  0.1515 -0.1214
 6599TIP3    H143992   5.391   3.118  12.849  1.4471  1.7085 -0.1060
 6599TIP3    H243993   5.301   3.204  12.763  0.3034  1.5351  0.8887
 6600TIP3   OH243994   2.951   0.423  11.649  0.5352  0.0522 -0.3585
 6600TIP3    H143995   2.950   0.429  11.553 -0.2828 -0.3692 -0.3833
 6600TIP3    H243996   2.985   0.335  11.667  0.4267  0.0264 -0.2754
 6601TIP3   OH243997   2.157   1.203  12.251 -0.0927 -0.2190  0.1472
 6601TIP3    H143998   2.175   1.298  12.249 -1.2609  0.0296 -2.2579
 6601TIP3    H243999   2.063   1.196  12.235  0.1029 -1.7936 -0.4662
 6602TIP3   OH244000   1.104   7.403  12.304 -0.1632  0.3712  0.3847
 6602TIP3    H144001   1.091   7.314  12.270 -0.7338  0.7347 -0.3823
 6602TIP3    H244002   1.038   7.412  12.373 -1.8489  1.0349 -1.2199
 6603TIP3   OH244003   2.527   3.600  12.333  0.1050  0.4721  0.2851
 6603TIP3    H144004   2.606   3.625  12.285  1.3968 -2.8942  0.4195
 6603TIP3    H244005   2.480   3.541  12.274  0.2543 -1.4732  2.0117
 6604TIP3   OH244006   4.080   5.556  13.033 -0.2249 -0.5065 -0.6327
 6604TIP3    H144007   4.112   5.504  13.106 -0.0631  1.6945  0.9640
 6604TIP3    H244008   4.157   5.604  13.002 -0.5629 -0.4592 -1.4371
 6605TIP3   OH244009   3.143   3.085  12.432  0.2883 -0.0944  0.2436
 6605TIP3    H144010   3.053   3.088  12.465  0.2928 -0.7613  0.3194
 6605TIP3    H244011   3.138   3.029  12.354  0.6692 -0.2760  0.3470
 6606TIP3   OH244012   4.878   4.025  11.767 -0.2666  0.2839 -0.0831
 6606TIP3    H144013   4.828   3.949  11.797 -1.0877 -0.0808 -2.1697
 6606TIP3    H244014   4.946   4.037  11.833 -3.8421  1.7019  3.7712
 6607TIP3   OH244015   4.789   4.685  11.465  0.4976 -0.3823  0.5676
 6607TIP3    H144016   4.707   4.687  11.416  0.7744  0.2353  0.1222
 6607TIP3    H244017   4.857   4.683  11.398  0.8951  1.1405  0.8885
 6608TIP3   OH244018   2.157   4.478  13.476  0.0801  0.5916  0.7457
 6608TIP3    H144019   2.179   4.414  13.544  0.3288  1.2265  1.2692
 6608TIP3    H244020   2.064   4.496  13.489 -0.2491 -0.3782 -0.0293
 6609TIP3   OH244021   3.423   2.868  11.699 -0.7348 -0.1065 -0.0049
 6609TIP3    H144022   3.466   2.943  11.657 -0.8382  0.1001  0.2566
 6609TIP3    H244023   3.388   2.817  11.627  0.4241 -0.5636 -0.2582
 6610TIP3   OH244024   3.072   0.632  18.881  0.1259 -0.6202 -0.4357
 6610TIP3    H144025   3.039   0.679  18.957 -1.5758 -0.9768 -0.9145
 6610TIP3    H244026   3.055   0.540  18.901  2.2101 -0.9767 -0.0742
 6611TIP3   OH244027   5.917   0.921  13.429  0.5496  0.7326 -0.2431
 6611TIP3    H144028   5.852   0.925  13.359 -0.2157  0.5736  0.4393
 6611TIP3    H244029   5.935   1.013  13.450  0.1958  0.7752 -0.1221
 6612TIP3   OH244030   3.341   7.270  12.356 -0.1678 -0.7337  0.3856
 6612TIP3    H144031   3.274   7.337  12.365 -0.8667 -1.3942  0.1538
 6612TIP3    H244032   3.415   7.315  12.315 -1.0448 -0.3529 -0.8371
 6613TIP3   OH244033   2.172   2.023  12.960 -0.4966 -0.2487 -0.0790
 6613TIP3    H144034   2.199   1.955  12.899 -1.9175 -1.5015  0.6153
 6613TIP3    H244035   2.110   2.077  12.911  0.2792  0.2863 -0.4890
 6614TIP3   OH244036   1.544   1.527  11.472  0.7612  0.0750  0.0001
 6614TIP3    H144037   1.498   1.499  11.551 -1.4678  0.1027 -1.2253
 6614TIP3    H244038   1.558   1.447  11.422 -0.3816  0.3599 -0.8285
 6615TIP3   OH244039   4.326   2.040  11.218  0.5133 -0.0136  0.4099
 6615TIP3    H144040   4.283   2.011  11.298  0.7033  1.2401  0.9966
 6615TIP3    H244041   4.417   2.055  11.244  0.8197 -0.6031 -0.2998
 6616TIP3   OH244042   5.714   3.821  12.055  0.1797 -0.0563  0.1125
 6616TIP3    H144043   5.660   3.814  11.976 -2.3042 -0.4491  1.7244
 6616TIP3    H244044   5.682   3.900  12.098  1.5068  0.1596  0.7255
 6617TIP3   OH244045   6.797   0.137  12.251 -0.7283  0.7731 -0.1742
 6617TIP3    H144046   6.733   0.066  12.248 -0.9080  0.7096  2.4516
 6617TIP3    H244047   6.866   0.103  12.309  1.2922  1.1804 -2.2130
 6618TIP3   OH244048   5.962   1.529  12.723  0.3675  0.3816  0.0489
 6618TIP3    H144049   6.039   1.489  12.684  0.8424  0.5079  0.8232
 6618TIP3    H244050   5.989   1.617  12.747 -0.5558  1.0536 -1.2825
 6619TIP3   OH244051   5.799   4.965  11.558 -0.1818  0.0020 -0.1674
 6619TIP3    H144052   5.780   5.044  11.609 -2.1284 -1.0237  0.8294
 6619TIP3    H244053   5.765   4.985  11.471 -1.1416  0.1142  0.2135
 6620TIP3   OH244054   0.801   6.262  10.925  0.4754  0.3994  0.0457
 6620TIP3    H144055   0.817   6.350  10.959 -1.0819  1.8533 -2.6182
 6620TIP3    H244056   0.706   6.249  10.933  0.5619 -0.6807 -0.4194
 6621TIP3   OH244057   3.818   1.611  13.099 -0.2018  0.3102 -0.2972
 6621TIP3    H144058   3.806   1.604  13.193 -1.5889 -0.0051 -0.4775
 6621TIP3    H244059   3.846   1.523  13.071 -2.7898 -0.5221 -0.5441
 6622TIP3   OH244060   2.976   0.138  13.332  0.3769 -0.7472  0.0304
 6622TIP3    H144061   2.903   0.201  13.336 -0.7459 -2.0504  1.1975
 6622TIP3    H244062   2.967   0.096  13.246 -0.0607 -0.6673  0.0322
 6623TIP3   OH244063   6.544   3.427  11.265 -0.6451 -0.1048 -0.2091
 6623TIP3    H144064   6.534   3.458  11.355 -0.8282 -0.4940 -0.0969
 6623TIP3    H244065   6.463   3.453  11.222 -0.9757 -0.8029 -0.0069
 6624TIP3   OH244066   1.941   6.342  13.064 -0.1209  0.1547 -0.1836
 6624TIP3    H144067   1.919   6.435  13.064  1.9125  0.7900 -3.5994
 6624TIP3    H244068   2.032   6.339  13.095 -0.4414 -0.8533  0.7532
 6625TIP3   OH244069   4.463   5.687  11.569 -0.2533  0.2604 -0.7614
 6625TIP3    H144070   4.399   5.720  11.632  0.6500 -2.5886  1.9129
 6625TIP3    H244071   4.415   5.621  11.519  0.3602 -1.5961  0.9797
 6626TIP3   OH244072   2.431   3.721  13.324 -0.1474  0.6790  0.6221
 6626TIP3    H144073   2.526   3.732  13.321 -0.3346  2.5601 -1.4448
 6626TIP3    H244074   2.399   3.804  13.361 -1.0372  1.0133 -0.8235
 6627TIP3   OH244075   3.676   5.683  13.781  0.2517  0.0115 -0.7693
 6627TIP3    H144076   3.656   5.750  13.715  1.4134  0.6357 -0.5162
 6627TIP3    H244077   3.763   5.707  13.813  0.0877 -0.8203  0.3312
 6628TIP3   OH244078   1.730   4.143  11.510 -0.0195 -0.1253 -0.1256
 6628TIP3    H144079   1.662   4.151  11.577 -0.7074  0.4241 -0.8740
 6628TIP3    H244080   1.699   4.197  11.437  0.7295 -0.6872 -0.8851
 6629TIP3   OH244081   1.469   4.972  13.166 -0.4601 -0.1281  0.7150
 6629TIP3    H144082   1.448   4.972  13.260 -0.3906 -0.5059  0.7319
 6629TIP3    H244083   1.503   5.060  13.150 -2.5816  0.7216  0.5497
 6630TIP3   OH244084   0.045   6.977  11.353  0.1788 -0.3539  0.2733
 6630TIP3    H144085  -0.004   6.980  11.270 -1.3730  1.0813  1.1791
 6630TIP3    H244086   0.045   6.884  11.377 -2.0388 -0.4349  0.1609
 6631TIP3   OH244087   2.800   3.927  11.262 -0.2935 -0.4525  0.4867
 6631TIP3    H144088   2.717   3.966  11.291 -0.8845 -1.6594  0.4828
 6631TIP3    H244089   2.798   3.838  11.298  0.4374 -0.9106 -0.5576
 6632TIP3   OH244090   0.211   1.138  10.843  0.1283  0.4460  0.2076
 6632TIP3    H144091   0.175   1.118  10.929  1.2994  0.2691  0.6787
 6632TIP3    H244092   0.196   1.058  10.792  2.0575 -0.5896  1.1678
 6633TIP3   OH244093   0.467   2.433  10.849 -0.0236  0.1381 -0.3094
 6633TIP3    H144094   0.468   2.356  10.792 -2.2371 -0.4195  0.3031
 6633TIP3    H244095   0.528   2.494  10.809 -0.1897 -0.9265 -2.2806
 6634TIP3   OH244096   5.127   0.981  12.475  0.0396  0.4577  0.0376
 6634TIP3    H144097   5.112   1.075  12.460  1.6348  1.0595  1.9119
 6634TIP3    H244098   5.146   0.946  12.388 -1.1959  1.7268 -0.7896
 6635TIP3   OH244099   6.802   2.231  12.027 -0.1150  0.1673  0.4200
 6635TIP3    H144100   6.809   2.327  12.022  0.7652  0.1093  0.3560
 6635TIP3    H244101   6.717   2.211  11.990  0.1808  0.8445 -0.6825
 6636TIP3   OH244102   6.428   5.468  12.537 -0.5816  0.9253 -0.0113
 6636TIP3    H144103   6.366   5.538  12.514  0.9773  2.0694 -0.8812
 6636TIP3    H244104   6.415   5.402  12.469 -2.4148  0.0664  1.0940
 6637TIP3   OH244105   3.021   3.363  12.557  0.0536  0.1087 -0.3895
 6637TIP3    H144106   2.959   3.291  12.567 -1.2127  1.1835 -0.1358
 6637TIP3    H244107   3.106   3.325  12.575 -0.3892 -1.6585 -1.7315
 6638TIP3   OH244108   3.169   5.258  12.872 -0.1259  0.0864  0.2754
 6638TIP3    H144109   3.201   5.335  12.825 -3.2962  1.1568 -0.3574
 6638TIP3    H244110   3.230   5.247  12.945  2.2593  1.1836 -1.4275
 6639TIP3   OH244111   0.181   1.852  12.779 -0.2710 -0.3259  0.1312
 6639TIP3    H144112   0.187   1.856  12.683 -0.7702 -0.8730  0.0750
 6639TIP3    H244113   0.207   1.940  12.808 -0.6806  0.0204 -0.5329
 6640TIP3   OH244114   4.236   1.592  11.647  0.5868 -0.1256  0.0459
 6640TIP3    H144115   4.194   1.507  11.629 -0.8094  0.2957  1.1254
 6640TIP3    H244116   4.329   1.572  11.654  0.3746 -1.4217 -0.5897
 6641TIP3   OH244117   6.814   3.200  11.521  0.1085  0.2447 -0.0524
 6641TIP3    H144118   6.895   3.165  11.560 -0.1912 -0.0376  0.3337
 6641TIP3    H244119   6.843   3.247  11.443  0.7006  0.5854  0.3642
 6642TIP3   OH244120   5.175   6.148  12.167  0.6581  0.3511 -0.1130
 6642TIP3    H144121   5.238   6.122  12.234  1.5889  1.9411 -0.2989
 6642TIP3    H244122   5.098   6.175  12.215 -0.2314 -2.2858  0.0918
 6643TIP3   OH244123   1.756   6.482  11.224  0.6658  0.6673 -0.1800
 6643TIP3    H144124   1.714   6.439  11.149  0.2189  0.2542  0.3021
 6643TIP3    H244125   1.741   6.576  11.209  1.5106  0.6687 -1.1541
 6644TIP3   OH244126   3.776   6.072  12.060  0.1253 -0.0358 -0.4675
 6644TIP3    H144127   3.835   6.056  11.986 -0.5035 -0.9983 -0.7866
 6644TIP3    H244128   3.716   6.139  12.029  0.2192 -0.0195 -0.6158
 6645TIP3   OH244129   2.032   4.122  11.009  0.5175  0.6558 -0.1957
 6645TIP3    H144130   1.962   4.183  11.035 -1.5329 -0.4314 -2.7253
 6645TIP3    H244131   2.027   4.052  11.074 -0.6151  0.7067 -0.2028
 6646TIP3   OH244132   1.548   4.456  13.121 -0.2558 -0.3714 -0.2336
 6646TIP3    H144133   1.495   4.393  13.072 -1.7887  1.1026 -0.5197
 6646TIP3    H244134   1.548   4.535  13.067  0.7502  0.2389  0.6278
 6647TIP3   OH244135   0.374   5.372  12.493 -0.2380 -0.0778  0.0121
 6647TIP3    H144136   0.339   5.328  12.416 -2.0734 -0.2604  0.8957
 6647TIP3    H244137   0.302   5.427  12.524  1.3244  2.0345  0.1048
 6648TIP3   OH244138   0.350   3.836  11.509 -0.0339  0.3216  0.7339
 6648TIP3    H144139   0.300   3.808  11.585  0.8629  1.7254  1.9083
 6648TIP3    H244140   0.413   3.900  11.544  0.9753  0.3790 -1.0510
 6649TIP3   OH244141   6.128   7.379  11.446  0.5945 -0.6344  0.0982
 6649TIP3    H144142   6.218   7.348  11.441  0.5957 -0.8415  1.0894
 6649TIP3    H244143   6.085   7.342  11.369  1.2318 -0.9682 -0.0989
 6650TIP3   OH244144   7.505   0.338  11.629 -0.0423  0.0024 -0.7375
 6650TIP3    H144145   7.572   0.360  11.565  0.6699 -0.9100 -0.3262
 6650TIP3    H244146   7.542   0.265  11.678 -0.4793  0.8213  0.8744
 6651TIP3   OH244147   3.458   5.417  12.357 -0.6035  0.1611 -0.1710
 6651TIP3    H144148   3.523   5.362  12.313 -1.4261 -0.8895 -0.1147
 6651TIP3    H244149   3.402   5.449  12.286 -0.0541  1.0683 -0.2190
 6652TIP3   OH244150   2.460   4.702  11.207  0.1184  0.8795  0.2287
 6652TIP3    H144151   2.538   4.703  11.263  0.9220  0.0712 -0.8485
 6652TIP3    H244152   2.413   4.623  11.233  0.2596  0.7409  0.0581
 6653TIP3   OH244153   1.601   2.905  12.465 -0.2607 -0.5989 -0.1918
 6653TIP3    H144154   1.599   2.810  12.461  0.7297 -0.7025  0.9968
 6653TIP3    H244155   1.552   2.927  12.545 -0.0186 -0.1603 -0.1610
 6654TIP3   OH244156   6.185   1.458  12.601 -0.3702  0.1085  0.4556
 6654TIP3    H144157   6.270   1.503  12.603  0.0969 -0.7852  2.0339
 6654TIP3    H244158   6.206   1.366  12.590 -1.1366 -0.1191  0.8001
 6655TIP3   OH244159   0.364   4.379  11.887 -0.0714 -0.4476  0.2486
 6655TIP3    H144160   0.389   4.467  11.917 -1.6917 -0.0845  0.6522
 6655TIP3    H244161   0.332   4.336  11.966 -3.1482  0.0543 -0.5643
 6656TIP3   OH244162   7.374   5.446  11.896 -0.3084  0.0126  0.5505
 6656TIP3    H144163   7.384   5.397  11.814 -0.2033  1.2534 -0.2037
 6656TIP3    H244164   7.415   5.530  11.879 -0.7799  0.4987  1.7011
 6657TIP3   OH244165   6.721   5.469  11.771 -0.2430  0.0330 -0.4494
 6657TIP3    H144166   6.790   5.437  11.829  1.7051  1.2111 -1.9998
 6657TIP3    H244167   6.665   5.521  11.828  0.2997 -0.6877  0.7983
 6658TIP3   OH244168   2.641   2.813  11.969 -0.2336 -0.1001 -0.1062
 6658TIP3    H144169   2.732   2.822  11.998 -0.0087 -0.3896 -0.7239
 6658TIP3    H244170   2.629   2.718  11.958 -0.9363 -0.1645  1.0047
 6659TIP3   OH244171   7.611   3.950  13.037  0.1604 -0.1847 -0.3034
 6659TIP3    H144172   7.519   3.975  13.033  0.1422 -0.1894  0.0495
 6659TIP3    H244173   7.614   3.881  13.104  0.4787  0.0864 -0.0345
 6660TIP3   OH244174   5.955   0.784  12.723  0.5731 -0.1955  0.3990
 6660TIP3    H144175   5.895   0.833  12.778 -0.1097 -1.0973  0.4901
 6660TIP3    H244176   6.033   0.839  12.716 -0.2878  1.0232  0.2114
 6661TIP3   OH244177   2.385   1.743  11.084  0.1387  0.4367 -0.3745
 6661TIP3    H144178   2.450   1.756  11.015  2.2283  0.9369  1.5731
 6661TIP3    H244179   2.424   1.677  11.142 -1.6534 -0.1502  0.2293
 6662TIP3   OH244180   2.901   3.083  12.593  0.0330  0.1349 -0.3327
 6662TIP3    H144181   2.849   3.054  12.518 -0.9229  1.1932 -0.1097
 6662TIP3    H244182   2.929   3.001  12.636  1.5058 -0.5116 -2.3895
 6663TIP3   OH244183   7.085   2.141  11.831  0.2298  0.8909 -0.0201
 6663TIP3    H144184   7.052   2.111  11.915 -1.1490  1.0944 -0.4571
 6663TIP3    H244185   7.116   2.230  11.847  0.2685  0.8117  0.3425
 6664TIP3   OH244186   6.065   1.145  13.140  0.4356 -0.0760 -0.6371
 6664TIP3    H144187   6.147   1.144  13.190 -0.0123  1.3023  0.1721
 6664TIP3    H244188   5.996   1.151  13.207 -0.3997 -2.0553 -1.2562
 6665TIP3   OH244189   6.143   4.110  12.097  0.0592  0.4063  0.4621
 6665TIP3    H144190   6.230   4.146  12.116 -0.4193  1.2032  1.2259
 6665TIP3    H244191   6.133   4.039  12.160  0.4191 -0.1437 -0.0838
 6666TIP3   OH244192   1.891   7.587  11.972 -0.0897 -0.4140  0.1617
 6666TIP3    H144193   1.828   7.607  12.041 -0.2791 -1.3690  0.2756
 6666TIP3    H244194   1.838   7.559  11.897  0.1824 -1.5638  0.3712
 6667TIP3   OH244195   0.332   4.506  12.285  0.0144  0.4035 -0.4576
 6667TIP3    H144196   0.390   4.480  12.357  0.1329  2.9012  0.4645
 6667TIP3    H244197   0.392   4.528  12.213  0.3981  3.3342  0.6126
 6668TIP3   OH244198   2.322   5.427  11.135  0.1824 -0.4378 -0.1661
 6668TIP3    H144199   2.376   5.366  11.185 -0.7794 -1.2741 -0.1221
 6668TIP3    H244200   2.236   5.423  11.177 -0.1983  0.0966 -0.8704
 6669TIP3   OH244201   1.546   6.749  11.404 -0.6723  0.2967  0.5784
 6669TIP3    H144202   1.495   6.692  11.347  0.9414 -0.7941  0.1701
 6669TIP3    H244203   1.500   6.746  11.488 -0.3332 -2.1261  0.7534
 6670TIP3   OH244204   0.540   0.450  11.144  0.0973  0.6877  0.2932
 6670TIP3    H144205   0.600   0.383  11.179 -0.1294  0.7827  0.8668
 6670TIP3    H244206   0.598   0.521  11.116  0.1736  1.6737  2.7383
 6671TIP3   OH244207   3.078   4.871  12.065 -0.3773 -0.4742 -0.1524
 6671TIP3    H144208   3.148   4.819  12.025  0.1034  0.3165 -0.3580
 6671TIP3    H244209   3.010   4.807  12.086  0.9438 -1.4899  1.2818
 6672TIP3   OH244210   4.279   4.084  11.168 -0.2041  0.2322  0.0311
 6672TIP3    H144211   4.359   4.041  11.198 -0.0067  1.0943  0.7802
 6672TIP3    H244212   4.274   4.064  11.074  0.8676  0.1472 -0.0123
 6673TIP3   OH244213   2.472   5.689  14.026 -0.2192  0.0059  0.5154
 6673TIP3    H144214   2.513   5.612  13.986  2.5129  2.1199 -1.0578
 6673TIP3    H244215   2.405   5.716  13.964 -2.9014 -2.2656  2.1502
 6674TIP3   OH244216   3.222   5.993  13.217 -0.4943  0.4844  0.2950
 6674TIP3    H144217   3.297   6.052  13.222 -0.3860  0.3500  0.2398
 6674TIP3    H244218   3.174   6.009  13.299 -0.7475  1.0243  0.0496
 6675TIP3   OH244219   6.274   5.793  11.192  0.2060 -0.0363 -0.3749
 6675TIP3    H144220   6.302   5.877  11.230 -1.4837  1.7293 -2.7065
 6675TIP3    H244221   6.228   5.749  11.263  0.5050  1.3489  0.7295
 6676TIP3   OH244222   4.463   6.728  12.735  0.0795 -0.2729 -0.1077
 6676TIP3    H144223   4.402   6.793  12.702  0.2395 -0.6780 -1.2686
 6676TIP3    H244224   4.438   6.647  12.690 -0.6712 -1.2383  1.9430
 6677TIP3   OH244225   1.505   4.650  10.942 -0.4477 -0.0534  0.1199
 6677TIP3    H144226   1.581   4.593  10.935  0.4616  1.1486 -0.0336
 6677TIP3    H244227   1.507   4.682  11.032 -0.4780  0.3767 -0.0305
 6678TIP3   OH244228   1.686   3.673  11.685  0.5035  0.1459  0.0147
 6678TIP3    H144229   1.652   3.612  11.620 -0.0379 -0.5854  0.9515
 6678TIP3    H244230   1.620   3.743  11.688 -1.6846 -1.7794  2.5817
 6679TIP3   OH244231   4.875   4.286  10.844 -0.1689 -0.1613 -0.6567
 6679TIP3    H144232   4.792   4.270  10.889  0.3541 -0.9136  0.0705
 6679TIP3    H244233   4.850   4.324  10.760 -1.2394 -0.2186 -0.3767
 6680TIP3   OH244234   3.572   0.412  11.591 -0.5708  0.1395  0.2909
 6680TIP3    H144235   3.549   0.323  11.565 -0.7982  0.2107  0.2471
 6680TIP3    H244236   3.636   0.441  11.526 -1.8161  0.6490 -0.7338
 6681TIP3   OH244237   6.226   2.583  11.351 -0.9036 -0.0753 -0.1207
 6681TIP3    H144238   6.163   2.511  11.342 -0.1018 -0.7474 -0.6412
 6681TIP3    H244239   6.248   2.584  11.444 -0.8506 -0.5893 -0.1213
 6682TIP3   OH244240   6.959   4.559  12.529 -0.0383 -0.3381  0.1728
 6682TIP3    H144241   7.044   4.600  12.548 -0.1452  0.1711 -0.4109
 6682TIP3    H244242   6.949   4.568  12.434 -0.6834 -0.5245  0.2213
 6683TIP3   OH244243   4.247   2.144  11.622 -0.2384  0.3469 -0.1662
 6683TIP3    H144244   4.218   2.054  11.638 -0.6780  0.7552  1.6486
 6683TIP3    H244245   4.170   2.189  11.587 -0.1272  0.1082 -0.7212
 6684TIP3   OH244246   3.352   0.587  12.585  0.2822 -0.1073 -0.2513
 6684TIP3    H144247   3.347   0.654  12.517 -1.0659 -1.3749 -1.4629
 6684TIP3    H244248   3.440   0.550  12.577  1.9447  2.9248  1.9396
 6685TIP3   OH244249   7.507   3.806  10.585  0.6257  0.1855  0.5107
 6685TIP3    H144250   7.524   3.894  10.618  0.9662 -0.6635  2.7668
 6685TIP3    H244251   7.419   3.785  10.614  1.3104 -0.9711  1.9034
 6686TIP3   OH244252   1.544   5.023  11.607 -0.1200  0.3856 -0.2486
 6686TIP3    H144253   1.461   4.976  11.611 -1.1510  2.0299 -0.9805
 6686TIP3    H244254   1.603   4.973  11.663 -1.9408 -0.1916  1.2598
 6687TIP3   OH244255   2.078   7.552  11.340  0.0675  0.3714 -0.7191
 6687TIP3    H144256   2.002   7.553  11.281  0.2418  3.0341 -1.0197
 6687TIP3    H244257   2.045   7.513  11.421 -1.8304  1.9033 -0.6759
 6688TIP3   OH244258   2.009   2.210  12.837 -0.1753 -0.0578  0.1706
 6688TIP3    H144259   1.983   2.214  12.745 -0.6613 -0.7485  0.2671
 6688TIP3    H244260   1.926   2.206  12.886  0.0740 -1.1996  0.5410
 6689TIP3   OH244261   5.116   5.844  11.523 -0.0411 -0.0196  0.6764
 6689TIP3    H144262   5.038   5.792  11.541  0.2280  0.0245  2.0644
 6689TIP3    H244263   5.186   5.780  11.513 -0.4147 -0.1436 -1.7893
 6690TIP3   OH244264   0.624   1.856  13.213  0.3592 -0.7390  0.4421
 6690TIP3    H144265   0.653   1.858  13.122  1.9443 -0.6303  0.8997
 6690TIP3    H244266   0.566   1.932  13.222  0.0726 -0.8398 -0.5081
 6691TIP3   OH244267   1.306   3.729  11.095  0.5904  0.3387 -0.2749
 6691TIP3    H144268   1.363   3.785  11.041  0.0623  0.5217 -0.6528
 6691TIP3    H244269   1.354   3.647  11.103  0.9816  0.5463 -0.4597
 6692TIP3   OH244270   4.139   2.666  10.964 -0.5502  0.3114 -0.1687
 6692TIP3    H144271   4.047   2.695  10.960 -0.7465  0.2578  2.3429
 6692TIP3    H244272   4.190   2.747  10.966 -0.5714  0.3468 -0.7469
 6693TIP3   OH244273   1.667   5.598  13.055  0.0861  0.1364 -0.3155
 6693TIP3    H144274   1.739   5.622  12.996  0.7907  1.1444  0.9205
 6693TIP3    H244275   1.709   5.547  13.124 -0.4376  0.4330  0.2287
 6694TIP3   OH244276   4.672   7.321  11.894  0.5558 -0.8156 -0.2951
 6694TIP3    H144277   4.598   7.272  11.930  0.5692 -0.6151  0.0053
 6694TIP3    H244278   4.634   7.371  11.822  0.0475  0.5706  0.9008
 6695TIP3   OH244279   5.908   4.504  11.961 -0.3918  1.1805 -0.1580
 6695TIP3    H144280   5.948   4.439  12.019 -1.1484  1.4592  0.7128
 6695TIP3    H244281   5.942   4.483  11.874  0.1369  0.2348  0.2584
 6696TIP3   OH244282   2.932   4.840  12.904 -0.6202  0.0814 -0.2932
 6696TIP3    H144283   2.873   4.913  12.886 -2.3789 -1.0906  0.3648
 6696TIP3    H244284   2.994   4.873  12.968 -0.4687  1.3841 -1.0799
 6697TIP3   OH244285   1.404   5.516  13.681  0.5916 -0.3290 -0.1006
 6697TIP3    H144286   1.421   5.434  13.635  1.1135  0.3345 -1.1191
 6697TIP3    H244287   1.414   5.584  13.614 -1.6882  0.4480  0.2553
 6698TIP3   OH244288   7.510   6.952  12.581 -0.1780 -0.3255 -0.4288
 6698TIP3    H144289   7.494   6.991  12.667  0.3369 -1.6641  0.3005
 6698TIP3    H244290   7.470   6.865  12.586  1.4664 -1.1458 -0.8729
 6699TIP3   OH244291   2.326   7.329  10.881 -0.1151  0.0928  0.5428
 6699TIP3    H144292   2.257   7.385  10.918 -0.3540 -0.3642  0.7901
 6699TIP3    H244293   2.281   7.248  10.857 -0.0213  0.4713 -1.0131
 6700TIP3   OH244294   2.720   5.700  14.195  0.1749 -0.3152 -0.0685
 6700TIP3    H144295   2.746   5.790  14.213  0.4260 -0.4693  0.3638
 6700TIP3    H244296   2.650   5.707  14.130  1.7215  0.0868 -1.7784
 6701TIP3   OH244297   1.188   1.465  12.137  0.0890 -0.4193  0.0438
 6701TIP3    H144298   1.217   1.397  12.076  0.8614  0.7375 -0.9472
 6701TIP3    H244299   1.167   1.540  12.080  0.4687  0.5724  1.1694
 6702TIP3   OH244300   6.063   4.220  12.730 -0.0062 -0.2967 -0.6200
 6702TIP3    H144301   6.042   4.261  12.813  0.1471  0.0015 -0.7298
 6702TIP3    H244302   5.988   4.240  12.674  0.7984  1.2771 -1.1982
 6703TIP3   OH244303   4.470   4.246  14.031 -0.5884 -0.1189  0.3530
 6703TIP3    H144304   4.400   4.250  14.096 -0.4668 -2.3786  0.7128
 6703TIP3    H244305   4.431   4.203  13.955  0.5984 -2.4529  0.9660
 6704TIP3   OH244306   3.856   1.342  13.420  0.2331  0.0475 -0.1330
 6704TIP3    H144307   3.806   1.410  13.375  0.1437  0.0233 -0.0707
 6704TIP3    H244308   3.789   1.285  13.458  0.3020  0.2064  0.2409
 6705TIP3   OH244309   2.629   4.420  10.983  0.0439 -0.1411  0.6808
 6705TIP3    H144310   2.711   4.433  10.936 -0.5592  0.8811 -0.1429
 6705TIP3    H244311   2.650   4.440  11.074  0.9095 -0.7527  0.6175
 6706TIP3   OH244312   5.884   6.960  11.444 -0.2081  0.1330 -0.3400
 6706TIP3    H144313   5.912   7.042  11.402  1.3128  1.0697  2.2337
 6706TIP3    H244314   5.794   6.977  11.471 -0.1870  0.6728 -0.5907
 6707TIP3   OH244315   5.601   3.858  12.321  0.1684  0.2867 -0.4016
 6707TIP3    H144316   5.531   3.796  12.300 -1.9729  2.3615  0.0679
 6707TIP3    H244317   5.554   3.938  12.346  2.7387  1.3904  1.2666
 6708TIP3   OH244318   2.688   2.958  11.735 -0.0772  0.1320  0.1190
 6708TIP3    H144319   2.604   2.984  11.773  0.8467  2.2540  0.9014
 6708TIP3    H244320   2.732   2.910  11.805 -0.2415 -0.1334  0.0428
 6709TIP3   OH244321   3.333   5.064  12.208  0.0198 -0.2297  0.5819
 6709TIP3    H144322   3.427   5.048  12.214  0.1361  0.4687  0.6860
 6709TIP3    H244323   3.313   5.058  12.115  0.8224  3.0842  0.0859
 6710TIP3   OH244324   1.992   7.284  13.175 -0.4005 -0.0028  0.4419
 6710TIP3    H144325   1.938   7.316  13.248  1.1411  0.3628  1.4659
 6710TIP3    H244326   2.062   7.349  13.168 -0.2601 -0.2958 -1.0732
 6711TIP3   OH244327   2.695   3.310  12.410 -0.3370  0.1043  0.4764
 6711TIP3    H144328   2.609   3.287  12.445  0.6450 -1.0446  2.2745
 6711TIP3    H244329   2.698   3.267  12.324 -0.6399 -2.0115  1.4686
 6712TIP3   OH244330   0.204   2.135  12.763 -0.0831  0.1839  0.1210
 6712TIP3    H144331   0.269   2.205  12.753  0.6477 -0.6139 -0.9625
 6712TIP3    H244332   0.124   2.170  12.724  0.3864  0.2742 -0.7683
 6713TIP3   OH244333   4.357   3.468  11.793  0.0138  0.2329  0.3832
 6713TIP3    H144334   4.284   3.515  11.835 -1.1866 -0.2382 -1.1047
 6713TIP3    H244335   4.385   3.526  11.722 -1.3302 -1.0999 -1.3218
 6714TIP3   OH244336   3.953   6.487  12.409  0.3811 -0.4394 -0.5919
 6714TIP3    H144337   3.867   6.514  12.378  1.5337  2.9626 -1.2725
 6714TIP3    H244338   3.935   6.430  12.483 -2.4344  0.0346 -0.7884
 6715TIP3   OH244339   2.024   4.711  12.283  0.3782 -0.5966  0.0678
 6715TIP3    H144340   1.946   4.766  12.280  1.1293  0.5815  1.1993
 6715TIP3    H244341   1.996   4.633  12.331 -0.4175 -0.7850 -0.6598
 6716TIP3   OH244342   2.929   6.900  13.014 -0.0861 -0.3781 -0.1549
 6716TIP3    H144343   2.949   6.921  12.923 -1.0083  2.2954  0.1720
 6716TIP3    H244344   3.010   6.921  13.061 -0.5404  1.2016 -0.0233
 6717TIP3   OH244345   1.933   3.526  11.640 -0.6127  0.4404 -0.1110
 6717TIP3    H144346   1.986   3.565  11.571  1.5850 -1.1398  0.5518
 6717TIP3    H244347   1.875   3.596  11.669 -1.6665  1.1444 -3.5285
 6718TIP3   OH244348   3.794   5.403  13.794  0.4415  0.4822  0.0131
 6718TIP3    H144349   3.738   5.363  13.861 -0.2078  0.3374 -0.6042
 6718TIP3    H244350   3.778   5.497  13.804 -1.6787  0.3834 -1.5987
 6719TIP3   OH244351   6.152   6.097  11.811  0.0251  0.2068  0.1228
 6719TIP3    H144352   6.133   6.190  11.799 -1.5766  0.0865  1.3183
 6719TIP3    H244353   6.112   6.055  11.734  0.1664  0.4457 -0.0844
 6720TIP3   OH244354   1.351   0.082  13.033  0.1120 -0.2843  0.0515
 6720TIP3    H144355   1.426   0.065  12.976  0.1333 -0.0135 -0.0020
 6720TIP3    H244356   1.390   0.104  13.118  0.0728 -1.0753  0.2808
 6721TIP3   OH244357   3.038   3.655  12.539 -0.3629 -0.5161  0.1079
 6721TIP3    H144358   2.943   3.641  12.541 -0.4149 -0.1513  1.0776
 6721TIP3    H244359   3.075   3.567  12.546 -0.6598 -0.5709  1.3183
 6722TIP3   OH244360   0.060   3.633  11.831 -0.2744  0.2228 -0.1077
 6722TIP3    H144361   0.082   3.620  11.923  1.6061  0.6528 -0.4464
 6722TIP3    H244362   0.112   3.567  11.785 -0.8729  0.2860 -0.8944
 6723TIP3   OH244363   7.514   7.065  13.075 -0.3556  0.0280  0.3801
 6723TIP3    H144364   7.470   7.044  12.993 -0.3412  0.8490  0.1518
 6723TIP3    H244365   7.562   6.985  13.098 -2.1830 -1.0130  0.7920
 6724TIP3   OH244366   2.526   6.022  13.150 -0.2327  0.2016  0.0544
 6724TIP3    H144367   2.516   5.928  13.164  1.0731  0.0793  0.2669
 6724TIP3    H244368   2.561   6.055  13.232 -0.3655  0.8216 -0.1354
 6725TIP3   OH244369   1.245   0.425  12.774  0.4812 -0.3399  0.4436
 6725TIP3    H144370   1.200   0.358  12.723 -0.4586  2.7679 -3.3216
 6725TIP3    H244371   1.338   0.401  12.768  0.1657 -1.3791 -0.6896
 6726TIP3   OH244372   3.506   1.885  12.662  0.1566  0.5309  0.4851
 6726TIP3    H144373   3.547   1.802  12.638 -1.1383  0.0104 -0.0254
 6726TIP3    H244374   3.521   1.893  12.756 -0.1178 -0.5320  0.6305
 6727TIP3   OH244375   5.408   0.043  11.061  0.2376 -0.1648 -0.0681
 6727TIP3    H144376   5.389  -0.037  11.109  0.4498 -0.6956 -0.8465
 6727TIP3    H244377   5.503   0.052  11.066  0.5095 -1.3070 -1.9985
 6728TIP3   OH244378   3.314   3.906  11.426  0.3011  0.1364 -0.6350
 6728TIP3    H144379   3.334   3.969  11.357 -0.5868  0.8546 -0.2691
 6728TIP3    H244380   3.264   3.838  11.383  1.6517 -0.5763 -1.1267
 6729TIP3   OH244381   4.032   2.241  11.388 -0.0163  0.1497  0.2355
 6729TIP3    H144382   4.102   2.266  11.328  0.6986 -2.0461  0.0715
 6729TIP3    H244383   3.953   2.239  11.334  0.4027 -0.5933 -0.3597
 6730TIP3   OH244384   6.544   2.871  10.854  0.0747  0.2764  0.3469
 6730TIP3    H144385   6.600   2.949  10.865  0.8585 -0.1960 -0.1888
 6730TIP3    H244386   6.573   2.833  10.771 -1.0309 -0.0063  0.0836
 6731TIP3   OH244387   3.085   0.530  11.959 -0.2711 -0.1625 -1.1687
 6731TIP3    H144388   3.075   0.568  12.046  0.3871 -2.6872  0.1004
 6731TIP3    H244389   3.003   0.552  11.914 -1.1343  0.1598  0.4971
 6732TIP3   OH244390   6.210   5.324  11.479  0.5809 -0.3956 -0.0492
 6732TIP3    H144391   6.295   5.346  11.517  1.1331 -0.1310 -1.3519
 6732TIP3    H244392   6.230   5.255  11.415  0.2914  1.4293 -2.2390
 6733TIP3   OH244393   5.325   2.009  12.078  0.1950 -0.4115  0.2760
 6733TIP3    H144394   5.338   2.082  12.139 -1.2446  0.0683  0.0322
 6733TIP3    H244395   5.321   2.050  11.992  0.7635 -0.9445 -0.0171
 6734TIP3   OH244396   2.023   5.709  11.380  0.3367  0.1741  0.3285
 6734TIP3    H144397   2.084   5.767  11.424 -0.1741  0.5270  0.5837
 6734TIP3    H244398   1.943   5.714  11.433  0.4706 -1.2164  0.7066
 6735TIP3   OH244399   1.885   0.895  12.850 -0.1931 -0.5247 -0.0600
 6735TIP3    H144400   1.920   0.982  12.866 -1.0680 -0.2210  0.2866
 6735TIP3    H244401   1.790   0.906  12.858 -0.3801 -1.2941 -1.0377
 6736TIP3   OH244402   6.612   6.131  13.111 -0.5102 -0.0268  0.0132
 6736TIP3    H144403   6.583   6.122  13.020 -0.4802  1.0897 -0.1175
 6736TIP3    H244404   6.703   6.158  13.105 -0.2336 -0.8442  0.3941
 6737TIP3   OH244405   7.399   4.100  11.887 -0.1358  0.1395  0.4152
 6737TIP3    H144406   7.458   4.156  11.837 -0.8651  0.7744  0.2453
 6737TIP3    H244407   7.328   4.079  11.827 -0.0868 -0.6379  0.6097
 6738TIP3   OH244408   1.742   2.689  13.752 -0.2787 -0.0536 -0.0512
 6738TIP3    H144409   1.693   2.771  13.751  0.1302  0.2107  0.6362
 6738TIP3    H244410   1.832   2.715  13.731 -0.3364 -0.4617 -0.8075
 6739TIP3   OH244411   1.387   4.938  13.419 -0.2645  0.3179  0.2450
 6739TIP3    H144412   1.292   4.943  13.429 -0.3632  2.0149 -1.1199
 6739TIP3    H244413   1.422   4.974  13.500 -0.6363 -3.1920  2.1649
 6740TIP3   OH244414   5.355   2.733  11.914  0.9133 -0.4347  0.0153
 6740TIP3    H144415   5.384   2.810  11.865 -1.1884  0.1684 -0.3517
 6740TIP3    H244416   5.288   2.766  11.974  1.6860 -1.5859  1.5836
 6741TIP3   OH244417   4.420   3.752  12.721  0.2375 -0.2134  0.2439
 6741TIP3    H144418   4.437   3.788  12.634  0.1404 -0.0819  0.2784
 6741TIP3    H244419   4.327   3.771  12.737 -0.2818 -2.0038 -0.4484
 6742TIP3   OH244420   0.184   0.330  12.709  0.1742  0.0649  0.1619
 6742TIP3    H144421   0.202   0.362  12.797 -2.0878  0.8767  0.3980
 6742TIP3    H244422   0.200   0.405  12.652 -0.6807  0.2584  0.1715
 6743TIP3   OH244423   0.179   5.662  11.847  0.3434  0.3992 -0.1071
 6743TIP3    H144424   0.136   5.604  11.784 -3.9847  2.1286  0.8989
 6743TIP3    H244425   0.188   5.608  11.926 -0.1651  0.0161 -0.3009
 6744TIP3   OH244426   3.016   4.250  11.032  0.2104 -0.0096 -0.1459
 6744TIP3    H144427   3.059   4.164  11.031  1.1641  0.3636 -3.0242
 6744TIP3    H244428   2.924   4.231  11.048  0.8533 -1.1933  2.6086
 6745TIP3   OH244429   5.785   3.654  11.193 -0.0619 -0.4438 -0.3429
 6745TIP3    H144430   5.764   3.646  11.286  1.9917  0.2354  0.2327
 6745TIP3    H244431   5.846   3.582  11.175  1.5374  0.8882 -0.4895
 6746TIP3   OH244432   4.379   1.201  12.341  0.1260  0.4917 -1.1380
 6746TIP3    H144433   4.332   1.284  12.330 -0.9718  0.5249  2.4917
 6746TIP3    H244434   4.311   1.137  12.361  1.2287 -0.5653 -0.6569
 6747TIP3   OH244435   2.340   6.613  13.256 -0.0848 -0.6190  0.2561
 6747TIP3    H144436   2.416   6.564  13.224 -0.2209 -0.9562  0.4391
 6747TIP3    H244437   2.378   6.686  13.305  0.1212 -0.1194 -0.6287
 6748TIP3   OH244438   1.863   3.918  12.701 -0.0101  0.2748  0.1594
 6748TIP3    H144439   1.916   3.921  12.781  1.1820 -0.5304 -0.5740
 6748TIP3    H244440   1.818   3.833  12.704 -1.4468  1.0118  0.8524
 6749TIP3   OH244441   3.963   5.877  12.551  0.3115  0.1855 -0.6881
 6749TIP3    H144442   3.947   5.957  12.500 -0.4878  0.9222  0.6702
 6749TIP3    H244443   3.918   5.808  12.502 -2.1703  1.2231 -0.0120
 6750TIP3   OH244444   4.634   4.298  11.418 -0.2531  0.4304 -0.7345
 6750TIP3    H144445   4.711   4.288  11.474  0.6207  1.9504 -1.5860
 6750TIP3    H244446   4.665   4.275  11.331 -1.0114  0.2009 -0.9521
 6751TIP3   OH244447   0.963   0.069  11.267  0.3072  0.2121  0.9709
 6751TIP3    H144448   0.980   0.050  11.359  1.9788 -0.9612  0.4630
 6751TIP3    H244449   1.041   0.114  11.236  0.5673 -1.0410 -0.3082
 6752TIP3   OH244450   6.287   0.730  11.899 -0.2330 -0.0122 -0.2670
 6752TIP3    H144451   6.230   0.722  11.975  1.6482 -0.5882  1.1532
 6752TIP3    H244452   6.316   0.641  11.880  2.3542  0.5276  0.8338
 6753TIP3   OH244453   3.036   7.189  10.906 -0.3289 -0.7226 -0.8675
 6753TIP3    H144454   2.982   7.266  10.890 -1.3456 -1.7208 -2.5881
 6753TIP3    H244455   2.987   7.138  10.971 -0.5819 -0.7626 -1.0841
 6754TIP3   OH244456   3.888   2.370  11.112  0.0401 -0.0712 -0.5749
 6754TIP3    H144457   3.825   2.395  11.179  1.3352  0.6729  0.4098
 6754TIP3    H244458   3.924   2.453  11.081  1.9282 -0.5097  0.2929
 6755TIP3   OH244459   6.448   3.215  13.537 -0.1265 -0.3411  0.2383
 6755TIP3    H144460   6.354   3.233  13.531 -0.4260 -1.4882  1.0251
 6755TIP3    H244461   6.457   3.125  13.506  0.6727 -0.3344  0.4336
 6756TIP3   OH244462   0.373   3.578  12.375  0.3070  0.6699  0.0448
 6756TIP3    H144463   0.293   3.546  12.333  0.3310  1.5855 -0.7450
 6756TIP3    H244464   0.417   3.499  12.407 -0.2103  0.0296 -0.7761
 6757TIP3   OH244465   0.834   7.242  12.271  0.2471  0.7351  0.3785
 6757TIP3    H144466   0.900   7.183  12.235 -0.5677  2.1076 -3.8245
 6757TIP3    H244467   0.809   7.200  12.354  0.8711 -3.9677 -1.4655
 6758TIP3   OH244468   0.806   6.703  11.228  0.2544 -0.0161 -0.5752
 6758TIP3    H144469   0.741   6.773  11.216  1.1002  0.8545 -0.2340
 6758TIP3    H244470   0.887   6.750  11.248  0.7907 -1.1200 -0.1155
 6759TIP3   OH244471   1.192   4.988  12.204  0.3113 -0.4388  0.1175
 6759TIP3    H144472   1.161   5.063  12.256 -0.0086 -0.2762 -0.3003
 6759TIP3    H244473   1.281   4.973  12.235  0.9965  1.1804 -0.9147
 6760TIP3   OH244474   0.966   0.937  11.358 -0.1962  0.5337  0.0853
 6760TIP3    H144475   0.965   1.025  11.321 -0.3322  0.2493 -0.6127
 6760TIP3    H244476   1.048   0.899  11.326 -0.8572 -0.1108 -0.9096
 6761TIP3   OH244477   7.325   3.858  12.799  0.3050  0.1474  0.2677
 6761TIP3    H144478   7.318   3.895  12.888  0.0306  1.4066 -0.2532
 6761TIP3    H244479   7.305   3.932  12.741  1.5246 -0.3936 -0.8846
 6762TIP3   OH244480   0.069   6.450  13.184  0.2008  0.2742  0.2842
 6762TIP3    H144481   0.015   6.390  13.133  2.1348 -0.0927 -1.4756
 6762TIP3    H244482   0.104   6.512  13.120  1.8656  0.4730  1.3175
 6763TIP3   OH244483   6.505   5.678  11.102 -0.4191  0.3977 -0.0167
 6763TIP3    H144484   6.421   5.722  11.091  0.2914  1.4278 -2.0266
 6763TIP3    H244485   6.486   5.585  11.090 -1.0237  0.7830 -2.9335
 6764TIP3   OH244486   0.464   5.469  11.948 -0.1983  0.3527 -0.2596
 6764TIP3    H144487   0.377   5.430  11.940 -0.6478  0.2062  3.5656
 6764TIP3    H244488   0.525   5.397  11.929 -0.9423 -0.1585 -0.7261
 6765TIP3   OH244489   5.560   0.967  12.548  0.0861  0.7659 -0.0898
 6765TIP3    H144490   5.500   0.925  12.487 -1.7679  0.3418  1.8790
 6765TIP3    H244491   5.621   0.898  12.574 -0.5615  0.3089  0.2468
 6766TIP3   OH244492   0.480   6.303  11.183 -0.1459  0.0604  0.2462
 6766TIP3    H144493   0.507   6.253  11.106  1.1810  0.5013  0.4030
 6766TIP3    H244494   0.395   6.266  11.207 -0.6555  0.0190 -1.5020
 6767TIP3   OH244495   4.744   1.704  13.656  0.0516  0.4730  0.1115
 6767TIP3    H144496   4.705   1.620  13.679  0.8702  0.7232  2.7685
 6767TIP3    H244497   4.804   1.684  13.584 -2.6364 -0.4192 -2.0750
 6768TIP3   OH244498   1.145   0.135  12.170 -0.7574 -0.3285  0.5053
 6768TIP3    H144499   1.223   0.092  12.204 -1.3106 -1.8388 -0.0966
 6768TIP3    H244500   1.152   0.225  12.203  1.7349 -0.1344 -0.3919
 6769TIP3   OH244501   2.434   5.898  12.562  0.3663  0.1065 -0.3385
 6769TIP3    H144502   2.464   5.952  12.489  2.2489 -0.1186  0.2217
 6769TIP3    H244503   2.474   5.937  12.640  0.2530 -1.0020  0.3072
 6770TIP3   OH244504   1.724   4.849  10.860 -0.3512  0.2339  0.2807
 6770TIP3    H144505   1.678   4.771  10.830  0.3582  0.3314 -1.1559
 6770TIP3    H244506   1.811   4.818  10.884  0.0808  0.6415 -0.7278
 6771TIP3   OH244507   1.161   4.208  10.818  0.1805 -0.1997 -0.0153
 6771TIP3    H144508   1.214   4.170  10.889 -0.8706  1.1721  1.5722
 6771TIP3    H244509   1.219   4.206  10.742  1.3105 -1.8582  0.8255
 6772TIP3   OH244510   0.281   3.809  12.829 -0.1266 -0.2256 -0.2236
 6772TIP3    H144511   0.361   3.857  12.804 -0.1060 -0.7427 -1.1815
 6772TIP3    H244512   0.307   3.717  12.830 -0.2156 -0.2696  1.4474
 6773TIP3   OH244513   1.360   2.526  11.421  0.2527  0.1770  0.2336
 6773TIP3    H144514   1.356   2.546  11.514  0.0063 -0.7721  0.4361
 6773TIP3    H244515   1.280   2.476  11.403  0.6542 -0.2898 -0.3182
 6774TIP3   OH244516   4.167   0.824  13.591 -0.8107  0.3384 -0.2106
 6774TIP3    H144517   4.214   0.893  13.639  2.1344 -1.1810 -0.6832
 6774TIP3    H244518   4.105   0.788  13.655 -1.9470  2.8856  0.2453
 6775TIP3   OH244519   1.134   2.019  11.762 -0.5746 -0.5246  0.1287
 6775TIP3    H144520   1.046   1.987  11.740 -1.0847  0.0511  1.2443
 6775TIP3    H244521   1.187   1.997  11.685 -1.6607 -0.9805 -0.5230
 6776TIP3   OH244522   4.407   5.548  12.538 -0.2518 -0.1190  0.3196
 6776TIP3    H144523   4.407   5.475  12.600  1.1820  0.6720  1.3195
 6776TIP3    H244524   4.323   5.593  12.553 -0.1016 -0.1795  1.4181
 6777TIP3   OH244525   6.027   3.587  10.959 -0.4758 -0.5174 -0.3318
 6777TIP3    H144526   5.954   3.581  11.021 -0.9771  2.0760 -0.5832
 6777TIP3    H244527   6.039   3.680  10.944 -0.5146 -0.9654 -4.3179
 6778TIP3   OH244528   4.342   2.537  11.749 -0.1150 -0.1653 -0.2144
 6778TIP3    H144529   4.267   2.537  11.690  0.0003 -1.9938 -0.4238
 6778TIP3    H244530   4.418   2.553  11.692  0.1655 -3.3659 -0.9302
 6779TIP3   OH244531   0.699   2.164  13.042 -0.2694  0.2981  0.3308
 6779TIP3    H144532   0.649   2.196  13.116 -0.4150 -1.2996  0.9740
 6779TIP3    H244533   0.633   2.126  12.983  0.0666 -0.8641  0.6822
 6780TIP3   OH244534   3.638   3.340  11.457 -0.0457 -0.1918 -0.0126
 6780TIP3    H144535   3.610   3.431  11.468  1.2130  0.0690  1.3190
 6780TIP3    H244536   3.656   3.332  11.364  0.7177  1.2110 -0.0102
 6781TIP3   OH244537   3.779   0.028  13.047 -0.3997 -0.1902 -0.2388
 6781TIP3    H144538   3.856   0.064  13.092 -0.5885 -1.2920  1.0151
 6781TIP3    H244539   3.726  -0.010  13.117 -1.0027 -1.4458 -1.3416
 6782TIP3   OH244540   4.183   4.337  10.672 -0.0721 -0.1880 -0.4669
 6782TIP3    H144541   4.226   4.403  10.726 -0.2463 -0.6378  0.2341
 6782TIP3    H244542   4.122   4.388  10.617 -2.7951  0.0321  2.4797
 6783TIP3   OH244543   4.788   0.772  11.974 -0.6205  0.1023 -0.5907
 6783TIP3    H144544   4.774   0.690  11.927  0.1919  0.3627 -1.2870
 6783TIP3    H244545   4.833   0.829  11.912  0.7718  0.3412  0.5828
 6784TIP3   OH244546   1.471   2.597  11.937  0.1592  0.1523  0.6511
 6784TIP3    H144547   1.482   2.528  12.002  0.7509  1.0618  1.5489
 6784TIP3    H244548   1.492   2.678  11.984 -1.3622  1.0549 -0.1193
 6785TIP3   OH244549   4.095   1.012  11.546  0.2732  0.1769  0.3697
 6785TIP3    H144550   4.003   0.995  11.566  0.3769 -0.1270  0.6053
 6785TIP3    H244551   4.096   1.030  11.452 -0.0482  0.3485  0.3969
 6786TIP3   OH244552   7.512   7.253  13.299 -0.3889  0.3349  0.2316
 6786TIP3    H144553   7.499   7.183  13.234 -0.6207  0.6531 -0.0683
 6786TIP3    H244554   7.604   7.243  13.326 -0.5878 -0.4783  0.6585
 6787TIP3   OH244555   0.459   0.685  12.124  0.3007  0.4541  0.3097
 6787TIP3    H144556   0.530   0.749  12.133 -1.1146  2.0249  0.6903
 6787TIP3    H244557   0.487   0.611  12.177  1.5546  1.1390  0.6423
 6788TIP3   OH244558   6.485   6.204  11.740  0.1266  0.6019 -0.2974
 6788TIP3    H144559   6.441   6.169  11.818  0.0425 -1.3245 -1.1518
 6788TIP3    H244560   6.561   6.251  11.774  0.3464 -0.5921  0.9578
 6789TIP3   OH244561   1.943   1.653  12.330 -0.6230 -0.0667  0.2011
 6789TIP3    H144562   1.869   1.640  12.389 -0.4824 -0.3489  0.3151
 6789TIP3    H244563   2.015   1.603  12.369 -0.7114 -0.8180 -0.5598
 6790TIP3   OH244564   4.590   4.370  10.898 -0.6749 -0.3168 -0.2022
 6790TIP3    H144565   4.611   4.442  10.839  0.7931 -1.1696 -0.7724
 6790TIP3    H244566   4.517   4.324  10.855 -0.7924  0.1060 -0.4596
 6791TIP3   OH244567   2.553   5.461  13.905 -0.4402 -0.1625 -0.5585
 6791TIP3    H144568   2.593   5.464  13.818 -0.9920 -1.6199 -0.8995
 6791TIP3    H244569   2.546   5.367  13.924  1.4899  0.1095  1.9175
 6792TIP3   OH244570   1.614   5.019  12.839  0.1746  0.4241 -0.2668
 6792TIP3    H144571   1.659   5.040  12.921  0.8124 -0.0679 -0.4816
 6792TIP3    H244572   1.684   4.994  12.778 -0.4578 -1.9616 -0.1349
 6793TIP3   OH244573   4.411   5.920  12.680 -0.1805 -0.1582 -0.2034
 6793TIP3    H144574   4.419   5.895  12.772 -0.9739 -2.8649 -0.7943
 6793TIP3    H244575   4.421   6.016  12.680  0.3384 -0.1380  2.6014
 6794TIP3   OH244576   4.304   3.905  13.221 -0.0014 -0.3458 -0.0661
 6794TIP3    H144577   4.242   3.936  13.288 -1.0072  1.3787 -1.6770
 6794TIP3    H244578   4.284   3.812  13.212 -0.5123 -0.4009  1.3344
 6795TIP3   OH244579   3.269   4.636  12.596 -0.0584 -0.7097 -0.1333
 6795TIP3    H144580   3.251   4.682  12.514 -2.4925 -0.3388  0.5327
 6795TIP3    H244581   3.184   4.629  12.639  1.0670 -1.2828  2.1749
 6796TIP3   OH244582   0.694   6.623  11.854 -0.0253 -0.2495  0.2562
 6796TIP3    H144583   0.664   6.698  11.906  0.8346 -0.9732  1.8715
 6796TIP3    H244584   0.770   6.656  11.807 -0.1040  0.0929  0.3632
 6797TIP3   OH244585   4.219   6.573  13.686  0.2448 -0.1004 -1.0043
 6797TIP3    H144586   4.182   6.656  13.653  1.0221  1.0140  0.7736
 6797TIP3    H244587   4.280   6.545  13.617  1.6623  2.0412 -0.7284
 6798TIP3   OH244588   7.538   3.780  12.364 -0.1154  0.6349 -0.2575
 6798TIP3    H144589   7.569   3.731  12.440  0.5383  1.5602  0.0958
 6798TIP3    H244590   7.485   3.851  12.402 -1.2872  0.0696 -0.7720
 6799TIP3   OH244591   7.439   1.489  13.344 -0.0336  0.1848  0.0893
 6799TIP3    H144592   7.482   1.471  13.428 -1.7720 -0.6517  0.8621
 6799TIP3    H244593   7.480   1.428  13.282  0.9755  0.5155  0.4184
 6800TIP3   OH244594   5.728   5.488  12.356  0.1504 -0.2393 -0.3092
 6800TIP3    H144595   5.693   5.521  12.439 -0.0541 -1.8476  0.2943
 6800TIP3    H244596   5.814   5.453  12.379  0.2447 -0.3725 -0.8541
 6801TIP3   OH244597   3.708   0.918  13.568  0.2807  0.5446  0.2970
 6801TIP3    H144598   3.676   1.003  13.537 -0.4812  1.0876  2.4105
 6801TIP3    H244599   3.793   0.907  13.525 -0.9470  0.9146 -2.3671
 6802TIP3   OH244600   7.186   6.038  12.452 -0.0932  0.3932 -0.5316
 6802TIP3    H144601   7.124   6.045  12.525  0.0156  1.0967 -0.4956
 6802TIP3    H244602   7.267   6.074  12.487  0.2036 -0.0882 -0.7270
 6803TIP3   OH244603   4.642   4.659  11.727  0.8050 -0.3802  0.0154
 6803TIP3    H144604   4.675   4.569  11.733  0.3292 -0.5527  0.1161
 6803TIP3    H244605   4.683   4.695  11.649 -0.8715 -1.4913 -1.4545
 6804TIP3   OH244606   7.663   2.605  10.850 -0.7529  0.0749  0.0347
 6804TIP3    H144607   7.681   2.514  10.827 -1.5318 -0.0365 -0.1850
 6804TIP3    H244608   7.705   2.657  10.782 -0.5032 -0.1297  0.0321
 6805TIP3   OH244609   4.834   5.699  11.108  0.3959 -0.2330 -0.7479
 6805TIP3    H144610   4.882   5.701  11.025 -0.3477 -2.2785 -1.2891
 6805TIP3    H244611   4.742   5.703  11.082  0.1622  2.4934  0.2159
 6806TIP3   OH244612   5.275   2.216  12.216 -0.1758 -0.1044 -0.4420
 6806TIP3    H144613   5.245   2.139  12.263  0.2833 -0.0298 -0.0249
 6806TIP3    H244614   5.325   2.266  12.280 -1.7729  1.3432 -0.2526
 6807TIP3   OH244615   4.584   0.043  11.798  0.3433  0.7899 -0.5210
 6807TIP3    H144616   4.667   0.035  11.752  1.7926 -1.7854  2.1519
 6807TIP3    H244617   4.518   0.020  11.734  1.9278  0.5154 -2.1256
 6808TIP3   OH244618   1.895   3.819  10.811 -0.1978  0.4921  0.8579
 6808TIP3    H144619   1.860   3.907  10.818 -1.6147  0.0142  0.2355
 6808TIP3    H244620   1.822   3.767  10.778  1.3811 -0.3968 -1.4480
 6809TIP3   OH244621   3.981   7.162  12.876 -0.6353 -0.3267 -0.3909
 6809TIP3    H144622   4.009   7.148  12.785 -0.4724 -0.8382 -0.2660
 6809TIP3    H244623   3.937   7.081  12.900  0.2820 -0.6122  0.3424
 6810TIP3   OH244624   7.349   4.843  13.054  0.1466 -0.4025  0.1028
 6810TIP3    H144625   7.340   4.906  13.126  0.5017 -1.3675  1.0176
 6810TIP3    H244626   7.263   4.802  13.047  0.2366 -0.6239  0.2812
 6811TIP3   OH244627   4.158   1.293  11.668  0.3889  0.0567 -0.0943
 6811TIP3    H144628   4.158   1.219  11.608 -1.5043 -1.6634  1.8586
 6811TIP3    H244629   4.238   1.282  11.720  1.5687  1.0569 -1.5925
 6812TIP3   OH244630   1.956   4.432  12.449  0.1478 -0.8178  0.0803
 6812TIP3    H144631   1.919   4.493  12.513 -1.8764 -1.1025 -0.7234
 6812TIP3    H244632   1.947   4.346  12.490  0.9937 -0.7960  0.3297
 6813TIP3   OH244633   6.897   6.467  11.611 -0.0845  0.1257  0.3507
 6813TIP3    H144634   6.964   6.528  11.643 -0.2419  0.6598 -0.3160
 6813TIP3    H244635   6.930   6.438  11.526 -0.2959 -0.2657  0.4028
 6814TIP3   OH244636   1.314   1.659  13.553  0.2801 -0.1858 -0.5544
 6814TIP3    H144637   1.304   1.574  13.595  2.1654 -0.3302 -0.3309
 6814TIP3    H244638   1.226   1.697  13.556 -0.2872 -1.4880  0.6760
 6815TIP3   OH244639   5.915   2.238  11.167  0.0163 -0.0995 -0.1306
 6815TIP3    H144640   5.885   2.156  11.206  1.6306 -0.6569  0.0383
 6815TIP3    H244641   5.894   2.305  11.233 -1.5236 -0.3235 -0.3745
 6816TIP3   OH244642   4.461   3.867  12.181 -0.3446 -0.4446 -0.4168
 6816TIP3    H144643   4.467   3.777  12.150  0.5194 -0.9746  1.1845
 6816TIP3    H244644   4.547   3.905  12.161 -0.0255 -0.5809  0.6663
 6817TIP3   OH244645   0.834   5.226  13.501  0.1154 -0.2130 -0.1303
 6817TIP3    H144646   0.848   5.317  13.474 -0.3237  0.5731  2.0696
 6817TIP3    H244647   0.843   5.228  13.596 -2.1399 -2.0457  0.2049
 6818TIP3   OH244648   3.160   7.235  11.640  0.3786  0.3949  0.2379
 6818TIP3    H144649   3.111   7.314  11.662 -0.0140  1.0724 -2.6313
 6818TIP3    H244650   3.250   7.266  11.628  0.6799 -0.0423  1.2946
 6819TIP3   OH244651   1.212   1.165  12.308 -0.2708 -0.1042  0.2044
 6819TIP3    H144652   1.302   1.195  12.318  0.0366 -0.5946 -1.0277
 6819TIP3    H244653   1.211   1.078  12.349 -0.0821 -0.2627 -0.1215
 6820TIP3   OH244654   6.804   5.464  10.900  0.0766  0.1135 -0.5537
 6820TIP3    H144655   6.753   5.540  10.870  1.4570  0.8812 -1.0319
 6820TIP3    H244656   6.799   5.469  10.995  2.2261  2.3343 -0.4728
 6821TIP3   OH244657   6.776   1.746  12.547  0.2473  0.4058 -0.0418
 6821TIP3    H144658   6.785   1.788  12.461 -0.8479 -0.4970 -0.6253
 6821TIP3    H244659   6.702   1.790  12.588 -1.1081 -1.0500 -0.7813
 6822TIP3   OH244660   7.217   2.726  13.210  0.3530  0.6452 -0.1895
 6822TIP3    H144661   7.263   2.694  13.132  1.4675 -0.6853  0.9610
 6822TIP3    H244662   7.253   2.813  13.225  1.1474  0.3651 -0.4028
 6823TIP3   OH244663   2.628   4.413  11.985  0.7124  1.1757  0.3956
 6823TIP3    H144664   2.541   4.390  12.018 -0.1108  1.4779 -1.4630
 6823TIP3    H244665   2.637   4.506  12.005  0.2679  1.3310 -0.1005
 6824TIP3   OH244666   3.582   7.153  19.676 -0.2011  0.8555  0.6505
 6824TIP3    H144667   3.558   7.243  19.657 -0.1167  0.9120  0.8090
 6824TIP3    H244668   3.645   7.159  19.748  0.2755  0.7049  0.2517
 6825TIP3   OH244669   4.019   4.814  12.612 -0.5149 -0.9114 -0.4314
 6825TIP3    H144670   3.935   4.770  12.596 -0.8132 -0.9730  1.1462
 6825TIP3    H244671   4.015   4.840  12.704 -0.1631  2.0220 -1.1192
 6826TIP3   OH244672   5.824   6.373  12.932 -0.0677  0.4965  0.1321
 6826TIP3    H144673   5.895   6.317  12.965 -0.5169  0.1275  0.4883
 6826TIP3    H244674   5.857   6.463  12.945  0.9003  0.3219 -0.9939
 6827TIP3   OH244675   4.994   2.420  12.686  0.3778  0.5118  0.1632
 6827TIP3    H144676   4.950   2.367  12.620 -0.3013 -0.2452  1.1896
 6827TIP3    H244677   5.083   2.385  12.690  0.2258  0.1144  0.1137
 6828TIP3   OH244678   5.171   0.856  12.724  0.1647  0.2262 -0.0154
 6828TIP3    H144679   5.161   0.919  12.654 -0.4259  0.1319 -0.0244
 6828TIP3    H244680   5.166   0.771  12.680  2.6735  0.1324 -0.2454
 6829TIP3   OH244681   6.580   6.309  12.192  0.3776 -0.1707 -0.1593
 6829TIP3    H144682   6.492   6.274  12.183 -0.3508  1.6923 -0.5186
 6829TIP3    H244683   6.608   6.329  12.103 -0.0526  2.0579  0.1529
 6830TIP3   OH244684   5.708   4.154  12.051 -0.2664  0.4334 -0.5710
 6830TIP3    H144685   5.727   4.173  11.959  0.5464  2.3566 -0.0612
 6830TIP3    H244686   5.762   4.216  12.100 -0.4498 -0.7565  1.2337
 6831TIP3   OH244687   7.374   7.061  12.816 -0.2949 -0.0659  0.0351
 6831TIP3    H144688   7.338   7.149  12.805 -0.5229 -0.0417  0.9304
 6831TIP3    H244689   7.298   7.003  12.818 -0.1873 -0.2023  0.2009
 6832TIP3   OH244690   0.092   4.559  13.073 -0.0656 -0.0782  0.1142
 6832TIP3    H144691   0.010   4.602  13.051 -1.2292 -1.5955  1.2759
 6832TIP3    H244692   0.100   4.489  13.008  0.0288 -0.2496  0.3073
 6833TIP3   OH244693   3.079   3.706  10.811  0.1342 -0.2710  0.9123
 6833TIP3    H144694   3.055   3.734  10.899 -1.3866 -1.4107  0.8939
 6833TIP3    H244695   3.024   3.630  10.794  1.2467 -0.7915 -0.5829
 6834TIP3   OH244696   2.923   3.643  12.010 -0.1150 -0.7182 -0.4005
 6834TIP3    H144697   2.987   3.655  12.081 -0.1877  0.4320 -0.5016
 6834TIP3    H244698   2.960   3.693  11.936  0.3304 -2.5042 -1.4331
 6835TIP3   OH244699   4.560   5.258  12.751 -0.5845  0.3289  0.0301
 6835TIP3    H144700   4.535   5.166  12.742  2.1604 -0.4786 -0.3263
 6835TIP3    H244701   4.557   5.274  12.846 -0.3690 -0.3455  0.1579
 6836TIP3   OH244702   5.374   2.332  13.205  0.3634 -0.1322 -0.3618
 6836TIP3    H144703   5.306   2.265  13.205  1.5773 -1.4367  0.7647
 6836TIP3    H244704   5.397   2.343  13.113 -1.1099  0.1164 -0.7346
 6837TIP3   OH244705   1.785   3.031  12.304 -0.1667  0.2189 -0.2000
 6837TIP3    H144706   1.750   3.120  12.306 -1.2231  0.0024  5.0003
 6837TIP3    H244707   1.717   2.978  12.346  2.6604 -1.8552  2.2096
 6838TIP3   OH244708   6.341   5.203  12.477 -0.1876 -0.3928  0.3805
 6838TIP3    H144709   6.275   5.148  12.433  0.9649  0.0315 -2.0366
 6838TIP3    H244710   6.392   5.142  12.529 -0.4521 -1.2513 -0.3391
 6839TIP3   OH244711   1.722   2.725  12.763  0.8424  0.3618 -0.1441
 6839TIP3    H144712   1.788   2.687  12.705  1.9274  0.5548  0.9257
 6839TIP3    H244713   1.735   2.820  12.755  0.3864  0.4211 -0.2546
 6840TIP3   OH244714   1.340   1.416  12.910  0.0962 -0.6757 -0.2459
 6840TIP3    H144715   1.330   1.390  13.002  0.2857 -2.3079 -0.6644
 6840TIP3    H244716   1.406   1.356  12.875 -0.6837 -0.7250 -1.7002
 6841TIP3   OH244717   2.899   6.134  12.963 -0.7915  0.2956  0.2223
 6841TIP3    H144718   2.832   6.202  12.961  0.5973  1.7357 -1.5814
 6841TIP3    H244719   2.872   6.072  12.895  0.1565  1.4190 -1.2376
 6842TIP3   OH244720   2.760   0.498  11.197  0.0211  0.2636 -0.1611
 6842TIP3    H144721   2.822   0.445  11.246 -0.9664 -1.4633 -0.7204
 6842TIP3    H244722   2.679   0.495  11.248 -0.0044  1.4407 -0.0888
 6843TIP3   OH244723   3.631   4.780  11.897 -0.7101 -0.3854 -0.5023
 6843TIP3    H144724   3.629   4.685  11.905  0.1185 -0.4454 -0.9150
 6843TIP3    H244725   3.710   4.806  11.945 -0.2161 -0.0292 -1.4819
 6844TIP3   OH244726   2.882   5.895  13.128 -0.0645 -0.8549  0.2953
 6844TIP3    H144727   2.877   5.987  13.102  2.0313 -0.5449  0.7956
 6844TIP3    H244728   2.936   5.896  13.208 -0.0197 -2.5175  0.3119
 6845TIP3   OH244729   2.318   4.783  11.727 -0.1266  0.0399  0.0988
 6845TIP3    H144730   2.288   4.795  11.637  0.9506  0.2538 -0.2380
 6845TIP3    H244731   2.405   4.746  11.719 -0.1140 -0.1596  1.0631
 6846TIP3   OH244732   1.037   6.266  11.829  0.1725 -0.2803  0.0651
 6846TIP3    H144733   0.981   6.191  11.846  0.8168 -0.4253  1.6641
 6846TIP3    H244734   1.108   6.231  11.776  0.4715 -0.8169  0.8049
 6847TIP3   OH244735   0.948   2.038  12.642  0.3371 -0.3082  0.1982
 6847TIP3    H144736   0.930   2.053  12.735  2.5418  0.4339  0.5688
 6847TIP3    H244737   0.904   2.110  12.597  1.6227  1.0347  0.9880
 6848TIP3   OH244738   1.202   5.894  13.005  0.1806  0.0247 -0.0173
 6848TIP3    H144739   1.157   5.829  13.059 -0.2242 -0.0193 -0.3989
 6848TIP3    H244740   1.174   5.978  13.039  0.9646  0.0145  0.6936
 6849TIP3   OH244741   5.412   3.844  11.386  0.3730 -0.2936 -0.3946
 6849TIP3    H144742   5.463   3.901  11.328  1.4254  0.3955  1.1500
 6849TIP3    H244743   5.321   3.865  11.366  0.7177  0.3405 -1.3756
 6850TIP3   OH244744   7.239   2.029  11.216 -0.5488  0.2031  0.2440
 6850TIP3    H144745   7.181   2.018  11.141 -0.3282 -1.7136  0.3119
 6850TIP3    H244746   7.181   2.049  11.289 -0.9251  0.3572 -0.0962
 6851TIP3   OH244747   4.193   6.614  12.699 -0.0151 -0.1893 -0.2701
 6851TIP3    H144748   4.129   6.656  12.641  0.7165 -0.1459 -1.0612
 6851TIP3    H244749   4.210   6.680  12.767 -0.1577  0.1268 -0.5381
 6852TIP3   OH244750   1.292   7.593  12.216  0.1219 -0.0961 -0.1470
 6852TIP3    H144751   1.350   7.520  12.236 -2.9194 -2.5368  0.4495
 6852TIP3    H244752   1.204   7.561  12.236 -1.6291  2.9529 -2.0716
 6853TIP3   OH244753   5.076   1.258  13.751 -0.3962  0.0299 -0.0310
 6853TIP3    H144754   5.051   1.349  13.766  1.0812  0.9897 -2.6832
 6853TIP3    H244755   5.152   1.245  13.808 -0.7811  0.3714  0.5644
 6854TIP3   OH244756   7.236   7.481  12.114  0.0901 -0.1136  0.3858
 6854TIP3    H144757   7.229   7.524  12.029 -1.0503 -0.4646  0.2772
 6854TIP3    H244758   7.330   7.477  12.132  0.2530  1.8175  0.1175
 6855TIP3   OH244759   7.295   0.991  11.410  0.1055  0.0160  0.4877
 6855TIP3    H144760   7.309   1.023  11.321  1.3966 -1.3290  0.1746
 6855TIP3    H244761   7.201   0.971  11.413  0.3727 -1.7813 -1.2336
 6856TIP3   OH244762   4.580   5.766  12.054 -0.3082  0.1711  0.4360
 6856TIP3    H144763   4.516   5.757  12.125  0.3213 -1.6565  0.8147
 6856TIP3    H244764   4.562   5.693  11.995  0.3447  0.6253 -0.3593
 6857TIP3   OH244765   7.034   6.035  12.716  0.5249 -0.2185 -0.2737
 6857TIP3    H144766   7.088   6.098  12.764  0.6400 -2.5127  2.9126
 6857TIP3    H244767   6.949   6.079  12.706  0.5856  0.5386  1.8918
 6858TIP3   OH244768   1.964   7.457  13.447 -0.0481  0.6374 -0.1030
 6858TIP3    H144769   2.026   7.390  13.477  1.3294  2.0793  0.3614
 6858TIP3    H244770   1.883   7.409  13.433  1.0411 -1.2454 -0.3147
 6859TIP3   OH244771   6.374   1.623  12.036  0.1541 -0.3264 -0.3100
 6859TIP3    H144772   6.388   1.567  12.111 -0.9607 -0.4732 -0.1932
 6859TIP3    H244773   6.279   1.631  12.029  0.1128 -1.8502 -2.8086
 6860TIP3   OH244774   5.779   0.228  11.168  0.1501  0.1764 -0.4247
 6860TIP3    H144775   5.699   0.249  11.217  1.2449  1.2242  0.9808
 6860TIP3    H244776   5.770   0.136  11.147  0.1001 -0.6773  2.7901
 6861TIP3   OH244777   2.269   2.835  11.903 -0.5499 -0.2885 -0.6336
 6861TIP3    H144778   2.326   2.857  11.829  0.0508 -0.9281 -0.3630
 6861TIP3    H244779   2.193   2.893  11.892  0.5365  1.2399 -0.4917
 6862TIP3   OH244780   1.725   5.669  12.599  0.1020  0.1204 -0.2943
 6862TIP3    H144781   1.631   5.653  12.602  0.2597 -0.9214 -0.4779
 6862TIP3    H244782   1.752   5.638  12.513  0.3349  2.1712 -1.0105
 6863TIP3   OH244783   0.016   7.056  12.403 -0.4800  0.1266  0.8702
 6863TIP3    H144784  -0.035   7.006  12.467 -1.1068 -0.1307  0.1874
 6863TIP3    H244785  -0.019   7.145  12.409  0.3293  0.3918  1.7716
 6864TIP3   OH244786   6.741   4.312  13.612  0.3301 -0.8725 -0.0700
 6864TIP3    H144787   6.832   4.285  13.622  1.5632  2.3129 -1.2568
 6864TIP3    H244788   6.727   4.314  13.517 -0.3825  0.2984  0.0396
 6865TIP3   OH244789   1.426   1.237  11.046 -0.4714  0.3379  1.4062
 6865TIP3    H144790   1.399   1.207  11.133 -0.2368 -2.1350  0.6846
 6865TIP3    H244791   1.377   1.182  10.985  0.4719  1.0161 -0.0229
 6866TIP3   OH244792   4.443   7.113  11.378  0.1037 -0.0923  0.0934
 6866TIP3    H144793   4.373   7.114  11.313 -1.1908 -1.9328  1.3379
 6866TIP3    H244794   4.463   7.020  11.391  1.6978  0.3221  0.9218
 6867TIP3   OH244795   4.542   7.197  10.959  0.0375 -0.3474 -0.7893
 6867TIP3    H144796   4.447   7.202  10.952  0.0878 -0.3185 -1.5010
 6867TIP3    H244797   4.560   7.103  10.970 -0.0826 -0.3328 -0.4608
 6868TIP3   OH244798   5.550   2.162  11.163 -0.6904 -0.3570 -0.1376
 6868TIP3    H144799   5.454   2.167  11.167 -0.9693 -1.9274 -2.7465
 6868TIP3    H244800   5.577   2.249  11.133 -1.5938 -0.6271 -1.9067
 6869TIP3   OH244801   1.730   4.037  10.749  0.1188 -0.3191 -0.0551
 6869TIP3    H144802   1.674   3.965  10.721  0.8174 -2.0994  2.6812
 6869TIP3    H244803   1.674   4.088  10.808  0.5050 -0.3942  0.3798
 6870TIP3   OH244804   6.679   4.515  10.833 -0.3675  0.6534 -0.6050
 6870TIP3    H144805   6.711   4.431  10.802 -3.4643 -0.6461 -0.5778
 6870TIP3    H244806   6.695   4.575  10.760  2.0521  0.1928 -0.5533
 6871TIP3   OH244807   1.513   2.510  13.353  0.3805 -0.1986 -0.1363
 6871TIP3    H144808   1.463   2.563  13.291 -0.0061 -0.2692  0.1107
 6871TIP3    H244809   1.543   2.572  13.419  0.8038 -0.1211 -0.3987
 6872TIP3   OH244810   6.166   7.575  12.383 -0.2530 -0.6105  0.9331
 6872TIP3    H144811   6.086   7.626  12.386  1.1938  1.9164 -0.3777
 6872TIP3    H244812   6.230   7.628  12.430  1.7413 -0.2946 -1.8887
 6873TIP3   OH244813   0.628   6.651  12.530 -0.1320  0.2286  0.1051
 6873TIP3    H144814   0.571   6.658  12.606  0.6421  0.9156  0.6405
 6873TIP3    H244815   0.575   6.684  12.457 -0.3743  1.0338  0.6262
 6874TIP3   OH244816   1.065   5.887  13.433 -0.1379  0.0227  0.1554
 6874TIP3    H144817   0.976   5.888  13.469  0.0659  1.2314  0.6999
 6874TIP3    H244818   1.082   5.979  13.410  0.5112 -0.3918 -1.1283
 6875TIP3   OH244819   5.426   6.359  11.357 -0.0900  0.0155 -0.2112
 6875TIP3    H144820   5.404   6.444  11.318 -2.2034  0.2861  1.3723
 6875TIP3    H244821   5.384   6.294  11.300  0.8792  0.0556 -0.9945
 6876TIP3   OH244822   3.747   2.123  11.415  0.2116 -0.0310 -0.1730
 6876TIP3    H144823   3.662   2.167  11.420  0.0011 -0.3632 -0.7876
 6876TIP3    H244824   3.746   2.061  11.488  0.2078  0.4482  0.2397
 6877TIP3   OH244825   1.208   6.621  13.060 -0.5438 -0.2268 -0.4444
 6877TIP3    H144826   1.222   6.597  12.968  0.1215  0.8281 -0.6312
 6877TIP3    H244827   1.283   6.584  13.106  0.2136  1.0009 -0.6547
 6878TIP3   OH244828   5.714   1.309  11.689  0.0358 -0.4155 -0.2865
 6878TIP3    H144829   5.761   1.336  11.610 -1.7573 -0.9223 -1.6010
 6878TIP3    H244830   5.724   1.382  11.750  1.9461 -0.2605 -0.7235
 6879TIP3   OH244831   1.559   5.122  12.518  0.4552 -0.4248  0.1461
 6879TIP3    H144832   1.491   5.178  12.481  0.5463 -0.2136  0.2907
 6879TIP3    H244833   1.568   5.152  12.608 -0.0422 -1.1979  0.4589
 6880TIP3   OH244834   3.496   7.184  10.797 -0.0217 -0.0837 -0.1501
 6880TIP3    H144835   3.570   7.151  10.746  0.6680 -0.4672  1.0488
 6880TIP3    H244836   3.515   7.157  10.887 -0.9590  0.9600  0.3911
 6881TIP3   OH244837   3.917   5.771  11.386  0.2204 -0.2817  0.3492
 6881TIP3    H144838   3.988   5.831  11.407  0.1836 -0.4112  0.8654
 6881TIP3    H244839   3.915   5.710  11.460 -1.7664  0.9537  1.3838
 6882TIP3   OH244840   1.554   7.042  12.081 -0.7265 -0.6882 -0.6206
 6882TIP3    H144841   1.540   6.975  12.147  0.6118 -0.2069  0.1912
 6882TIP3    H244842   1.619   7.005  12.022  1.4312  0.5039  0.8656
 6883TIP3   OH244843   1.856   5.422  12.310  0.0257 -0.6123 -0.7475
 6883TIP3    H144844   1.807   5.410  12.229 -0.5110 -1.0563 -0.3700
 6883TIP3    H244845   1.838   5.342  12.361 -0.0684 -0.1172  0.0202
 6884TIP3   OH244846   2.636   5.310  12.156 -0.2395  0.6021 -0.0606
 6884TIP3    H144847   2.669   5.294  12.068 -1.2081  1.6649 -0.6373
 6884TIP3    H244848   2.638   5.406  12.165 -1.6419  0.6031  0.4730
 6885TIP3   OH244849   2.035   4.423  12.013 -0.3863  0.5088 -0.1511
 6885TIP3    H144850   2.126   4.394  12.018 -0.5770 -0.1630 -0.4578
 6885TIP3    H244851   1.987   4.360  12.067 -0.8631  0.0116 -1.1338
 6886TIP3   OH244852   7.218   2.485  11.015  0.1696  0.8257 -0.3436
 6886TIP3    H144853   7.249   2.395  11.004 -0.5768  0.5626 -0.3539
 6886TIP3    H244854   7.139   2.476  11.067 -0.9999  1.2904 -1.9662
 6887TIP3   OH244855   2.273   2.976  12.766  0.4806 -0.0801 -0.0885
 6887TIP3    H144856   2.334   2.969  12.839  0.6487  1.7285 -0.0106
 6887TIP3    H244857   2.205   3.036  12.796  0.9076  1.2360 -1.5948
 6888TIP3   OH244858   0.514   1.570  11.083  0.0565  0.4855  0.1940
 6888TIP3    H144859   0.585   1.541  11.026  1.3775  0.9104  1.5486
 6888TIP3    H244860   0.450   1.610  11.024  0.5031 -0.7131 -1.1574
 6889TIP3   OH244861   5.059   3.095  12.680 -1.0237  0.1003  0.1656
 6889TIP3    H144862   5.003   3.133  12.749 -1.4746  0.1097 -0.1973
 6889TIP3    H244863   5.138   3.067  12.726 -1.5599 -0.4335  0.7954
 6890TIP3   OH244864   0.251   3.287  10.940 -0.2389  0.7258  0.1976
 6890TIP3    H144865   0.179   3.328  10.988  0.3134  1.8181  0.1209
 6890TIP3    H244866   0.241   3.319  10.850 -0.6496 -0.4747 -0.2055
 6891TIP3   OH244867   6.406   2.675  12.380  0.3130 -0.1700 -0.1376
 6891TIP3    H144868   6.324   2.635  12.410  0.1506  1.0795  1.2305
 6891TIP3    H244869   6.470   2.603  12.383 -0.4505 -0.8655  0.0183
 6892TIP3   OH244870   1.071   6.677  12.703 -0.2675  0.0732 -0.2422
 6892TIP3    H144871   0.985   6.714  12.684  0.4950  1.3813 -1.3358
 6892TIP3    H244872   1.053   6.588  12.732 -2.0477  0.6312  0.5006
 6893TIP3   OH244873   2.831   1.934  12.904  0.2735  0.8153  0.0287
 6893TIP3    H144874   2.888   1.915  12.978  1.6697  2.9795 -0.4020
 6893TIP3    H244875   2.744   1.910  12.934  1.3711 -3.9080  0.2771
 6894TIP3   OH244876   5.698   2.116  12.953  0.3611 -0.0474  0.6048
 6894TIP3    H144877   5.763   2.064  13.001 -0.8353 -0.1833  2.1285
 6894TIP3    H244878   5.614   2.078  12.978 -0.3314 -1.3690 -3.0635
 6895TIP3   OH244879   3.811   2.217  11.804 -0.0399  0.2343  0.2782
 6895TIP3    H144880   3.787   2.143  11.748  1.3881  0.5990 -0.8715
 6895TIP3    H244881   3.785   2.189  11.892 -1.7874 -0.5952 -0.4618
 6896TIP3   OH244882   1.367   4.975  11.913  0.5577 -0.4282 -0.4846
 6896TIP3    H144883   1.373   4.881  11.930  3.6124 -0.3873 -0.9483
 6896TIP3    H244884   1.280   4.999  11.947  0.6177 -2.9623  1.7951
 6897TIP3   OH244885   5.581   2.709  11.738  0.4677 -0.2954 -0.3081
 6897TIP3    H144886   5.538   2.688  11.655  0.8801  1.3242 -0.9678
 6897TIP3    H244887   5.523   2.774  11.779  0.8718 -0.1975  0.1110
 6898TIP3   OH244888   3.532   3.506  13.228 -0.3119  0.1596  0.3549
 6898TIP3    H144889   3.554   3.478  13.317 -2.0517  0.4744  0.9376
 6898TIP3    H244890   3.483   3.588  13.240  1.0688  1.2641 -1.0407
 6899TIP3   OH244891   7.506   1.412  12.043 -0.4186  0.5879  0.1937
 6899TIP3    H144892   7.501   1.488  11.986 -0.0055  0.8053  0.4414
 6899TIP3    H244893   7.424   1.413  12.093  0.1330  1.6159  1.1158
 6900TIP3   OH244894   1.070   4.429  13.707 -0.3617 -0.3251  0.4239
 6900TIP3    H144895   0.984   4.394  13.728 -0.7193  0.9004  1.0469
 6900TIP3    H244896   1.130   4.385  13.768 -0.6304 -0.6758  0.4371
 6901TIP3   OH244897   5.985   2.868  12.065  0.4206  0.0098  0.1709
 6901TIP3    H144898   6.078   2.847  12.055 -0.0565 -1.2878 -2.1224
 6901TIP3    H244899   5.945   2.787  12.094 -0.1122  0.3895  0.5259
 6902TIP3   OH244900   4.715   0.565  11.254 -0.0762 -0.3763  0.1281
 6902TIP3    H144901   4.710   0.621  11.176  1.7245 -0.4838 -0.1026
 6902TIP3    H244902   4.737   0.625  11.325  1.2870 -0.6783 -0.0164
 6903TIP3   OH244903   3.081   3.959  10.976  0.5971 -0.4460  0.4090
 6903TIP3    H144904   3.091   3.927  10.886 -1.4667  1.4471 -0.5851
 6903TIP3    H244905   3.001   3.917  11.008 -0.7380  1.6291 -0.0253
 6904TIP3   OH244906   1.990   0.474  11.021 -0.5285 -0.2355 -0.1948
 6904TIP3    H144907   2.035   0.495  10.939  1.0654 -2.9335 -0.1553
 6904TIP3    H244908   2.049   0.506  11.090 -1.0385  0.5065 -0.0944
 6905TIP3   OH244909   1.306   3.500  12.651 -0.0867  0.2751 -0.5183
 6905TIP3    H144910   1.284   3.570  12.590 -1.2394  0.0396 -0.4016
 6905TIP3    H244911   1.287   3.537  12.737 -1.3337 -0.3839 -0.4938
 6906TIP3   OH244912   1.505   2.210  11.344 -0.2553 -0.3417 -0.5076
 6906TIP3    H144913   1.507   2.293  11.393 -0.8574 -0.1090 -0.8725
 6906TIP3    H244914   1.534   2.234  11.256 -0.9968 -0.4034 -0.7760
 6907TIP3   OH244915   1.826   4.999  12.678  0.3491  0.1751 -0.1725
 6907TIP3    H144916   1.887   4.979  12.750 -0.5306 -0.7082  0.3433
 6907TIP3    H244917   1.883   5.020  12.604  1.2994 -1.3227  0.0955
 6908TIP3   OH244918   5.397   2.950  11.766 -0.3233 -0.0760  0.3201
 6908TIP3    H144919   5.331   3.017  11.783  0.1270  0.2261  0.8995
 6908TIP3    H244920   5.473   2.999  11.735 -0.9231 -0.5539 -2.0962
 6909TIP3   OH244921   2.968   1.606  12.108  0.0408 -0.2393 -0.3207
 6909TIP3    H144922   2.969   1.695  12.143  0.0319  0.7123 -2.5784
 6909TIP3    H244923   3.038   1.561  12.156 -0.5673  0.6634  1.5143
 6910TIP3   OH244924   7.079   1.545  12.600 -0.1649  0.1897 -0.6087
 6910TIP3    H144925   6.990   1.555  12.634  0.0313  2.9177 -0.6638
 6910TIP3    H244926   7.076   1.585  12.513  1.0005 -0.1473 -0.8191
 6911TIP3   OH244927   2.122   1.770  13.566 -0.4197 -0.0444 -0.4604
 6911TIP3    H144928   2.027   1.758  13.576 -0.3951  0.4845  0.4986
 6911TIP3    H244929   2.148   1.818  13.644  0.8820 -1.4646  0.0223
 6912TIP3   OH244930   7.542   7.065  11.756  0.5768 -0.1433  0.5277
 6912TIP3    H144931   7.605   7.079  11.827  0.4934 -1.9097  0.9997
 6912TIP3    H244932   7.518   6.972  11.764  2.4679 -1.1898 -3.3352
 6913TIP3   OH244933   7.557   2.178  10.967  0.4263 -0.1468  0.2760
 6913TIP3    H144934   7.631   2.215  11.014  0.6121  1.2461 -1.0210
 6913TIP3    H244935   7.563   2.216  10.879 -0.2464 -2.1477 -0.7058
 6914TIP3   OH244936   4.887   7.247  11.451 -0.3235 -0.4853  0.5705
 6914TIP3    H144937   4.939   7.217  11.376 -0.0544  2.0234 -0.3272
 6914TIP3    H244938   4.856   7.166  11.491  0.1658 -1.9608 -1.7837
 6915TIP3   OH244939   5.728   4.729  12.936  0.8125  0.1435  0.0491
 6915TIP3    H144940   5.782   4.781  12.996  1.5996  1.1940 -1.5138
 6915TIP3    H244941   5.754   4.758  12.849 -0.6809 -0.9679 -0.8092
 6916TIP3   OH244942   1.783   4.357  13.415  1.2632 -0.5735 -0.0691
 6916TIP3    H144943   1.845   4.308  13.360  1.4627 -0.2510 -0.1390
 6916TIP3    H244944   1.835   4.431  13.448  1.0632 -0.6126  0.3253
 6917TIP3   OH244945   0.267   6.184  10.915 -0.1757  0.0704  0.3169
 6917TIP3    H144946   0.230   6.127  10.982  1.3823 -0.4814  0.7490
 6917TIP3    H244947   0.200   6.187  10.846 -0.6866 -1.5158  0.7098
 6918TIP3   OH244948   6.495   1.277  12.767  0.5842  0.1513  0.8792
 6918TIP3    H144949   6.553   1.289  12.691 -0.7912 -0.6607 -0.3499
 6918TIP3    H244950   6.492   1.363  12.809 -0.2963  1.2373 -1.2404
 6919TIP3   OH244951   0.128   4.883  13.064  0.0962  0.0760 -0.0428
 6919TIP3    H144952   0.063   4.815  13.046 -1.4535  1.2748  0.7873
 6919TIP3    H244953   0.093   4.931  13.139  1.9154  0.8369  0.3896
 6920TIP3   OH244954   5.521   3.969  11.137  0.3522 -0.4564  0.2630
 6920TIP3    H144955   5.588   4.035  11.151  1.8828 -2.0526  0.8586
 6920TIP3    H244956   5.468   4.003  11.065  1.6707  0.9489 -0.0890
 6921TIP3   OH244957   6.999   1.440  11.697  0.5298 -0.1467 -0.1613
 6921TIP3    H144958   7.034   1.355  11.724 -0.9832 -0.2077  1.8019
 6921TIP3    H244959   7.015   1.498  11.771 -1.1967  0.4604 -0.2077
 6922TIP3   OH244960   1.256   0.808  13.436 -0.1093 -0.2005  0.3488
 6922TIP3    H144961   1.279   0.881  13.494  0.4662 -0.7512  0.8278
 6922TIP3    H244962   1.192   0.758  13.487 -0.3299 -0.1641  0.1102
 6923TIP3   OH244963   2.519   4.436  11.706  0.5657  0.1628 -0.4364
 6923TIP3    H144964   2.581   4.396  11.768 -0.4100  0.3074  0.6725
 6923TIP3    H244965   2.443   4.378  11.707  1.4347 -1.2398 -3.4676
 6924TIP3   OH244966   1.637   4.367  11.378  0.1000  0.1565  0.3415
 6924TIP3    H144967   1.581   4.434  11.338 -2.1269 -0.9246  1.4631
 6924TIP3    H244968   1.637   4.388  11.471  2.5174  0.7370  0.2727
 6925TIP3   OH244969   7.595   1.927  12.049 -0.7195  0.2485 -1.1182
 6925TIP3    H144970   7.639   1.917  12.133  0.7171  1.9945 -1.6117
 6925TIP3    H244971   7.626   1.852  11.997 -1.2624 -0.5854 -0.2800
 6926TIP3   OH244972   3.452   0.836  11.749 -0.3322  0.1257  0.1307
 6926TIP3    H144973   3.360   0.865  11.750 -0.4572 -0.1563  2.2747
 6926TIP3    H244974   3.482   0.851  11.839  1.7315  0.1863 -0.5279
 6927TIP3   OH244975   6.488   5.008  11.191 -0.4267 -0.0401  0.2443
 6927TIP3    H144976   6.506   4.992  11.098 -0.2436  2.7054 -0.2876
 6927TIP3    H244977   6.467   4.922  11.227  0.2319 -1.2965 -2.1655
 6928TIP3   OH244978   0.032   6.040  10.788 -0.0590  0.5779 -0.0327
 6928TIP3    H144979   0.088   5.962  10.788  0.5931  1.0328 -0.1956
 6928TIP3    H244980  -0.043   6.016  10.734 -0.7861 -0.5611  1.4321
 6929TIP3   OH244981   2.060   0.140  12.230 -0.4520 -0.3964 -0.5328
 6929TIP3    H144982   1.998   0.089  12.282 -0.2635  0.7266  0.8691
 6929TIP3    H244983   2.043   0.231  12.256  0.5916  0.0758 -1.4467
 6930TIP3   OH244984   1.801   6.490  13.324 -0.1499 -0.2132  0.0045
 6930TIP3    H144985   1.881   6.442  13.346  0.1598 -0.4752 -1.5689
 6930TIP3    H244986   1.744   6.478  13.400  0.3096 -2.2386  0.0735
 6931TIP3   OH244987   2.666   1.541  12.979 -0.1367 -0.9109  0.4652
 6931TIP3    H144988   2.598   1.476  12.966 -0.2267 -1.0138  1.4039
 6931TIP3    H244989   2.745   1.500  12.944 -0.5061 -0.8425 -0.5029
 6932TIP3   OH244990   1.307   4.143  11.053 -0.3931 -0.2718 -0.0270
 6932TIP3    H144991   1.322   4.222  11.105 -0.0651 -0.6218  0.4136
 6932TIP3    H244992   1.242   4.094  11.103 -2.1576  0.6449 -1.2924
 6933TIP3   OH244993   3.491   2.429  11.137 -0.2468 -0.2543  0.1347
 6933TIP3    H144994   3.484   2.357  11.073  0.8242 -2.3160  2.1666
 6933TIP3    H244995   3.453   2.393  11.217  0.4267  1.4169  1.2536
 6934TIP3   OH244996   2.233   3.380  12.843  0.0794  0.1101  0.6074
 6934TIP3    H144997   2.299   3.320  12.808  1.3417  1.6993  0.0913
 6934TIP3    H244998   2.258   3.393  12.934  0.1611  0.2873  0.5609
 6935TIP3   OH244999   4.276   5.830  13.209 -0.2566  0.3015  0.0753
 6935TIP3    H145000   4.336   5.898  13.179 -1.7855  1.0932 -1.3348
 6935TIP3    H245001   4.331   5.751  13.217  1.0097  1.0501 -0.8816
 6936TIP3   OH245002   4.631   4.154  12.956 -0.5085 -0.3742  0.3380
 6936TIP3    H145003   4.648   4.157  12.861 -0.7047  0.3810  0.3266
 6936TIP3    H245004   4.536   4.145  12.963 -0.5705  0.3806  0.4744
 6937TIP3   OH245005   4.570   6.654  11.781 -0.4616 -0.3467 -0.0456
 6937TIP3    H145006   4.555   6.747  11.796 -0.1491 -0.3673  0.4013
 6937TIP3    H245007   4.655   6.650  11.739  0.1752 -0.5204  1.2103
 6938TIP3   OH245008   2.714   2.581  11.774 -0.8107  0.0305  0.3276
 6938TIP3    H145009   2.713   2.561  11.867  1.1493 -0.6030  0.2599
 6938TIP3    H245010   2.631   2.547  11.741 -1.5846  0.3873  1.8471
 6939TIP3   OH245011   4.725   1.658  11.502 -0.2331 -0.1662  0.0090
 6939TIP3    H145012   4.796   1.715  11.532  0.2979  0.1055 -1.6986
 6939TIP3    H245013   4.758   1.617  11.422 -2.0620  0.0938 -0.9327
 6940TIP3   OH245014   2.712   0.661  12.032  0.2394 -0.1962  0.0261
 6940TIP3    H145015   2.750   0.573  12.032  0.1621 -0.2627 -1.8418
 6940TIP3    H245016   2.645   0.657  12.100  1.4436 -1.0056  1.2420
 6941TIP3   OH245017   6.505   6.893  12.362  0.6001  0.2917 -0.0629
 6941TIP3    H145018   6.535   6.815  12.409 -0.3396 -1.6747 -2.4765
 6941TIP3    H245019   6.571   6.907  12.294 -0.5111 -0.0484 -1.2646
 6942TIP3   OH245020   4.827   6.186  11.758  0.3080  0.6524 -0.0572
 6942TIP3    H145021   4.792   6.113  11.708 -1.3691  1.5186 -0.1923
 6942TIP3    H245022   4.902   6.149  11.804  0.4611 -0.7463 -1.3482
 6943TIP3   OH245023   2.791   5.005  12.020 -0.5045 -0.2317  0.4191
 6943TIP3    H145024   2.729   4.954  12.071  0.1936 -1.6605 -0.0942
 6943TIP3    H245025   2.867   5.014  12.077 -0.6262  0.2447  0.5080
 6944TIP3   OH245026   5.389   2.976  12.522 -0.2281  0.3097  0.2029
 6944TIP3    H145027   5.378   2.881  12.516 -0.9299  0.4378 -0.8588
 6944TIP3    H245028   5.321   3.012  12.464  0.8055  1.4257 -0.3631
 6945TIP3   OH245029   5.460   1.983  12.959  0.2695  0.2560 -0.3849
 6945TIP3    H145030   5.401   1.958  13.031 -0.9254  0.7069 -1.1685
 6945TIP3    H245031   5.412   1.957  12.880  2.1118 -1.4484 -1.0327
 6946TIP3   OH245032   3.433   3.764  12.683  0.2873  0.3730  0.5348
 6946TIP3    H145033   3.422   3.712  12.762  0.4430 -1.0471 -0.3362
 6946TIP3    H245034   3.517   3.809  12.695  0.4341 -0.0373  1.0478
 6947TIP3   OH245035   2.098   0.244  12.572 -0.0055 -0.1890  0.1997
 6947TIP3    H145036   2.052   0.292  12.642  1.4216 -0.6143  1.4874
 6947TIP3    H245037   2.032   0.186  12.535 -0.8252  0.1272  1.1297
 6948TIP3   OH245038   4.130   2.556  11.543 -0.3400  0.7113 -0.5587
 6948TIP3    H145039   4.107   2.563  11.450  1.1519 -0.6276 -1.0964
 6948TIP3    H245040   4.070   2.489  11.577  0.4945 -0.3709 -1.1304
 6949TIP3   OH245041   0.576   7.366  12.432 -0.5613 -0.2953  0.2582
 6949TIP3    H145042   0.480   7.372  12.436 -0.7024 -1.6141 -0.4195
 6949TIP3    H245043   0.602   7.436  12.372 -1.2395 -0.7374 -0.5790
 6950TIP3   OH245044   2.678   1.657  11.500 -0.0139  0.5632  0.0996
 6950TIP3    H145045   2.659   1.610  11.581  0.4100 -0.5821 -0.4392
 6950TIP3    H245046   2.704   1.744  11.528 -1.9235  0.8730  1.0689
 6951TIP3   OH245047   0.792   0.229  11.604 -0.4326  0.4544 -0.2882
 6951TIP3    H145048   0.883   0.226  11.573  0.6483  1.3945  2.4967
 6951TIP3    H245049   0.782   0.149  11.656 -0.2529  1.6056  1.6118
 6952TIP3   OH245050   0.264   0.625  11.685 -0.1162  0.2116 -0.1153
 6952TIP3    H145051   0.245   0.533  11.700  0.8172 -0.0397 -0.4106
 6952TIP3    H245052   0.348   0.641  11.728  1.9571 -0.2022 -3.5830
 6953TIP3   OH245053   7.174   7.483  11.422  0.0231 -0.3296 -0.2118
 6953TIP3    H145054   7.132   7.399  11.439  0.8570 -0.9581 -1.0980
 6953TIP3    H245055   7.268   7.466  11.436  0.1475  0.6244  0.2143
 6954TIP3   OH245056   4.306   2.706  11.322 -0.0288  0.1035  0.7740
 6954TIP3    H145057   4.376   2.719  11.257 -0.6047 -0.4612  0.0370
 6954TIP3    H245058   4.280   2.795  11.346 -0.5545  0.3391 -0.5829
 6955TIP3   OH245059   1.432   7.477  11.563  0.0750 -0.4074 -0.1183
 6955TIP3    H145060   1.471   7.506  11.645  1.6040 -1.1438 -0.5378
 6955TIP3    H245061   1.466   7.388  11.550 -3.4642 -2.0316  0.5203
 6956TIP3   OH245062   2.140   0.853  12.717 -0.1969  0.2627  0.0592
 6956TIP3    H145063   2.146   0.906  12.637  0.4292 -0.5010 -0.4178
 6956TIP3    H245064   2.046   0.850  12.736 -0.3047  0.9313 -0.3150
 6957TIP3   OH245065   0.888   0.520  11.373 -0.1164  0.2201  0.2435
 6957TIP3    H145066   0.911   0.548  11.285 -1.8096 -2.5818 -1.2310
 6957TIP3    H245067   0.799   0.554  11.386  0.2990  1.0176  1.1002
 6958TIP3   OH245068   1.465   5.213  11.808  0.1663  0.2727 -0.0419
 6958TIP3    H145069   1.529   5.172  11.750 -1.1715  0.7850 -1.9950
 6958TIP3    H245070   1.422   5.141  11.853  3.1015 -0.0383  2.5619
 6959TIP3   OH245071   6.199   5.027  12.335  0.0834 -0.2498 -0.4601
 6959TIP3    H145072   6.216   4.992  12.248 -0.0530 -2.5578  0.3923
 6959TIP3    H245073   6.135   4.967  12.374  3.3010 -1.9677  2.7851
 6960TIP3   OH245074   4.077   3.523  11.109 -0.2509 -0.3364  0.3678
 6960TIP3    H145075   4.043   3.592  11.053  2.9769  0.7168 -0.4934
 6960TIP3    H245076   4.076   3.560  11.197 -1.5630 -0.5005  0.4519
 6961TIP3   OH245077   1.921   3.620  12.298 -0.0373  0.3354  0.0935
 6961TIP3    H145078   1.990   3.683  12.319  1.2049 -0.5221 -1.2203
 6961TIP3    H245079   1.915   3.565  12.376  2.1011 -0.7113 -0.4060
 6962TIP3   OH245080   6.237   2.219  12.954 -0.0687 -0.1207  0.0860
 6962TIP3    H145081   6.170   2.284  12.976  1.0699  1.1053 -0.0108
 6962TIP3    H245082   6.261   2.181  13.038 -0.4245 -0.1209  0.1917
 6963TIP3   OH245083   5.595   2.019  11.867  0.6820  0.6733 -0.4628
 6963TIP3    H145084   5.608   1.926  11.885 -0.4148  0.2600 -1.6574
 6963TIP3    H245085   5.580   2.059  11.953  1.5392 -0.1797  0.0957
 6964TIP3   OH245086   5.695   3.000  10.848 -0.4175 -0.3039  0.2067
 6964TIP3    H145087   5.608   3.000  10.889 -0.7930 -0.0922 -0.5754
 6964TIP3    H245088   5.678   3.016  10.756  0.5074  0.4980  0.1612
 6965TIP3   OH245089   6.056   7.177  11.686  0.0450  0.1735 -0.7009
 6965TIP3    H145090   5.985   7.153  11.626 -0.5692 -0.0628  0.1109
 6965TIP3    H245091   6.114   7.233  11.633 -0.3197 -0.2753 -1.6010
 6966TIP3   OH245092   2.823   1.890  11.039  0.3232  0.0904 -0.1824
 6966TIP3    H145093   2.864   1.976  11.030 -2.0346  1.2517 -0.5222
 6966TIP3    H245094   2.778   1.893  11.123 -0.2111 -0.6150 -0.4299
 6967TIP3   OH245095   0.007   4.493  12.673 -0.1039  0.0080 -0.2909
 6967TIP3    H145096   0.048   4.449  12.748 -0.5498 -1.9393 -1.1167
 6967TIP3    H245097   0.075   4.551  12.639  0.3901  0.2649  1.0767
 6968TIP3   OH245098   5.383   6.302  12.058  0.2423 -0.3579  0.1455
 6968TIP3    H145099   5.451   6.244  12.091  0.6772 -0.0805 -0.2535
 6968TIP3    H245100   5.301   6.262  12.088  0.4988 -1.5107 -0.6251
 6969TIP3   OH245101   0.009   1.712  12.279  0.0535  0.0147 -0.5395
 6969TIP3    H145102   0.024   1.618  12.271 -0.6986  0.0017 -2.2159
 6969TIP3    H245103   0.097   1.751  12.280  0.3797 -0.7204  0.6881
 6970TIP3   OH245104   6.770   3.101  12.032 -0.0329  0.3457 -0.1774
 6970TIP3    H145105   6.682   3.086  11.998 -0.0447  2.1050 -1.0470
 6970TIP3    H245106   6.808   3.165  11.973  1.3947  0.5496  0.9020
 6971TIP3   OH245107   6.994   3.380  13.623  0.2515  0.1988 -0.1606
 6971TIP3    H145108   6.979   3.460  13.573  0.9591  1.5055  1.6217
 6971TIP3    H245109   7.089   3.371  13.627  0.2080  0.0867  0.8915
 6972TIP3   OH245110   6.782   1.981  12.394 -0.2022 -0.3655  0.6949
 6972TIP3    H145111   6.771   1.993  12.488 -0.6332  2.5002  0.3578
 6972TIP3    H245112   6.726   2.047  12.354 -0.0715 -1.5397 -1.5995
 6973TIP3   OH245113   5.174   3.517  11.884 -0.4795 -0.5407  0.5191
 6973TIP3    H145114   5.125   3.598  11.898 -1.1011 -0.7459 -0.3617
 6973TIP3    H245115   5.124   3.450  11.932 -1.7398 -0.9590 -1.2944
 6974TIP3   OH245116   1.556   4.245  13.756 -0.3764 -0.3555  0.1125
 6974TIP3    H145117   1.568   4.337  13.781 -0.0530 -0.5742  0.7870
 6974TIP3    H245118   1.631   4.200  13.795 -1.0141 -1.0468  0.5655
 6975TIP3   OH245119   7.544   6.719  11.542 -0.0219 -0.3476 -0.2238
 6975TIP3    H145120   7.529   6.628  11.566 -0.1856 -1.2090 -3.2123
 6975TIP3    H245121   7.626   6.718  11.493 -0.8437  0.8223 -1.6862
 6976TIP3   OH245122   2.537   1.502  12.492  0.2288  0.1533  0.3245
 6976TIP3    H145123   2.548   1.411  12.465 -0.8239  0.4176 -1.0981
 6976TIP3    H245124   2.539   1.551  12.410  0.9071  1.4470  1.0770
 6977TIP3   OH245125   3.915   6.122  12.842  0.2001 -0.1168 -0.3457
 6977TIP3    H145126   3.866   6.054  12.890 -0.9368 -0.0852 -1.4114
 6977TIP3    H245127   3.882   6.204  12.877  0.0399 -0.1009 -0.5339
 6978TIP3   OH245128   0.633   5.198  12.729 -0.4621 -0.1581 -0.2208
 6978TIP3    H145129   0.554   5.251  12.726  1.3619  2.8568 -4.1655
 6978TIP3    H245130   0.694   5.249  12.782  0.3577  0.2599 -1.5115
 6979TIP3   OH245131   2.746   2.140  12.734 -0.2272  0.4403 -0.3551
 6979TIP3    H145132   2.762   2.087  12.813 -0.2997  1.3139  0.2544
 6979TIP3    H245133   2.803   2.101  12.668  0.1750 -0.0246  0.2501
 6980TIP3   OH245134   5.163   4.150  10.831 -0.6843 -0.3629  0.2488
 6980TIP3    H145135   5.067   4.149  10.828 -0.6643 -1.0461 -1.8573
 6980TIP3    H245136   5.187   4.237  10.800 -0.6047 -0.1360  0.9274
 6981TIP3   OH245137   2.936   6.490  10.970  0.0176 -0.7387 -0.0572
 6981TIP3    H145138   2.967   6.426  11.034 -0.0890 -1.0516 -0.3207
 6981TIP3    H245139   2.910   6.566  11.023  0.4979 -0.7685  0.2231
 6982TIP3   OH245140   5.465   5.896  11.598 -0.8071 -0.0512 -0.7037
 6982TIP3    H145141   5.420   5.815  11.574 -0.9386  0.0809 -0.9110
 6982TIP3    H245142   5.435   5.960  11.533  0.3804 -0.1782 -1.4069
 6983TIP3   OH245143   4.943   5.188  13.123 -0.4256  0.8683  0.6682
 6983TIP3    H145144   4.860   5.222  13.157 -0.6707 -0.0371  0.9941
 6983TIP3    H245145   4.990   5.158  13.200 -0.5472 -0.2468  0.3264
 6984TIP3   OH245146   3.734   0.586  11.206  0.1679 -0.1944  0.3538
 6984TIP3    H145147   3.763   0.540  11.285  0.4957 -1.4950 -0.4998
 6984TIP3    H245148   3.726   0.677  11.234  2.2545 -0.2579  1.3858
 6985TIP3   OH245149   4.739   0.724  12.406  0.4094  0.1822 -0.2661
 6985TIP3    H145150   4.666   0.677  12.447  0.2649  0.3645 -0.3155
 6985TIP3    H245151   4.799   0.744  12.478  1.0764 -1.1696 -0.4128
 6986TIP3   OH245152   7.237   0.241  12.653  1.0710  0.3983 -0.0525
 6986TIP3    H145153   7.168   0.201  12.706  0.4392  1.3154 -0.1712
 6986TIP3    H245154   7.313   0.243  12.711  0.2287  1.9512  1.0771
 6987TIP3   OH245155   0.661   0.791  12.856  0.7261 -0.3116  0.2216
 6987TIP3    H145156   0.663   0.833  12.770  0.6730 -2.5347 -0.9523
 6987TIP3    H245157   0.703   0.853  12.915  0.8845  1.2178 -1.4376
 6988TIP3   OH245158   5.792   6.310  12.667 -0.2318 -0.2693 -0.6124
 6988TIP3    H145159   5.815   6.348  12.752  0.0692 -0.9860 -0.3633
 6988TIP3    H245160   5.871   6.264  12.640 -1.5397 -3.5639  0.6726
 6989TIP3   OH245161   1.486   5.365  10.708  0.0882  0.6439  0.1473
 6989TIP3    H145162   1.539   5.290  10.736 -0.9137 -0.4254 -0.6964
 6989TIP3    H245163   1.417   5.372  10.774  0.2483  0.9004  0.2888
 6990TIP3   OH245164   4.373   1.236  11.817 -0.1113 -0.1560 -0.0042
 6990TIP3    H145165   4.409   1.312  11.862 -0.9430 -0.4440  1.1700
 6990TIP3    H245166   4.448   1.177  11.805  0.5410  0.8286 -0.9424
 6991TIP3   OH245167   3.096   6.572  12.652  0.3488 -0.4020 -0.3397
 6991TIP3    H145168   3.161   6.510  12.685  0.2696 -0.5557 -0.4723
 6991TIP3    H245169   3.015   6.546  12.694  0.9912  2.0297  2.7870
 6992TIP3   OH245170   7.145   3.914  11.543  0.3332 -0.1058  0.0276
 6992TIP3    H145171   7.118   4.002  11.516  0.8271 -0.1175 -0.4975
 6992TIP3    H245172   7.239   3.921  11.557  0.1434 -0.1625  1.5077
 6993TIP3   OH245173   5.768   7.606  13.283  0.1497 -0.3960 -0.1105
 6993TIP3    H145174   5.798   7.695  13.298 -0.2675 -0.4302  1.0317
 6993TIP3    H245175   5.848   7.557  13.262  0.2512  0.4318 -1.8160
 6994TIP3   OH245176   5.073   4.329  13.304  0.1349 -1.2926 -0.0276
 6994TIP3    H145177   5.092   4.420  13.325  1.7985 -1.2547 -1.4183
 6994TIP3    H245178   4.993   4.333  13.251  0.8593 -0.4609 -1.1170
 6995TIP3   OH245179   2.715   1.953  11.604 -0.3261 -0.5410  0.1853
 6995TIP3    H145180   2.762   1.880  11.642 -0.1882 -0.7227 -0.3250
 6995TIP3    H245181   2.645   1.972  11.667  0.3884 -0.2952  0.9227
 6996TIP3   OH245182   2.752   5.459  11.417  0.2325  0.2225  0.4086
 6996TIP3    H145183   2.752   5.366  11.394  0.4733  0.6760 -1.6255
 6996TIP3    H245184   2.699   5.464  11.497  0.0715 -1.6252  0.4642
 6997TIP3   OH245185   3.641   0.377  12.981  0.5404 -1.1817 -0.5481
 6997TIP3    H145186   3.576   0.393  12.913  0.3378 -1.9272 -0.5401
 6997TIP3    H245187   3.618   0.437  13.052  0.1318 -1.1269 -0.7279
 6998TIP3   OH245188   6.861   6.205  13.047 -0.2223 -0.2554  0.1008
 6998TIP3    H145189   6.894   6.226  12.960 -0.5955 -1.4695 -0.3626
 6998TIP3    H245190   6.939   6.207  13.104 -0.1255  1.4515 -0.0608
 6999TIP3   OH245191   0.239   0.422  12.108 -0.0281  0.6992  0.7189
 6999TIP3    H145192   0.332   0.400  12.096  0.0692  1.5715 -0.2901
 6999TIP3    H245193   0.192   0.349  12.066  0.2775  1.7305 -1.5957
 7000TIP3   OH245194   4.072   1.760  13.067  0.4948 -0.3237  0.3089
 7000TIP3    H145195   4.144   1.700  13.050  0.6823 -0.7879  2.4424
 7000TIP3    H245196   3.994   1.714  13.037  0.7913 -1.0467  0.6346
 7001TIP3   OH245197   3.310   4.274  12.014 -0.3144  0.0448  0.3318
 7001TIP3    H145198   3.226   4.311  11.987 -1.0224 -0.5069  1.6842
 7001TIP3    H245199   3.293   4.181  12.027  0.4715 -0.0484  0.7808
 7002TIP3   OH245200   0.409   1.056  12.686  0.3245 -0.3859 -0.4611
 7002TIP3    H145201   0.387   0.963  12.690 -1.2984 -0.1199 -2.1259
 7002TIP3    H245202   0.499   1.060  12.720  0.1568 -2.4312  0.3807
 7003TIP3   OH245203   7.006   3.496  12.496 -0.3138 -0.5369  0.3886
 7003TIP3    H145204   7.068   3.451  12.439 -1.7288 -2.5436  0.3358
 7003TIP3    H245205   7.042   3.584  12.505  0.9380 -0.6996 -2.0779
 7004TIP3   OH245206   6.351   6.055  11.293  0.7165 -0.0074 -0.1366
 7004TIP3    H145207   6.285   6.103  11.342  2.1199  0.6219  1.2402
 7004TIP3    H245208   6.406   6.015  11.361  1.5535 -0.7740 -1.2388
 7005TIP3   OH245209   4.815   1.826  13.292  0.0656 -0.6153 -0.7527
 7005TIP3    H145210   4.887   1.875  13.252  0.8036 -1.4356 -0.4483
 7005TIP3    H245211   4.857   1.750  13.332 -0.7903 -0.4190  0.5889
 7006TIP3   OH245212   7.506   3.794  11.867 -0.4344  0.0650 -0.0767
 7006TIP3    H145213   7.472   3.823  11.783 -1.6406 -1.8344 -0.2858
 7006TIP3    H245214   7.601   3.803  11.858 -0.6068  1.1780 -1.1141
 7007TIP3   OH245215   7.370   6.315  12.192 -0.3520  0.0137  0.6331
 7007TIP3    H145216   7.306   6.301  12.123 -1.6880  1.8740  1.4066
 7007TIP3    H245217   7.415   6.231  12.201 -0.6573 -0.5063 -1.9263
 7008TIP3   OH245218   2.859   5.960  12.446 -0.2487  0.8758 -0.2916
 7008TIP3    H145219   2.912   6.007  12.381 -0.1301 -0.5326 -1.2426
 7008TIP3    H245220   2.924   5.915  12.501 -0.3837  1.3413  0.2613
 7009TIP3   OH245221   6.916   0.999  12.914  0.3011 -0.1054 -0.2130
 7009TIP3    H145222   6.845   1.031  12.858 -1.0327 -2.9501 -0.2941
 7009TIP3    H245223   6.881   0.920  12.955  2.6394 -0.3154  1.5985
 7010TIP3   OH245224   3.946   2.361  11.612  0.0684  0.3341  0.3044
 7010TIP3    H145225   3.896   2.311  11.676  1.6228 -1.3175  0.3376
 7010TIP3    H245226   3.961   2.299  11.540  1.6928  0.8672  0.1381
 7011TIP3   OH245227   2.660   2.701  11.186 -0.0880 -0.3796 -0.3780
 7011TIP3    H145228   2.577   2.718  11.141 -0.4874  0.1217  0.5310
 7011TIP3    H245229   2.649   2.739  11.273  0.1778 -2.4714  0.6363
 7012TIP3   OH245230   7.539   0.651  12.478  0.1318 -0.0633  0.3015
 7012TIP3    H145231   7.482   0.633  12.553 -0.5156 -1.2514 -0.4468
 7012TIP3    H245232   7.578   0.566  12.457  0.8429  0.4014 -0.2780
 7013TIP3   OH245233   0.926   5.617  13.769  0.0327  0.5365 -0.1929
 7013TIP3    H145234   1.002   5.661  13.732  0.6775  1.7721  2.3649
 7013TIP3    H245235   0.854   5.637  13.709  1.1038  1.8748 -1.0773
 7014TIP3   OH245236   7.487   2.361  11.989 -0.7443 -0.1940  0.3864
 7014TIP3    H145237   7.502   2.276  11.948 -0.4919 -0.2984  0.6921
 7014TIP3    H245238   7.415   2.400  11.939  0.8526  0.5468 -1.4872
 7015TIP3   OH245239   1.907   1.464  11.587 -0.5410 -0.0043 -0.0957
 7015TIP3    H145240   1.888   1.534  11.649  1.2392 -1.4910  2.3402
 7015TIP3    H245241   1.949   1.507  11.513 -0.2178  1.5867  0.9765
 7016TIP3   OH245242   3.047   0.195  13.784  0.0519 -0.5103 -0.8291
 7016TIP3    H145243   3.027   0.288  13.773 -1.6142 -0.4013  2.0710
 7016TIP3    H245244   3.117   0.193  13.849  0.6271 -1.3106 -1.4466
 7017TIP3   OH245245   1.270   4.685  13.155  0.2585  0.7889 -0.2538
 7017TIP3    H145246   1.362   4.708  13.141  0.2237  1.4038  0.4666
 7017TIP3    H245247   1.222   4.767  13.141 -0.2618  0.3442 -1.2346
 7018TIP3   OH245248   3.124   4.956  11.163  0.4430 -0.0817  0.0133
 7018TIP3    H145249   3.047   4.971  11.107  0.9102  0.1220 -0.5852
 7018TIP3    H245250   3.117   4.864  11.188 -0.9757  0.3804  1.4717
 7019TIP3   OH245251   3.449   4.962  13.185 -0.5522 -0.7007  0.0781
 7019TIP3    H145252   3.530   4.931  13.225 -0.1093  0.7428  0.3436
 7019TIP3    H245253   3.382   4.899  13.213 -0.3376  0.3442  3.3422
 7020TIP3   OH245254   5.942   7.679  11.916 -0.8395 -0.4030  0.4396
 7020TIP3    H145255   5.982   7.645  11.835  1.6830 -1.9108  2.1686
 7020TIP3    H245256   5.881   7.611  11.944  0.5444 -1.3311  1.3189
 7021TIP3   OH245257   2.301   3.723  11.619 -0.1349  0.0003  0.4331
 7021TIP3    H145258   2.371   3.760  11.565 -0.7552  1.4845  0.5816
 7021TIP3    H245259   2.234   3.696  11.556 -0.3328  0.5921  0.3802
 7022TIP3   OH245260   5.060   7.524  11.212  0.4550 -0.1433 -0.1067
 7022TIP3    H145261   5.064   7.566  11.126  1.4893  1.8859  0.8729
 7022TIP3    H245262   5.151   7.518  11.240  0.0567  0.3296  1.3473
 7023TIP3   OH245263   7.020   2.939  12.587 -0.2298 -0.3244  0.0802
 7023TIP3    H145264   6.980   3.027  12.589 -0.1227 -0.1685 -1.9722
 7023TIP3    H245265   7.111   2.955  12.563  0.1807 -0.9311  1.1586
 7024TIP3   OH245266   2.157   4.768  12.675 -0.3116  0.4200 -0.3538
 7024TIP3    H145267   2.104   4.828  12.623 -1.4201 -0.8263 -0.7008
 7024TIP3    H245268   2.244   4.773  12.635 -1.0198 -0.1412 -2.0457
 7025TIP3   OH245269   5.906   3.088  11.622  0.3678  0.3468 -0.6996
 7025TIP3    H145270   5.944   3.150  11.560  1.6958  0.5187  0.2400
 7025TIP3    H245271   5.934   3.120  11.708 -0.2692 -0.6573 -0.1010
 7026TIP3   OH245272   2.204   3.200  10.951  0.1235  0.0896 -0.0696
 7026TIP3    H145273   2.164   3.275  10.995 -3.0353 -1.8844  0.7572
 7026TIP3    H245274   2.290   3.231  10.925 -0.6912  3.7072  0.9504
 7027TIP3   OH245275   3.214   0.698  12.808 -0.7126 -0.6015  0.5825
 7027TIP3    H145276   3.272   0.732  12.875 -1.4444 -0.3014  1.0709
 7027TIP3    H245277   3.272   0.672  12.736 -0.1383  2.5894 -0.2565
 7028TIP3   OH245278   0.082   4.238  12.004  0.3081  0.4360 -0.1417
 7028TIP3    H145279   0.079   4.261  11.911  0.8234  1.5352  0.0963
 7028TIP3    H245280   0.176   4.241  12.026  0.4851 -2.3627 -0.1773
 7029TIP3   OH245281   1.233   7.208  10.916  0.0686 -0.2503  0.6265
 7029TIP3    H145282   1.221   7.195  10.821 -0.2943  0.6643  0.5294
 7029TIP3    H245283   1.144   7.202  10.952  0.2343 -0.8377  0.9499
 7030TIP3   OH245284   5.631   2.290  12.025 -0.3841  0.3154 -0.4053
 7030TIP3    H145285   5.589   2.364  12.070 -1.1009 -0.1231 -0.3303
 7030TIP3    H245286   5.624   2.312  11.932 -0.2823  0.5048 -0.3682
 7031TIP3   OH245287   1.588   4.160  13.473 -0.6258 -0.2665 -0.0108
 7031TIP3    H145288   1.663   4.216  13.451 -0.1490 -1.1078 -0.5718
 7031TIP3    H245289   1.562   4.189  13.560 -0.4925  0.9365 -0.3425
 7032TIP3   OH245290   4.832   1.265  11.847  0.5616 -0.2307 -0.0327
 7032TIP3    H145291   4.816   1.204  11.919  2.4504 -1.2592 -0.4341
 7032TIP3    H245292   4.892   1.330  11.884  0.5920 -0.0877 -0.3323
 7033TIP3   OH245293   0.991   3.376  12.107  0.0044 -0.7950 -0.2020
 7033TIP3    H145294   1.056   3.307  12.118 -1.2703 -1.8779  0.8603
 7033TIP3    H245295   1.028   3.451  12.153  1.5763 -0.5847 -1.6872
 7034TIP3   OH245296   5.998   6.601  12.943  0.3170  0.4285 -0.1665
 7034TIP3    H145297   5.956   6.656  12.876 -1.3247 -0.8202 -0.2169
 7034TIP3    H245298   5.946   6.616  13.022  0.7109 -0.0087  0.1795
 7035TIP3   OH245299   2.703   5.744  13.651 -0.4145 -0.4723  0.1364
 7035TIP3    H145300   2.667   5.801  13.719 -2.1963 -1.5049  0.1299
 7035TIP3    H245301   2.795   5.770  13.644 -0.2806 -0.0352  2.6104
 7036TIP3   OH245302   3.010   5.951  12.008  0.4347 -0.1205  0.5504
 7036TIP3    H145303   3.044   5.865  11.985  0.5285 -0.5310  2.1276
 7036TIP3    H245304   2.915   5.943  11.998  0.4381 -0.4240  0.7710
 7037TIP3   OH245305   5.461   1.402  11.546 -0.3131  0.2331  0.5045
 7037TIP3    H145306   5.412   1.322  11.527  0.5777  0.2589 -2.2219
 7037TIP3    H245307   5.553   1.374  11.549 -0.1537  0.7775  2.1255
 7038TIP3   OH245308   0.159   5.190  19.497  0.5459  0.3613 -0.2223
 7038TIP3    H145309   0.122   5.273  19.465 -0.0802  0.2468  0.1963
 7038TIP3    H245310   0.096   5.124  19.469  0.0507  0.2423  1.1154
 7039TIP3   OH245311   0.998   2.301  10.675 -0.2329  0.6821  0.8671
 7039TIP3    H145312   1.049   2.382  10.679  0.4769  0.2289  1.3627
 7039TIP3    H245313   1.058   2.234  10.709 -0.1078 -0.4064 -1.3699
 7040TIP3   OH245314   5.824   4.184  12.475  0.3814 -0.3854 -0.9337
 7040TIP3    H145315   5.834   4.172  12.381 -0.3443 -0.5634 -0.9991
 7040TIP3    H245316   5.791   4.273  12.485 -1.2806 -0.9573 -0.9998
 7041TIP3   OH245317   6.968   6.868  11.369  0.7439  0.2037 -0.1872
 7041TIP3    H145318   6.941   6.908  11.286 -0.3062 -1.3582 -0.6397
 7041TIP3    H245319   7.035   6.804  11.343  0.0080 -0.6868  0.0874
 7042TIP3   OH245320   6.394   2.830  11.735 -0.8848 -0.2833  0.2126
 7042TIP3    H145321   6.344   2.887  11.794 -1.1379  0.6703 -0.8870
 7042TIP3    H245322   6.380   2.867  11.648  1.1870 -0.3950 -0.2180
 7043TIP3   OH245323   6.318   3.868  11.938  0.5837  0.1063 -0.4637
 7043TIP3    H145324   6.377   3.822  11.998  1.0051 -0.7951 -1.5196
 7043TIP3    H245325   6.328   3.960  11.961  1.2441 -0.1646  0.4011
 7044TIP3   OH245326   2.272   3.680  13.120  0.3605 -0.0947 -0.1095
 7044TIP3    H145327   2.332   3.670  13.047 -1.7397 -1.8358 -1.7308
 7044TIP3    H245328   2.328   3.678  13.198  2.5347  0.5034 -1.5693
 7045TIP3   OH245329   3.321   4.942  11.414 -0.2386 -0.2905  0.1690
 7045TIP3    H145330   3.262   4.906  11.348 -1.6894  0.4492  1.0038
 7045TIP3    H245331   3.390   4.877  11.423 -3.1383 -3.4060  2.2261
 7046TIP3   OH245332   5.499   3.279  12.140 -0.1177  0.3916  0.2779
 7046TIP3    H145333   5.502   3.214  12.210  1.3158  0.2984  0.1544
 7046TIP3    H245334   5.438   3.345  12.172 -2.9144 -1.7564 -0.2947
 7047TIP3   OH245335   2.684   2.326  12.338 -0.5394 -0.2234  0.3733
 7047TIP3    H145336   2.620   2.276  12.389 -0.7513  0.2193  0.5448
 7047TIP3    H245337   2.659   2.418  12.352 -0.7711 -0.1043 -0.7395
 7048TIP3   OH245338   1.415   3.405  10.880 -0.1006 -0.5115 -0.0941
 7048TIP3    H145339   1.451   3.440  10.961  0.9170  2.1850 -1.5927
 7048TIP3    H245340   1.325   3.381  10.902  0.3355 -0.4405  1.9572
 7049TIP3   OH245341   0.254   4.670  12.684  0.3756  0.0508  0.0907
 7049TIP3    H145342   0.236   4.759  12.714  2.6986  0.1795  1.3232
 7049TIP3    H245343   0.213   4.665  12.597 -0.4904  2.0212  0.3315
 7050TIP3   OH245344   6.004   5.302  12.042  0.0234 -0.7981  0.0406
 7050TIP3    H145345   6.093   5.318  12.010 -0.9116  2.6818 -1.2363
 7050TIP3    H245346   5.981   5.216  12.008  2.1693 -0.8663 -1.3821
 7051TIP3   OH245347   2.510   7.307  12.207  0.7861  0.2227  0.7059
 7051TIP3    H145348   2.424   7.305  12.165  1.1561 -1.4809 -0.0550
 7051TIP3    H245349   2.551   7.387  12.174 -0.0487  0.4353  0.1513
 7052TIP3   OH245350   2.211   4.019  13.081 -0.1186 -0.3465  0.0753
 7052TIP3    H145351   2.201   4.043  13.174 -1.6257 -0.3039 -0.0667
 7052TIP3    H245352   2.235   3.927  13.083  2.2768  0.2116  0.5363
 7053TIP3   OH245353   4.551   5.577  11.848 -0.0817  0.3319  0.0468
 7053TIP3    H145354   4.523   5.590  11.758 -1.4231 -1.2674  0.1887
 7053TIP3    H245355   4.645   5.561  11.841 -0.1127  0.5255 -1.0184
 7054TIP3   OH245356   1.757   1.593  12.723 -0.0421  0.2665  0.2214
 7054TIP3    H145357   1.663   1.604  12.738  0.2756 -0.0642  3.0526
 7054TIP3    H245358   1.796   1.676  12.753  0.7006 -0.4111  1.2012
 7055TIP3   OH245359   7.018   4.203  10.612 -1.0363 -0.6831  0.0400
 7055TIP3    H145360   7.094   4.258  10.592 -1.4838  0.2027  0.7134
 7055TIP3    H245361   7.033   4.122  10.563  0.1606 -0.3766 -0.1165
 7056TIP3   OH245362   5.285   0.527  12.308 -0.6301  0.2544  0.2552
 7056TIP3    H145363   5.281   0.444  12.357 -1.5770 -0.2125 -0.5773
 7056TIP3    H245364   5.223   0.515  12.236  0.3885  1.1121 -0.7900
 7057TIP3   OH245365   6.691   0.545  11.268  0.1988  0.0905  0.2825
 7057TIP3    H145366   6.687   0.481  11.197  2.2796  1.1741 -0.9301
 7057TIP3    H245367   6.600   0.553  11.299 -0.8555 -0.2677 -2.4289
 7058TIP3   OH245368   3.728   6.480  11.260  0.3106 -0.3576 -0.5478
 7058TIP3    H145369   3.696   6.521  11.180 -1.4026  1.1453  0.8258
 7058TIP3    H245370   3.666   6.410  11.278 -1.2693  1.3303  1.0763
 7059TIP3   OH245371   6.159   1.771  12.418 -0.4678  0.2862 -0.6355
 7059TIP3    H145372   6.102   1.744  12.490  1.5247 -0.8440  0.6272
 7059TIP3    H245373   6.100   1.800  12.349 -2.6081 -1.7828  0.2028
 7060TIP3   OH245374   4.074   5.005  12.435 -0.3161 -0.2971  0.1507
 7060TIP3    H145375   4.052   4.927  12.485 -0.0954 -1.1863 -1.0986
 7060TIP3    H245376   4.080   5.075  12.501  0.2629 -1.4765  1.3965
 7061TIP3   OH245377   7.230   5.468  13.125  0.2689  0.1416  0.2772
 7061TIP3    H145378   7.316   5.437  13.154 -0.0444  0.1089  1.2195
 7061TIP3    H245379   7.207   5.537  13.188  0.1585  1.0407 -0.7247
 7062TIP3   OH245380   6.005   0.640  13.375  0.2033 -0.1328  0.4826
 7062TIP3    H145381   6.012   0.724  13.420  1.2648 -0.0152  0.1183
 7062TIP3    H245382   5.931   0.652  13.315 -1.2277 -0.2919  2.1272
 7063TIP3   OH245383   0.813   4.226  11.368  0.8411 -0.1201 -0.2406
 7063TIP3    H145384   0.792   4.297  11.307  1.1837  0.8828  0.7707
 7063TIP3    H245385   0.828   4.150  11.312  0.9390  0.7188 -1.3959
 7064TIP3   OH245386   5.610   0.790  11.738 -0.0418 -0.0786 -0.2955
 7064TIP3    H145387   5.587   0.791  11.645 -1.1278  1.3524 -0.0389
 7064TIP3    H245388   5.647   0.877  11.755 -1.3387  0.2644  0.9542
 7065TIP3   OH245389   7.376   0.980  10.957 -0.1784  0.2268 -0.4551
 7065TIP3    H145390   7.362   0.885  10.951 -0.4739  0.3500 -3.6208
 7065TIP3    H245391   7.448   0.997  10.897 -1.5559  2.2257 -1.6719
 7066TIP3   OH245392   0.787   1.623  12.848 -0.3220 -0.3441  0.5277
 7066TIP3    H145393   0.872   1.613  12.804  0.2022 -0.2773  1.4823
 7066TIP3    H245394   0.750   1.702  12.809 -0.5097 -1.0305 -0.7580
 7067TIP3   OH245395   3.544   4.798  11.491 -0.4781 -0.0684 -0.0540
 7067TIP3    H145396   3.629   4.811  11.448 -0.2539 -0.2330  0.3312
 7067TIP3    H245397   3.511   4.716  11.455 -1.2164  0.7766 -1.3894
 7068TIP3   OH245398   5.592   0.324  11.336  0.3201 -0.1488  0.2575
 7068TIP3    H145399   5.508   0.368  11.326 -0.1479 -0.7674  1.2853
 7068TIP3    H245400   5.655   0.394  11.350  0.4298  0.5246 -2.8149
 7069TIP3   OH245401   3.981   6.776  12.536 -0.0061  0.1290  0.1934
 7069TIP3    H145402   3.946   6.827  12.463 -0.9224  2.4830  2.1191
 7069TIP3    H245403   3.904   6.751  12.587  0.7322  1.3480  2.0200
 7070TIP3   OH245404   5.436   5.400  12.855  0.1206  0.3769  0.2884
 7070TIP3    H145405   5.525   5.425  12.832  0.3110 -1.1326 -0.8299
 7070TIP3    H245406   5.380   5.458  12.804  0.4929  0.4922  0.0096
 7071TIP3   OH245407   5.182   2.021  11.466 -0.1067  0.4000 -0.0240
 7071TIP3    H145408   5.091   2.047  11.453  0.2954  2.0794  0.3029
 7071TIP3    H245409   5.180   1.962  11.541 -0.5465  3.5940  2.7128
 7072TIP3   OH245410   6.836   0.797  11.228 -0.1077  0.3456  0.1215
 7072TIP3    H145411   6.802   0.710  11.247  2.2481 -0.2770  1.8594
 7072TIP3    H245412   6.771   0.857  11.266 -0.5943 -0.7161  1.0146
 7073TIP3   OH245413   0.859   4.006  11.133  0.2863 -0.1296  0.2388
 7073TIP3    H145414   0.795   3.974  11.196 -0.4118  0.7047 -0.0216
 7073TIP3    H245415   0.910   3.929  11.110  1.9221 -0.1213  3.3121
 7074TIP3   OH245416   1.975   0.147  11.642 -0.2662 -0.2185  0.0038
 7074TIP3    H145417   1.970   0.202  11.720 -3.1456 -0.2966  0.0056
 7074TIP3    H245418   2.019   0.068  11.672  0.3301  0.4852  1.0601
 7075TIP3   OH245419   2.654   1.175  11.828 -0.6750  0.5646  0.4260
 7075TIP3    H145420   2.581   1.144  11.774  0.7178 -0.1290 -1.1323
 7075TIP3    H245421   2.624   1.162  11.918 -1.4799 -2.2149 -0.1614
 7076TIP3   OH245422   2.434   3.585  10.923  0.0050 -0.3729 -0.1897
 7076TIP3    H145423   2.421   3.651  10.854  0.2413  0.6371  0.7073
 7076TIP3    H245424   2.420   3.632  11.004 -0.0425 -1.5011  0.4772
 7077TIP3   OH245425   1.556   7.252  11.579 -0.2394 -0.1892 -0.3059
 7077TIP3    H145426   1.643   7.291  11.574  0.0014 -0.7095 -0.2549
 7077TIP3    H245427   1.562   7.173  11.524 -1.1728  0.6644 -1.6981
 7078TIP3   OH245428   5.357   2.405  12.423  0.6327 -0.8381 -0.4340
 7078TIP3    H145429   5.434   2.457  12.446 -0.3206  0.7769 -0.7181
 7078TIP3    H245430   5.307   2.400  12.504 -0.5160  0.9522 -0.9726
 7079TIP3   OH245431   7.023   4.133  11.458 -0.4103 -0.6286  0.0294
 7079TIP3    H145432   6.932   4.124  11.432 -0.0549  0.3238 -1.6173
 7079TIP3    H245433   7.035   4.226  11.477 -0.0749 -0.9373  1.4840
 7080TIP3   OH245434   2.269   1.932  12.412 -0.0445 -0.2559  0.3669
 7080TIP3    H145435   2.331   1.908  12.481  1.1111 -0.1471 -0.6008
 7080TIP3    H245436   2.319   1.990  12.355 -1.9139  2.3197  1.1422
 7081TIP3   OH245437   1.907   3.580  12.042  0.4496  0.1658  0.4768
 7081TIP3    H145438   1.897   3.592  12.137  1.4053 -1.3193  0.8031
 7081TIP3    H245439   1.965   3.504  12.034  0.7611  0.5567 -1.3050
 7082TIP3   OH245440   1.689   0.528  12.809 -0.0586 -0.2764  0.5999
 7082TIP3    H145441   1.636   0.455  12.779  0.3725  0.2563 -1.6935
 7082TIP3    H245442   1.726   0.499  12.892 -3.2000 -0.9782  1.8969
 7083TIP3   OH245443   5.445   5.413  12.350  0.5778 -0.2649  0.0175
 7083TIP3    H145444   5.453   5.388  12.257  1.3498  0.8276 -0.2352
 7083TIP3    H245445   5.533   5.442  12.374  0.4315 -0.7328  1.1639
 7084TIP3   OH245446   3.274   0.351  11.873  0.0390 -0.6119  0.0081
 7084TIP3    H145447   3.192   0.381  11.912  0.2389 -0.7290  0.5350
 7084TIP3    H245448   3.327   0.430  11.863 -0.5012 -0.3911 -1.2538
 7085TIP3   OH245449   7.098   2.484  12.889  0.0936  0.4371 -0.0478
 7085TIP3    H145450   7.155   2.467  12.964 -1.6629  0.0034  1.2545
 7085TIP3    H245451   7.069   2.574  12.902  0.0214  0.4603 -0.3847
 7086TIP3   OH245452   1.686   0.003  13.472 -0.2577  0.2496  0.7071
 7086TIP3    H145453   1.748  -0.039  13.532  0.9335 -1.5444 -1.5876
 7086TIP3    H245454   1.627  -0.068  13.445 -0.1555  0.7381 -0.9340
 7087TIP3   OH245455   5.688   5.915  11.737 -0.0479  0.2769 -0.3142
 7087TIP3    H145456   5.690   5.826  11.773  0.6468  0.5754  0.4061
 7087TIP3    H245457   5.624   5.910  11.665 -0.4932 -0.6431  0.1275
 7088TIP3   OH245458   1.727   6.168  10.839 -0.5304  0.4680  0.7368
 7088TIP3    H145459   1.693   6.131  10.920 -2.5565  1.4613  0.4038
 7088TIP3    H245460   1.741   6.092  10.782 -2.7223 -0.0265  0.7423
 7089TIP3   OH245461   2.059   5.230  12.628  0.3342 -0.3347  0.4689
 7089TIP3    H145462   2.076   5.306  12.683  0.1066 -1.8113  2.6743
 7089TIP3    H245463   1.983   5.255  12.575  0.6709  1.1849  0.6544
 7090TIP3   OH245464   2.781   0.741  12.850 -0.6179  0.1048 -0.1117
 7090TIP3    H145465   2.818   0.714  12.766 -0.3626 -1.3931  0.4528
 7090TIP3    H245466   2.857   0.758  12.905 -0.7672 -0.4889  0.2862
 7091TIP3   OH245467   5.687   2.377  11.056 -0.4571  0.3567  0.2465
 7091TIP3    H145468   5.702   2.440  10.985 -0.4098  0.5591  0.4327
 7091TIP3    H245469   5.759   2.315  11.050 -1.2176 -0.4746 -0.7766
 7092TIP3   OH245470   6.168   6.912  12.561 -0.7558 -0.0561  0.4777
 7092TIP3    H145471   6.151   6.818  12.569  0.7647 -0.3507  0.4460
 7092TIP3    H245472   6.147   6.948  12.647 -1.1887 -0.4442  0.5378
 7093TIP3   OH245473   7.162   2.986  12.183 -0.0786 -0.1228  0.4356
 7093TIP3    H145474   7.125   2.923  12.121  0.8523 -1.3543  1.1028
 7093TIP3    H245475   7.255   2.990  12.162  0.5038 -1.4726  2.4507
 7094TIP3   OH245476   3.141   6.467  11.193  0.1168  0.1057  0.2142
 7094TIP3    H145477   3.175   6.546  11.235 -0.6774  0.0597  0.9605
 7094TIP3    H245478   3.056   6.451  11.235 -0.0608 -0.7434 -0.4252
 7095TIP3   OH245479   0.012   6.102  12.041 -0.5505  0.4383 -0.3874
 7095TIP3    H145480   0.029   6.194  12.063  0.1100  0.3113 -0.3362
 7095TIP3    H245481  -0.046   6.072  12.111  1.2682  0.1306  1.0782
 7096TIP3   OH245482   7.504   0.918  12.808 -0.5025  0.7403 -0.3686
 7096TIP3    H145483   7.468   1.007  12.813 -0.4707  0.6993  1.4080
 7096TIP3    H245484   7.427   0.861  12.809 -0.5116  0.7438 -1.0414
 7097TIP3   OH245485   5.023   0.027  12.114 -0.0116  0.4094 -0.0341
 7097TIP3    H145486   4.994  -0.044  12.056 -0.7014  0.8987 -0.3034
 7097TIP3    H245487   4.951   0.040  12.175 -0.1494  1.2735 -0.3614
 7098TIP3   OH245488   7.374   0.592  12.684 -0.0662  0.3412 -0.1205
 7098TIP3    H145489   7.284   0.607  12.711  0.1841  0.8647  0.4324
 7098TIP3    H245490   7.406   0.521  12.740  0.4260  1.3702  0.9257
 7099TIP3   OH245491   7.110   0.653  12.689  0.2492 -0.1080 -0.5719
 7099TIP3    H145492   7.057   0.677  12.614  1.8675  0.6798 -1.5224
 7099TIP3    H245493   7.087   0.718  12.756  0.2985  0.4876 -1.1152
 7100TIP3   OH245494   0.806   6.055  11.105  0.7271  0.3856 -0.7597
 7100TIP3    H145495   0.744   5.989  11.075 -0.4246  1.2809 -0.3980
 7100TIP3    H245496   0.807   6.121  11.036  2.1755 -0.1587 -1.3096
 7101TIP3   OH245497   1.154   0.836  12.125 -0.1074 -0.6938  0.3414
 7101TIP3    H145498   1.241   0.866  12.097 -0.6880  0.7011 -0.0389
 7101TIP3    H245499   1.162   0.825  12.220 -0.1287  1.7935  0.7002
 7102TIP3   OH245500   1.086   1.623  11.915 -0.3375 -0.1611  0.4443
 7102TIP3    H145501   1.041   1.565  11.854 -0.2910 -1.0634  1.2400
 7102TIP3    H245502   1.044   1.708  11.902  1.4902  0.4217 -2.7946
 7103TIP3   OH245503   3.176   0.661  12.234  0.1214 -0.0396 -0.4763
 7103TIP3    H145504   3.260   0.688  12.271  0.7086 -1.2568 -0.8759
 7103TIP3    H245505   3.137   0.743  12.203  0.7467  0.6670  0.5034
 7104TIP3   OH245506   5.192   3.120  11.785  0.0020  0.1285 -0.0433
 7104TIP3    H145507   5.135   3.121  11.862  0.3320 -1.8972  0.2880
 7104TIP3    H245508   5.143   3.071  11.719 -0.1086  1.4993 -1.0132
 7105TIP3   OH245509   7.345   4.469  11.605  0.1466  0.1569  0.2136
 7105TIP3    H145510   7.398   4.391  11.622 -0.1435 -0.5115 -1.7094
 7105TIP3    H245511   7.381   4.506  11.525 -0.9303  0.9037  0.0497
 7106TIP3   OH245512   6.807   4.117  12.483 -0.2024 -0.0240 -0.1238
 7106TIP3    H145513   6.793   4.162  12.400 -0.9142  0.5085  0.2666
 7106TIP3    H245514   6.865   4.044  12.462 -2.2558 -1.3380 -1.5666
 7107TIP3   OH245515   2.599   7.448  13.542 -0.1828 -0.0931  0.8501
 7107TIP3    H145516   2.686   7.485  13.527  0.1784 -0.9585  0.7564
 7107TIP3    H245517   2.609   7.355  13.522 -1.4399  0.0093 -0.4454
 7108TIP3   OH245518   6.073   3.254  11.499  0.2402 -0.3978  0.1591
 7108TIP3    H145519   6.111   3.295  11.577 -0.9467 -0.6844  0.9257
 7108TIP3    H245520   6.144   3.253  11.434  0.4666  2.4783  0.2417
 7109TIP3   OH245521   1.824   4.792  11.950  0.0194 -0.2939  0.1907
 7109TIP3    H145522   1.736   4.781  11.988 -0.9863  0.5219 -1.7519
 7109TIP3    H245523   1.869   4.851  12.011  0.4369 -3.1939  2.9484
 7110TIP3   OH245524   2.939   6.078  10.930  0.0666 -0.5886  0.5828
 7110TIP3    H145525   2.846   6.070  10.911  0.3118 -0.5894 -0.6884
 7110TIP3    H245526   2.943   6.131  11.010 -0.9107  3.4761 -1.7697
 7111TIP3   OH245527   2.936   5.256  11.111  0.7246  0.8142 -0.1012
 7111TIP3    H145528   2.971   5.329  11.162  2.7332 -1.3401  1.8872
 7111TIP3    H245529   2.877   5.211  11.171 -1.9559  1.7017 -1.8960
 7112TIP3   OH245530   6.573   4.066  12.581  0.1932 -0.0870  0.6076
 7112TIP3    H145531   6.543   4.142  12.631  0.3275 -0.7312  1.7103
 7112TIP3    H245532   6.657   4.094  12.543  0.1561  0.3741  0.8532
 7113TIP3   OH245533   7.503   1.468  13.627 -0.3382  0.1749 -0.0608
 7113TIP3    H145534   7.570   1.531  13.655  0.7390 -1.4102  1.1141
 7113TIP3    H245535   7.420   1.507  13.654  0.4563  0.1419  2.6678
 7114TIP3   OH245536   0.599   0.627  13.216 -0.5134 -0.1574  0.5140
 7114TIP3    H145537   0.541   0.602  13.288  0.2854 -2.8795  0.3310
 7114TIP3    H245538   0.670   0.674  13.259 -1.0289 -0.0256  1.2476
 7115TIP3   OH245539   2.053   2.969  11.801  0.3917  0.6877  0.0506
 7115TIP3    H145540   2.075   2.943  11.711 -0.2829 -0.0013  0.0744
 7115TIP3    H245541   2.045   3.064  11.797  0.8427  0.7125 -0.5110
 7116TIP3   OH245542   0.471   0.520  12.441  0.4411 -0.3192 -0.0150
 7116TIP3    H145543   0.498   0.465  12.514 -0.1880 -1.5949 -0.7145
 7116TIP3    H245544   0.483   0.609  12.473  2.5992 -0.8185  0.7469
 7117TIP3   OH245545   1.912   3.508  12.558  0.1165 -0.1647 -0.3595
 7117TIP3    H145546   1.884   3.519  12.649  1.2918  1.8958 -0.1929
 7117TIP3    H245547   2.005   3.485  12.564  0.4482  0.9095 -1.0114
 7118TIP3   OH245548   7.199   2.501  12.210  0.0517 -0.0525  0.2624
 7118TIP3    H145549   7.269   2.436  12.206 -0.5345 -0.6312 -1.2732
 7118TIP3    H245550   7.226   2.569  12.149  0.0777  0.5800  0.9595
 7119TIP3   OH245551   3.259   5.747  11.206  0.3511  0.0592  0.0338
 7119TIP3    H145552   3.206   5.727  11.129  1.0526  0.9440 -0.6947
 7119TIP3    H245553   3.204   5.719  11.280 -1.0188  0.6937 -0.6966
 7120TIP3   OH245554   3.279   7.149  12.588  0.0369 -0.0421  0.2090
 7120TIP3    H145555   3.246   7.166  12.500 -2.5436 -2.0108  0.6761
 7120TIP3    H245556   3.230   7.209  12.645 -0.3370 -0.6736  0.5673
 7121TIP3   OH245557   5.917   3.855  13.216 -0.2541 -0.2560 -0.4458
 7121TIP3    H145558   5.896   3.948  13.210  0.6579  0.1899  2.1575
 7121TIP3    H245559   5.909   3.834  13.309  2.7028 -1.9554 -0.4469
 7122TIP3   OH245560   4.165   5.919  11.413  0.0532  0.1604  0.5006
 7122TIP3    H145561   4.248   5.924  11.459 -0.6722 -0.1959  1.8875
 7122TIP3    H245562   4.118   5.998  11.441  0.8473  1.7418 -2.2354
 7123TIP3   OH245563   0.832   4.899  11.081  0.3683 -0.2201 -0.3623
 7123TIP3    H145564   0.845   4.818  11.030  1.6631 -0.0293 -0.3711
 7123TIP3    H245565   0.907   4.954  11.057  0.6334  0.1534  1.2223
 7124TIP3   OH245566   0.740   0.013  11.773  0.2500  0.1062 -0.0495
 7124TIP3    H145567   0.795  -0.065  11.772  0.5955  0.3481 -0.2399
 7124TIP3    H245568   0.667  -0.008  11.715  0.6381  0.1308 -0.5557
 7125TIP3   OH245569   0.631   3.097  11.631 -0.2540  0.1076  0.1713
 7125TIP3    H145570   0.623   3.183  11.672 -1.5668 -0.4374  1.1366
 7125TIP3    H245571   0.585   3.107  11.547  0.5496  0.6295 -0.2204
 7126TIP3   OH245572   3.664   7.329  11.767  0.3740  0.0398 -0.1981
 7126TIP3    H145573   3.688   7.341  11.859 -1.2486 -1.5751  0.5192
 7126TIP3    H245574   3.581   7.376  11.758  0.4356  0.0440 -0.8017
 7127TIP3   OH245575   4.684   3.492  12.852 -0.5507 -0.5005 -0.1779
 7127TIP3    H145576   4.635   3.424  12.898 -2.1117  1.1070  0.6513
 7127TIP3    H245577   4.669   3.473  12.759 -0.2371 -1.7538  0.0049
 7128TIP3   OH245578   0.786   1.201  11.956  0.2187  0.1342  0.2155
 7128TIP3    H145579   0.845   1.176  12.027  0.1683 -0.3166  0.1048
 7128TIP3    H245580   0.772   1.119  11.907 -0.1710  0.3271  0.0029
 7129TIP3   OH245581   7.231   1.480  11.470 -0.3086  0.2264  0.4155
 7129TIP3    H145582   7.249   1.422  11.544 -0.9210 -1.0812 -0.4149
 7129TIP3    H245583   7.138   1.501  11.479 -0.2147  0.6583  0.4045
 7130TIP3   OH245584   7.470   5.820  11.005  0.1673 -0.0889 -0.2271
 7130TIP3    H145585   7.390   5.871  10.994 -0.2654 -0.3145  1.6613
 7130TIP3    H245586   7.513   5.858  11.081  1.4752 -0.4912 -0.7286
 7131TIP3   OH245587   1.932   2.351  13.808  0.0358 -0.1283  0.3240
 7131TIP3    H145588   1.962   2.387  13.724  0.0497 -1.2349 -0.1606
 7131TIP3    H245589   2.012   2.320  13.850  0.0232  0.3947  0.7496
 7132TIP3   OH245590   2.362   5.645  13.180 -0.1940  0.0591 -0.1290
 7132TIP3    H145591   2.376   5.672  13.090  0.3126 -2.8042 -1.0092
 7132TIP3    H245592   2.434   5.685  13.229 -1.2740  2.8288 -0.6318
 7133TIP3   OH245593   1.620   6.394  10.975  0.1581 -0.1745 -0.0068
 7133TIP3    H145594   1.549   6.349  11.020  0.9506 -1.0031  0.4611
 7133TIP3    H245595   1.661   6.327  10.921 -0.7721  0.7995 -2.0167
 7134TIP3   OH245596   1.531   2.398  11.764  0.1031 -0.3711 -0.8685
 7134TIP3    H145597   1.483   2.323  11.797  1.9192 -0.8071  0.9849
 7134TIP3    H245598   1.519   2.466  11.830  1.5438 -0.3163 -0.6283
 7135TIP3   OH245599   2.981   2.650  11.742 -0.0409  0.2387  0.3669
 7135TIP3    H145600   3.005   2.736  11.776  0.1837  1.3876 -2.4435
 7135TIP3    H245601   2.898   2.629  11.786  0.5289  1.2670  2.0283
 7136TIP3   OH245602   7.258   0.892  13.400 -0.9235  0.4659 -0.3475
 7136TIP3    H145603   7.254   0.809  13.354 -0.1895  0.3502 -0.2203
 7136TIP3    H245604   7.169   0.906  13.434 -0.8365 -0.7106  0.4003
 7137TIP3   OH245605   1.507   5.822  13.834 -0.0264 -0.2426 -0.1875
 7137TIP3    H145606   1.428   5.783  13.873  0.1270 -1.1331 -0.7363
 7137TIP3    H245607   1.478   5.907  13.800 -0.8098 -0.6586 -0.5830
 7138TIP3   OH245608   4.805   0.345  12.643  0.5540  0.8457  0.1166
 7138TIP3    H145609   4.775   0.254  12.653  0.1381  1.0274  0.5837
 7138TIP3    H245610   4.744   0.396  12.697  1.2154  1.3237  0.4208
 7139TIP3   OH245611   7.279   2.347  13.158  0.2727 -0.2491  0.0177
 7139TIP3    H145612   7.347   2.403  13.197 -0.2050  0.9225 -0.7641
 7139TIP3    H245613   7.282   2.266  13.209  1.3563  0.2856  0.8442
 7140TIP3   OH245614   0.964   1.296  12.573 -0.1246 -0.5241  0.2984
 7140TIP3    H145615   1.042   1.351  12.581  0.2469 -1.2548  2.0746
 7140TIP3    H245616   0.891   1.358  12.580  0.2798 -0.0339  0.2635
 7141TIP3   OH245617   6.504   5.811  12.611 -0.0018  0.1810  0.0884
 7141TIP3    H145618   6.429   5.854  12.652  0.3823  0.6345  0.3140
 7141TIP3    H245619   6.565   5.881  12.592  0.3816 -0.1921 -0.0698
 7142TIP3   OH245620   0.772   6.993  11.474  0.0075  0.6434  0.0980
 7142TIP3    H145621   0.830   7.066  11.494 -0.8659  0.9464  1.6514
 7142TIP3    H245622   0.797   6.966  11.385  2.7445  0.5153  0.8275
 7143TIP3   OH245623   5.272   0.389  13.243 -0.0742 -0.3383  0.6002
 7143TIP3    H145624   5.200   0.331  13.267 -1.5881  1.5589  0.9322
 7143TIP3    H245625   5.343   0.365  13.302 -0.5888 -1.9090  0.6302
 7144TIP3   OH245626   2.206   6.235  11.338 -0.1660 -0.0719 -0.4892
 7144TIP3    H145627   2.125   6.250  11.289 -0.7635 -1.6231 -0.0710
 7144TIP3    H245628   2.235   6.322  11.364 -1.2286  0.5849 -1.4003
 7145TIP3   OH245629   7.105   3.134  11.483  0.2983  0.2755 -0.4528
 7145TIP3    H145630   7.087   3.175  11.398  3.0425 -1.3559 -1.9804
 7145TIP3    H245631   7.145   3.204  11.535  1.0353  0.6402 -1.4824
 7146TIP3   OH245632   0.689   5.855  13.297  0.2382 -0.0563  0.0297
 7146TIP3    H145633   0.606   5.843  13.344  0.2725 -0.8043 -0.0928
 7146TIP3    H245634   0.668   5.831  13.207  0.9973 -1.9280  0.3194
 7147TIP3   OH245635   1.186   5.144  13.760 -0.0664  0.0821 -0.2222
 7147TIP3    H145636   1.121   5.079  13.735 -0.7959  1.0878 -1.0638
 7147TIP3    H245637   1.144   5.194  13.830  0.1226  0.2108 -0.1997
 7148TIP3   OH245638   3.146   4.594  12.298 -0.3548  0.1893 -0.5083
 7148TIP3    H145639   3.160   4.688  12.296 -0.8313  0.2574 -1.3417
 7148TIP3    H245640   3.231   4.556  12.277 -0.4279  0.4743 -1.3605
 7149TIP3   OH245641   7.400   5.475  13.353 -0.0773 -0.7803 -0.0800
 7149TIP3    H145642   7.328   5.458  13.414 -1.8496  1.5843 -1.3493
 7149TIP3    H245643   7.462   5.528  13.404 -0.3799 -0.8232  0.3412
 7150TIP3   OH245644   4.910   6.913  13.427 -0.0330  0.5529  0.0449
 7150TIP3    H145645   4.917   6.947  13.338  0.0666 -0.4289 -0.3345
 7150TIP3    H245646   4.861   6.981  13.474 -2.4583 -0.0312 -1.3956
 7151TIP3   OH245647   4.646   2.005  10.962 -0.0120 -0.2757 -0.1174
 7151TIP3    H145648   4.636   1.913  10.986  0.1046  0.0312  1.1797
 7151TIP3    H245649   4.557   2.034  10.941 -0.3915 -0.1752  1.4840
 7152TIP3   OH245650   3.531   6.543  11.976  0.2755  0.6814  0.2148
 7152TIP3    H145651   3.520   6.597  12.054  1.1526  0.7871  0.2733
 7152TIP3    H245652   3.456   6.566  11.920  0.6000  1.9104  0.2616
 7153TIP3   OH245653   4.048   0.336  10.944 -0.1806 -0.1247  0.2062
 7153TIP3    H145654   4.122   0.394  10.963 -0.2334  0.6424 -1.6572
 7153TIP3    H245655   3.972   0.394  10.946 -0.1833  0.0562 -2.1054
 7154TIP3   OH245656   2.007   2.632  11.372  0.0414 -0.1393 -0.4781
 7154TIP3    H145657   1.941   2.697  11.395  0.5065  0.4628 -0.8159
 7154TIP3    H245658   1.980   2.553  11.418  1.0706  1.0657  2.4061
 7155TIP3   OH245659   4.373   6.098  13.128  0.2962  0.4807 -0.7089
 7155TIP3    H145660   4.411   6.186  13.134 -1.1078  1.0257  2.4774
 7155TIP3    H245661   4.290   6.104  13.175  0.2110 -2.5730 -0.2114
 7156TIP3   OH245662   1.385   3.151  13.782 -0.4823 -0.2754  0.6996
 7156TIP3    H145663   1.350   3.149  13.693  1.7611 -0.6128 -0.2423
 7156TIP3    H245664   1.464   3.204  13.775  0.0682 -0.8325  2.3793
 7157TIP3   OH245665   4.479   6.398  12.877  0.5143 -0.5924 -0.1612
 7157TIP3    H145666   4.512   6.465  12.936  0.3758  0.7655 -1.5472
 7157TIP3    H245667   4.390   6.380  12.909 -0.2177  1.3738 -0.8685
 7158TIP3   OH245668   2.708   0.173  12.532 -0.1558  0.1184 -0.4154
 7158TIP3    H145669   2.785   0.123  12.507 -0.0498 -0.4000  0.8525
 7158TIP3    H245670   2.638   0.139  12.478  0.5123  0.7165 -1.7162
 7159TIP3   OH245671   4.633   2.288  12.300 -0.8512 -0.2151 -0.5600
 7159TIP3    H145672   4.570   2.351  12.265 -0.4439 -0.1863 -1.2640
 7159TIP3    H245673   4.660   2.326  12.384 -1.4309 -0.0054 -0.4616
 7160TIP3   OH245674   0.798   2.419  12.743 -0.9034  1.1226 -0.5359
 7160TIP3    H145675   0.825   2.498  12.698 -0.1587  0.6948 -0.8621
 7160TIP3    H245676   0.874   2.393  12.794 -1.5917  1.3559  0.6454
 7161TIP3   OH245677   3.852   1.078  11.417 -0.0679  0.5788 -0.0619
 7161TIP3    H145678   3.795   1.139  11.370  0.4815  0.4903 -0.8649
 7161TIP3    H245679   3.831   1.092  11.509 -0.8501  1.0760 -0.3070
 7162TIP3   OH245680   6.604   3.771  11.535 -0.2776  0.2440  0.3470
 7162TIP3    H145681   6.560   3.792  11.453 -1.2665 -0.2269  0.7403
 7162TIP3    H245682   6.535   3.734  11.591  0.4471  0.2399  1.2696
 7163TIP3   OH245683   1.347   4.150  12.092  0.7535 -0.6058  0.3858
 7163TIP3    H145684   1.296   4.231  12.089  0.9850 -0.4890 -0.9274
 7163TIP3    H245685   1.375   4.142  12.183 -0.7266 -0.1299  0.9083
 7164TIP3   OH245686   5.900   6.654  11.782  0.2671 -0.3721 -0.1925
 7164TIP3    H145687   5.933   6.606  11.706  1.3273 -0.7799  0.4951
 7164TIP3    H245688   5.870   6.586  11.842  1.2431 -0.1741  0.5462
 7165TIP3   OH245689   2.103   3.316  12.339  0.5245  0.0095 -0.0001
 7165TIP3    H145690   2.116   3.343  12.430  0.7174  0.1452 -0.0659
 7165TIP3    H245691   2.093   3.397  12.291  1.1270 -0.0284 -0.2010
 7166TIP3   OH245692   7.598   1.207  11.886 -0.0492 -0.3860  0.1342
 7166TIP3    H145693   7.690   1.214  11.911 -0.2218 -0.8181  0.9406
 7166TIP3    H245694   7.556   1.280  11.930 -0.0544 -0.0387 -0.4422
 7167TIP3   OH245695   1.222   3.899  12.270 -0.5325 -0.7532 -0.3033
 7167TIP3    H145696   1.171   3.953  12.209  0.8037 -0.3578 -1.1197
 7167TIP3    H245697   1.292   3.957  12.301  1.6478 -2.2425 -2.1110
 7168TIP3   OH245698   3.631   6.901  11.468  0.6759 -0.1705 -0.0343
 7168TIP3    H145699   3.647   6.910  11.562  0.5886  0.4126 -0.0697
 7168TIP3    H245700   3.548   6.853  11.462  0.3693  0.3229  0.1966
 7169TIP3   OH245701   3.263   1.722  11.319  0.5585 -0.6872 -0.4691
 7169TIP3    H145702   3.335   1.693  11.375  1.9269  0.3975 -1.5800
 7169TIP3    H245703   3.295   1.707  11.230 -1.1991 -1.5344 -0.9826
 7170TIP3   OH245704   2.869   3.141  10.993  0.2695  0.4569  0.5695
 7170TIP3    H145705   2.951   3.184  11.014  0.1764 -0.1128  2.2328
 7170TIP3    H245706   2.893   3.069  10.936  0.5873  1.8001 -1.0726
 7171TIP3   OH245707   7.135   2.813  13.556  0.6169  0.3694 -0.3597
 7171TIP3    H145708   7.065   2.819  13.491  0.9129  0.4234 -0.6805
 7171TIP3    H245709   7.092   2.827  13.640  0.4620  1.8527 -0.6624
 7172TIP3   OH245710   4.585   0.349  12.436  0.9302  0.0290  0.2165
 7172TIP3    H145711   4.562   0.440  12.453 -0.6369 -0.7465  2.7445
 7172TIP3    H245712   4.680   0.345  12.446  1.1220  1.4928 -0.7521
 7173TIP3   OH245713   3.730   6.968  12.993  0.2752  0.0807  0.9576
 7173TIP3    H145714   3.688   6.964  12.907  1.9143 -1.1995  0.1490
 7173TIP3    H245715   3.661   6.998  13.053 -1.4242 -0.8131 -0.4651
 7174TIP3   OH245716   1.025   1.626  12.729 -0.0977  0.1903  0.3419
 7174TIP3    H145717   1.101   1.652  12.781  0.0719  0.2939  0.0458
 7174TIP3    H245718   1.046   1.656  12.640 -0.0043 -0.7219  0.0409
 7175TIP3   OH245719   2.160   2.067  11.002 -0.0835 -0.3471  0.4002
 7175TIP3    H145720   2.134   1.979  10.976  0.1084  0.0171 -1.1223
 7175TIP3    H245721   2.079   2.118  10.997 -0.3382 -0.5421  1.9339
 7176TIP3   OH245722   3.180   0.534  10.695  0.5527  0.3051  0.1256
 7176TIP3    H145723   3.177   0.623  10.659  2.0106 -0.0310 -0.9260
 7176TIP3    H245724   3.245   0.539  10.765  1.2406 -0.1002 -0.4748
 7177TIP3   OH245725   3.800   6.630  12.684  0.1752  0.4507  0.4175
 7177TIP3    H145726   3.726   6.584  12.724  0.0923  2.0240  2.2253
 7177TIP3    H245727   3.874   6.612  12.741  0.9633 -0.1823 -0.7551
 7178TIP3   OH245728   4.176   6.328  12.681  0.1054 -0.3716  0.7306
 7178TIP3    H145729   4.081   6.322  12.669  0.3185 -1.0108 -0.9399
 7178TIP3    H245730   4.194   6.422  12.679 -0.5612 -0.1996  1.8488
 7179TIP3   OH245731   7.005   1.477  11.184  0.1321  0.4877  0.0771
 7179TIP3    H145732   6.983   1.501  11.274 -1.5808  2.2189 -0.7257
 7179TIP3    H245733   7.034   1.558  11.144  1.1403 -0.3218 -0.8881
 7180TIP3   OH245734   6.521   2.231  11.609  0.0784  0.2327 -0.3494
 7180TIP3    H145735   6.525   2.209  11.516 -3.1936  0.5719 -0.6942
 7180TIP3    H245736   6.431   2.258  11.623 -0.4333 -2.6045  3.5125
 7181TIP3   OH245737   5.609   6.097  12.049  0.2741  0.1327  0.1330
 7181TIP3    H145738   5.661   6.170  12.017  0.0828  0.1267 -0.1927
 7181TIP3    H245739   5.668   6.047  12.105  1.6506 -1.7415 -2.7683
 7182TIP3   OH245740   3.804   0.457  11.440 -0.6574  0.2707 -0.2961
 7182TIP3    H145741   3.887   0.415  11.458 -1.3537 -0.9036  0.3014
 7182TIP3    H245742   3.812   0.545  11.477  0.8965  0.7848 -1.7541
 7183TIP3   OH245743   1.088   0.501  13.272  0.7920 -0.0066  0.2662
 7183TIP3    H145744   1.132   0.523  13.190  0.1557  0.7575  0.1109
 7183TIP3    H245745   1.075   0.406  13.268  1.4947 -0.0889 -0.1463
 7184TIP3   OH245746   0.064   0.383  11.423 -0.1246 -0.0614 -0.6684
 7184TIP3    H145747   0.159   0.382  11.423 -0.1017 -1.2849  0.9978
 7184TIP3    H245748   0.041   0.435  11.346  1.8356 -1.7450 -2.5055
 7185TIP3   OH245749   2.398   3.849  10.790  0.0721  0.1718 -0.0599
 7185TIP3    H145750   2.338   3.890  10.851 -0.6884 -0.2934 -0.4773
 7185TIP3    H245751   2.403   3.910  10.716 -0.5711 -0.1913 -0.4064
 7186TIP3   OH245752   0.958   1.142  12.174  0.5871  0.0269  0.0902
 7186TIP3    H145753   0.919   1.065  12.215 -0.5265  0.5500  0.0419
 7186TIP3    H245754   1.037   1.159  12.226 -0.0694 -0.1405  1.1776
 7187TIP3   OH245755   2.714   6.195  13.706 -0.1848 -0.2946 -0.0576
 7187TIP3    H145756   2.763   6.130  13.657  1.5425  0.4587  0.6036
 7187TIP3    H245757   2.662   6.144  13.769  0.0194 -1.0909 -0.5254
 7188TIP3   OH245758   4.055   3.851  13.765 -0.1279 -0.2415  0.5060
 7188TIP3    H145759   4.054   3.813  13.677  1.2337 -0.7835  0.6882
 7188TIP3    H245760   4.105   3.788  13.818  1.3959  1.3301  1.0328
 7189TIP3   OH245761   3.963   3.157  12.463  0.3258  0.7010 -0.1419
 7189TIP3    H145762   3.921   3.073  12.481 -0.4382  1.3709  1.4120
 7189TIP3    H245763   4.003   3.146  12.377 -0.2170 -1.0650 -0.2080
 7190TIP3   OH245764   4.075   5.453  10.952  0.2157 -0.3055  0.3036
 7190TIP3    H145765   4.158   5.431  10.993  0.1563  0.2839  0.7567
 7190TIP3    H245766   4.049   5.535  10.994 -2.0898 -1.9520  2.3581
 7191TIP3   OH245767   4.728   3.165  12.272 -0.2324 -0.1914  0.3333
 7191TIP3    H145768   4.645   3.149  12.316  0.3760 -1.0900  1.2151
 7191TIP3    H245769   4.770   3.079  12.270 -0.6490 -0.4463 -2.9587
 7192TIP3   OH245770   0.322   0.797  13.851 -0.0831 -0.7626 -0.1091
 7192TIP3    H145771   0.409   0.824  13.823 -0.0844 -1.2642 -0.5983
 7192TIP3    H245772   0.277   0.879  13.873  0.6423 -0.5306  0.5502
 7193TIP3   OH245773   1.817   4.994  12.143 -0.2593 -0.0134  0.0510
 7193TIP3    H145774   1.763   4.922  12.176 -0.6275  0.4792  0.5418
 7193TIP3    H245775   1.754   5.058  12.110  0.0941 -0.7270 -2.1760
 7194TIP3   OH245776   5.179   7.592  12.699 -0.3135  0.6541  0.1204
 7194TIP3    H145777   5.142   7.650  12.765  0.1097  0.8294  0.2038
 7194TIP3    H245778   5.208   7.515  12.748 -3.5737 -1.0397 -0.2943
 7195TIP3   OH245779   7.153   5.451  11.451  0.4677  0.0765  0.0765
 7195TIP3    H145780   7.204   5.513  11.400  0.7653  0.2594  0.5824
 7195TIP3    H245781   7.201   5.369  11.446  1.1014  0.3727  0.9626
 7196TIP3   OH245782   6.927   4.742  10.961  0.2642  0.3795 -0.3809
 7196TIP3    H145783   6.889   4.697  11.037 -0.0540  0.4938 -0.4742
 7196TIP3    H245784   6.941   4.832  10.990  0.3074  0.3795 -0.4006
 7197TIP3   OH245785   0.072   3.726  11.557  0.0782 -0.5173 -0.1217
 7197TIP3    H145786   0.077   3.744  11.651  3.7004  0.8768 -0.4373
 7197TIP3    H245787   0.027   3.803  11.521  1.1469  0.2741  0.2089
 7198TIP3   OH245788   5.177   5.275  12.129  0.4068 -0.3624 -0.0105
 7198TIP3    H145789   5.245   5.209  12.145  0.4158 -0.1611  0.8207
 7198TIP3    H245790   5.103   5.226  12.094  0.2956 -0.8665  0.9098
 7199TIP3   OH245791   2.006   6.402  13.506  0.1648 -0.1570  0.1139
 7199TIP3    H145792   2.050   6.343  13.567 -1.0895 -0.3385  0.8901
 7199TIP3    H245793   2.002   6.486  13.552 -0.7830 -0.2933  0.3130
 7200TIP3   OH245794   3.330   2.657  11.171 -0.2234  0.4810  0.6082
 7200TIP3    H145795   3.393   2.585  11.173 -0.7881 -0.3746 -3.6257
 7200TIP3    H245796   3.245   2.614  11.183 -0.4218  0.7273  0.0829
 7201TIP3   OH245797   5.789   2.516  11.707 -0.1817 -0.2629  0.4930
 7201TIP3    H145798   5.716   2.576  11.724  0.0405 -0.2739  1.5672
 7201TIP3    H245799   5.748   2.431  11.695 -0.6515  0.2688 -2.6110
 7202TIP3   OH245800   0.245   7.531  11.714  0.2988  0.1524 -0.4857
 7202TIP3    H145801   0.182   7.509  11.645 -0.3651 -1.5557  0.6064
 7202TIP3    H245802   0.293   7.450  11.730  0.6145  0.5783  0.8715
 7203TIP3   OH245803   7.416   4.541  13.490  0.0489 -0.2862  0.5414
 7203TIP3    H145804   7.411   4.616  13.550 -1.0289  0.0331  0.0732
 7203TIP3    H245805   7.429   4.580  13.404  0.3575 -0.6885  0.4031
 7204TIP3   OH245806   6.821   6.556  12.725  0.5162  0.5984  0.7290
 7204TIP3    H145807   6.900   6.585  12.771  0.6285 -0.3096  1.1293
 7204TIP3    H245808   6.855   6.515  12.645  0.6437 -1.7163  1.8823
 7205TIP3   OH245809   7.255   1.758  11.415  0.4276  0.6708  0.7375
 7205TIP3    H145810   7.228   1.678  11.369  0.6485  1.2755 -0.4928
 7205TIP3    H245811   7.191   1.823  11.387 -0.1145  0.8131  2.2088
 7206TIP3   OH245812   1.851   2.106  13.122 -0.1931  0.3035  0.4340
 7206TIP3    H145813   1.865   2.056  13.203  0.9812 -0.0929  0.0095
 7206TIP3    H245814   1.872   2.197  13.146  0.7678  0.0921  0.4352
 7207TIP3   OH245815   2.518   7.275  12.692  0.2849  0.1979 -0.5173
 7207TIP3    H145816   2.476   7.224  12.623 -0.7042  0.1988  0.0593
 7207TIP3    H245817   2.496   7.229  12.773 -1.1542  1.8226  0.0821
 7208TIP3   OH245818   0.535   6.856  12.364 -0.0316  0.0367  0.0353
 7208TIP3    H145819   0.547   6.950  12.368  0.1614 -0.0089  0.6119
 7208TIP3    H245820   0.440   6.844  12.356 -0.0709  0.2754  0.1452
 7209TIP3   OH245821   6.878   7.458  12.452 -0.4466  0.0230  0.3420
 7209TIP3    H145822   6.889   7.431  12.543  0.1980  0.8062  0.5083
 7209TIP3    H245823   6.957   7.509  12.433  0.4054 -1.7784 -1.2752
 7210TIP3   OH245824   1.649   6.101  11.074 -0.1544  0.0997  0.1738
 7210TIP3    H145825   1.705   6.049  11.132 -0.3196 -2.2753 -1.6866
 7210TIP3    H245826   1.560   6.086  11.106 -0.0673  0.8615  0.8191
 7211TIP3   OH245827   6.546   3.596  12.984 -0.0424 -0.1484  0.5593
 7211TIP3    H145828   6.496   3.675  12.964 -1.0468 -1.0723 -0.7630
 7211TIP3    H245829   6.635   3.618  12.958 -0.6384 -0.0211 -1.5509
 7212TIP3   OH245830   0.758   3.267  11.151  0.2883 -0.4320 -0.1786
 7212TIP3    H145831   0.766   3.342  11.209  0.1921 -0.0509 -0.6493
 7212TIP3    H245832   0.667   3.266  11.124  0.4822 -0.1790 -0.8754
 7213TIP3   OH245833   6.993   6.347  11.375  0.1895 -0.0329  0.2973
 7213TIP3    H145834   6.948   6.272  11.415  0.5967 -0.8120 -0.6685
 7213TIP3    H245835   6.964   6.347  11.284  1.0285  0.3317  0.0258
 7214TIP3   OH245836   7.526   1.919  10.975  0.5248 -0.0980 -0.1853
 7214TIP3    H145837   7.525   2.014  10.969 -1.9671 -0.1387 -1.9105
 7214TIP3    H245838   7.608   1.893  10.932  0.6524  1.2343 -0.8015
 7215TIP3   OH245839   5.335   4.969  13.318  0.2563  0.4684 -0.0575
 7215TIP3    H145840   5.332   4.885  13.272  0.1142 -0.1906  1.1245
 7215TIP3    H245841   5.391   4.952  13.394 -0.0375  1.3575  0.3650
 7216TIP3   OH245842   1.332   5.720  11.040 -0.1374  0.4249 -0.1579
 7216TIP3    H145843   1.276   5.773  10.983 -3.0966 -0.0481  2.0612
 7216TIP3    H245844   1.344   5.638  10.992 -0.4893  0.9258 -1.1264
 7217TIP3   OH245845   5.801   1.129  11.146 -0.0058 -0.5827 -0.3849
 7217TIP3    H145846   5.744   1.054  11.131 -0.3326  0.0265 -2.6306
 7217TIP3    H245847   5.831   1.120  11.236 -0.7837 -2.8738 -0.3099
 7218TIP3   OH245848   2.548   3.237  13.007  0.8961 -0.1179  0.4392
 7218TIP3    H145849   2.638   3.204  13.014 -0.3283 -4.5597 -0.8727
 7218TIP3    H245850   2.534   3.246  12.913  0.0440  0.8098  0.6514
 7219TIP3   OH245851   7.173   5.530  12.862  0.4569 -0.2383 -1.0170
 7219TIP3    H145852   7.190   5.497  12.950 -0.3068 -1.0053 -1.1398
 7219TIP3    H245853   7.193   5.624  12.868  0.7900 -0.3508 -0.1366
 7220TIP3   OH245854   2.472   7.614  13.248  0.1629 -0.5386 -0.6248
 7220TIP3    H145855   2.511   7.692  13.288  0.9788 -2.2506  2.1296
 7220TIP3    H245856   2.497   7.620  13.156  0.1256  2.4590 -0.5346
 7221TIP3   OH245857   5.320   5.656  11.548  0.4789 -0.1879 -0.8424
 7221TIP3    H145858   5.313   5.583  11.610 -1.1740  0.8204  0.2457
 7221TIP3    H245859   5.357   5.617  11.469  0.2140 -2.0718 -0.0949
 7222TIP3   OH245860   6.103   5.500  11.667  0.2901 -0.5372  0.5873
 7222TIP3    H145861   6.129   5.428  11.610  1.9795 -0.1594  0.8300
 7222TIP3    H245862   6.186   5.539  11.696 -0.5681  1.4809  0.4837
 7223TIP3   OH245863   0.442   2.262  12.842  0.0100 -0.9340 -0.1021
 7223TIP3    H145864   0.523   2.306  12.871 -0.3924  1.3880 -2.1623
 7223TIP3    H245865   0.372   2.314  12.881 -0.4733 -0.3048 -1.7367
 7224TIP3   OH245866   3.731   0.844  11.297 -0.1256 -0.3641 -0.2749
 7224TIP3    H145867   3.785   0.919  11.322  0.9565 -1.6390  1.4197
 7224TIP3    H245868   3.648   0.857  11.343  0.0463 -0.1929 -0.0161
 7225TIP3   OH245869   0.988   4.885  13.671 -0.7720 -0.2109  0.1623
 7225TIP3    H145870   0.911   4.901  13.617 -1.1243 -0.2246  0.6666
 7225TIP3    H245871   1.015   4.795  13.649 -0.1952  0.1872 -0.8884
 7226TIP3   OH245872   0.264   6.747  12.391  0.1690  0.2424 -0.1587
 7226TIP3    H145873   0.216   6.736  12.309 -1.8746  0.0600  0.9921
 7226TIP3    H245874   0.245   6.668  12.441  1.8258  0.1053  0.3355
 7227TIP3   OH245875   7.576   5.808  12.049 -0.2034  0.0395  0.4293
 7227TIP3    H145876   7.518   5.732  12.041  1.1845 -1.2003  1.5041
 7227TIP3    H245877   7.623   5.793  12.131  0.5455  1.7687  0.3450
 7228TIP3   OH245878   2.785   0.471  13.154  0.7443  0.1938 -0.1624
 7228TIP3    H145879   2.698   0.494  13.122  1.1030 -0.1699 -1.4613
 7228TIP3    H245880   2.769   0.417  13.231 -0.1386  1.7456  0.8015
 7229TIP3   OH245881   1.253   2.684  13.284 -0.3293  0.6442  0.2732
 7229TIP3    H145882   1.178   2.699  13.226 -0.4708  0.3653  0.3812
 7229TIP3    H245883   1.223   2.615  13.344 -0.8550  2.1675  1.8487
 7230TIP3   OH245884   1.088   5.792  11.786  0.0089  0.0966  0.2035
 7230TIP3    H145885   1.054   5.770  11.700  2.1320  1.6738 -1.1624
 7230TIP3    H245886   1.054   5.724  11.844  0.1124 -2.2021 -2.2415
 7231TIP3   OH245887   3.111   7.668  10.751  0.3165  0.3645 -0.7001
 7231TIP3    H145888   3.177   7.634  10.691  0.8226  0.5931 -0.2755
 7231TIP3    H245889   3.107   7.762  10.733 -0.7707  0.1778 -1.5662
 7232TIP3   OH245890   0.941   5.527  10.517  0.7554  0.1383  0.5358
 7232TIP3    H145891   0.855   5.485  10.511  0.2608  1.1018  0.6749
 7232TIP3    H245892   0.984   5.507  10.434  0.0481  0.3734  0.1060
 7233TIP3   OH245893   5.194   0.185  11.971 -0.0793 -0.1201  0.3674
 7233TIP3    H145894   5.143   0.116  12.013 -1.3861 -0.3968 -1.5415
 7233TIP3    H245895   5.258   0.139  11.917  0.0556  0.1749  0.2735
 7234TIP3   OH245896   6.041   1.953  12.214 -0.0186 -0.1752  0.6654
 7234TIP3    H145897   6.119   1.972  12.163 -0.7766  2.6336  0.4166
 7234TIP3    H245898   5.975   2.015  12.183 -1.4266 -0.3815  2.9444
 7235TIP3   OH245899   0.638   3.570  12.302 -0.0331  0.1403 -0.2175
 7235TIP3    H145900   0.626   3.489  12.352 -1.8423 -1.2395 -2.6013
 7235TIP3    H245901   0.554   3.615  12.308  0.0232  0.4101 -1.1735
 7236TIP3   OH245902   0.673   4.575  11.812 -0.1993 -0.3925 -0.3350
 7236TIP3    H145903   0.726   4.525  11.749  2.0344  1.2633  0.1112
 7236TIP3    H245904   0.736   4.605  11.878 -1.8368  1.0639  0.6442
 7237TIP3   OH245905   1.864   4.670  13.105  0.0393  0.1804 -0.2541
 7237TIP3    H145906   1.895   4.744  13.156  1.0457  0.9308 -1.8895
 7237TIP3    H245907   1.939   4.611  13.099 -0.5698 -0.7151  0.5050
 7238TIP3   OH245908   4.515   1.365  12.949  0.0292  0.0730 -0.6710
 7238TIP3    H145909   4.547   1.324  13.029 -0.9168  0.2631 -0.1902
 7238TIP3    H245910   4.525   1.459  12.964 -3.0902  0.3303  0.5758
 7239TIP3   OH245911   7.640   0.110  11.755 -0.3096 -0.5693  0.1314
 7239TIP3    H145912   7.677   0.172  11.818 -2.1008  0.3095  0.3861
 7239TIP3    H245913   7.662   0.024  11.791 -1.3494 -0.0889  2.0428
 7240TIP3   OH245914   1.734   1.347  13.365 -0.2992  0.5258 -0.0062
 7240TIP3    H145915   1.649   1.304  13.375 -0.7924  1.3503 -0.5166
 7240TIP3    H245916   1.727   1.394  13.283  1.0292 -0.2042 -0.5713
 7241TIP3   OH245917   1.273   4.414  12.433 -0.3923 -0.5231  0.0612
 7241TIP3    H145918   1.268   4.489  12.492 -0.8711  0.5597 -1.2971
 7241TIP3    H245919   1.317   4.346  12.483 -0.0910  0.6167  1.3818
 7242TIP3   OH245920   2.813   6.991  11.360  0.1143  1.1417 -0.0702
 7242TIP3    H145921   2.839   6.988  11.452 -0.5784 -1.0887  0.1206
 7242TIP3    H245922   2.734   6.937  11.356 -0.9796  2.7586 -1.6692
 7243TIP3   OH245923   5.263   4.991  11.019  0.7891  0.2121 -0.4005
 7243TIP3    H145924   5.180   5.017  10.978  0.1417 -2.5963 -1.0814
 7243TIP3    H245925   5.239   4.965  11.108  0.4325 -2.5639 -1.1994
 7244TIP3   OH245926   7.595   7.615  12.960 -0.0274 -0.5721 -0.1259
 7244TIP3    H145927   7.644   7.648  12.885 -0.1627 -2.1437 -0.9293
 7244TIP3    H245928   7.657   7.620  13.033  0.0567  1.1080 -0.2546
 7245TIP3   OH245929   1.561   2.111  12.600 -0.0495  0.0273  0.5694
 7245TIP3    H145930   1.587   2.021  12.583  2.5442  0.4638  1.7493
 7245TIP3    H245931   1.641   2.162  12.585 -1.0611  1.9573  1.3604
 7246TIP3   OH245932   7.364   3.684  13.100 -0.2522 -0.1294  0.3256
 7246TIP3    H145933   7.417   3.640  13.167  0.1932 -0.0918  0.0027
 7246TIP3    H245934   7.343   3.769  13.137 -2.9730 -1.3390  1.9062
 7247TIP3   OH245935   4.383   4.046  12.959 -0.0925 -0.1307 -0.2108
 7247TIP3    H145936   4.363   3.964  13.004 -1.9374  0.5151  0.2224
 7247TIP3    H245937   4.384   4.024  12.866  1.8455 -1.0950 -0.0081
 7248TIP3   OH245938   5.299   2.388  11.962  0.0972  0.1440 -0.1374
 7248TIP3    H145939   5.284   2.298  11.991 -1.3005  0.4134  0.0304
 7248TIP3    H245940   5.343   2.430  12.036 -0.2680 -0.0993  0.2195
 7249TIP3   OH245941   6.197   4.272  11.616 -0.4205  0.3155 -0.3849
 7249TIP3    H145942   6.148   4.191  11.632 -2.5959  1.5933 -0.1043
 7249TIP3    H245943   6.267   4.271  11.682 -1.4275 -0.5609  0.7342
 7250TIP3   OH245944   7.132   1.209  11.827  0.1434  0.5205  0.1517
 7250TIP3    H145945   7.187   1.132  11.840 -0.1230  0.4300  0.8326
 7250TIP3    H245946   7.053   1.190  11.879 -0.3592  0.8162 -0.4899
 7251TIP3   OH245947   1.749   1.346  12.911 -0.5804 -0.0872 -0.0299
 7251TIP3    H145948   1.744   1.374  13.003  0.4285  1.2930 -0.3628
 7251TIP3    H245949   1.776   1.424  12.864  0.6741 -1.2174 -1.2594
 7252TIP3   OH245950   4.264   2.842  11.948 -0.9534  0.0080  0.3274
 7252TIP3    H145951   4.221   2.789  11.882 -0.9062 -0.2842  0.5284
 7252TIP3    H245952   4.334   2.887  11.902 -0.8620 -0.2672  0.1999
 7253TIP3   OH245953   7.055   5.294  10.883 -0.5342 -0.1593  0.3930
 7253TIP3    H145954   7.070   5.308  10.790  1.5963 -0.4132  0.6583
 7253TIP3    H245955   6.985   5.356  10.906  0.4703  1.5249 -0.8991
 7254TIP3   OH245956   1.631   0.860  11.406 -0.5327  0.0932  0.6914
 7254TIP3    H145957   1.556   0.919  11.417  1.0151  2.0788  1.3559
 7254TIP3    H245958   1.707   0.915  11.427  1.1230 -1.8008 -0.0482
 7255TIP3   OH245959   6.013   7.649  11.294 -0.9576  0.3688 -0.5238
 7255TIP3    H145960   6.079   7.601  11.245  1.3855  0.5371  2.2050
 7255TIP3    H245961   5.984   7.587  11.362 -1.0288  1.3931  0.4114
 7256TIP3   OH245962   5.026   7.126  12.605  1.0095 -0.0767 -0.0109
 7256TIP3    H145963   5.067   7.203  12.565  2.3079 -0.6547  0.1477
 7256TIP3    H245964   5.087   7.100  12.675 -0.6107  0.1926  1.5877
 7257TIP3   OH245965   0.006   3.443  12.136  0.6340  0.4071 -0.0329
 7257TIP3    H145966   0.065   3.376  12.102  0.0081  0.2789 -0.8895
 7257TIP3    H245967  -0.078   3.424  12.095 -0.0071  0.5970  1.1567
 7258TIP3   OH245968   5.971   4.731  11.598 -0.3197 -0.1348 -0.1396
 7258TIP3    H145969   6.026   4.764  11.669 -0.5552  0.7597 -0.3597
 7258TIP3    H245970   5.912   4.804  11.577  0.5328  0.0859 -2.0482
 7259TIP3   OH245971   0.993   2.938  11.716  0.6461 -0.0870 -0.3404
 7259TIP3    H145972   1.079   2.955  11.678  0.6974  0.3515 -0.0281
 7259TIP3    H245973   0.943   2.898  11.645  0.5483  1.2635 -1.0648
 7260TIP3   OH245974   4.322   4.768  13.176 -0.3114 -0.2182  0.2333
 7260TIP3    H145975   4.310   4.854  13.217  0.2768 -0.7382  1.5522
 7260TIP3    H245976   4.411   4.742  13.199 -0.2130 -0.8609 -0.7950
 7261TIP3   OH245977   6.479   3.852  11.093 -0.6326  0.3232 -0.1323
 7261TIP3    H145978   6.562   3.893  11.068  0.8812 -1.7448  1.1984
 7261TIP3    H245979   6.460   3.791  11.021 -0.3212 -0.1051  0.1444
 7262TIP3   OH245980   5.990   5.356  12.327  0.2063  0.2938 -0.1090
 7262TIP3    H145981   6.000   5.385  12.236  2.4569  1.7378  0.5291
 7262TIP3    H245982   5.987   5.261  12.321  2.8401  0.2145 -1.5657
 7263TIP3   OH245983   3.175   2.020  10.807  0.1115  0.2376 -0.1311
 7263TIP3    H145984   3.244   1.965  10.844 -0.3334 -0.1102  0.2040
 7263TIP3    H245985   3.100   1.961  10.798 -0.3638  0.7816  0.1968
 7264TIP3   OH245986   7.656   0.544  12.063 -0.4554 -0.0515 -0.2013
 7264TIP3    H145987   7.742   0.514  12.094  0.4815  2.4102 -0.1802
 7264TIP3    H245988   7.594   0.507  12.126  0.4128 -2.7301 -0.7987
 7265TIP3   OH245989   2.960   6.121  17.322 -0.5612  0.2889 -1.0718
 7265TIP3    H145990   2.956   6.189  17.255 -0.6010  1.7496  0.3632
 7265TIP3    H245991   2.922   6.044  17.279 -1.8262  1.5260 -2.2965
 7266TIP3   OH245992   3.589   0.021  12.115 -0.9508  0.4991 -0.0945
 7266TIP3    H145993   3.652   0.022  12.043 -0.6723 -0.5323  0.1230
 7266TIP3    H245994   3.638   0.054  12.190 -0.9053  0.4596 -0.1072
 7267TIP3   OH245995   0.990   6.133  12.513  0.2919 -0.2411 -0.3717
 7267TIP3    H145996   1.034   6.190  12.449  0.7467  0.7474  0.7851
 7267TIP3    H245997   0.941   6.194  12.569 -0.0360 -1.0759  0.2605
 7268TIP3   OH245998   3.071   7.378  12.678 -0.5315 -0.1268 -0.0254
 7268TIP3    H145999   2.987   7.411  12.649 -0.6916 -0.1763  0.3697
 7268TIP3    H246000   3.063   7.371  12.773  0.1066  0.4095  0.0814
 7269TIP3   OH246001   4.801   3.654  12.370 -0.1915 -0.4148 -0.2350
 7269TIP3    H146002   4.786   3.748  12.372 -0.4427 -0.4519 -0.3891
 7269TIP3    H246003   4.897   3.645  12.374 -0.1843 -0.1670  0.2152
 7270TIP3   OH246004   0.477   3.640  12.700  0.3897  0.2399 -0.5181
 7270TIP3    H146005   0.501   3.604  12.785 -0.3465 -1.1834 -0.8876
 7270TIP3    H246006   0.413   3.579  12.665  1.4943  0.1691 -2.5823
 7271TIP3   OH246007   5.941   7.446  12.658 -0.0069  0.2531  0.4210
 7271TIP3    H146008   6.002   7.390  12.611  0.5381  1.5181 -0.4371
 7271TIP3    H246009   5.876   7.471  12.593 -0.6800  0.0073  0.9896
 7272TIP3   OH246010   2.945   0.377  11.350 -0.5408 -0.1650  0.1948
 7272TIP3    H146011   3.031   0.414  11.332 -0.5947 -0.0211  0.2310
 7272TIP3    H246012   2.948   0.289  11.313 -0.0184 -0.5501  1.1089
 7273TIP3   OH246013   2.933   5.437  12.676  0.2126 -0.0775 -0.2270
 7273TIP3    H146014   2.940   5.379  12.752  1.2835 -0.0491 -0.2815
 7273TIP3    H246015   3.022   5.440  12.641  1.4151  5.0579  2.3059
 7274TIP3   OH246016   3.022   1.593  13.081 -0.0803 -0.3830 -0.1646
 7274TIP3    H146017   2.983   1.679  13.100  0.3799 -0.1987 -0.0445
 7274TIP3    H246018   3.014   1.545  13.163 -0.3134 -0.4472 -0.2235
 7275TIP3   OH246019   5.090   2.018  12.732 -0.3311 -0.1972  0.2237
 7275TIP3    H146020   5.049   2.076  12.668  1.2615  0.5243 -0.1812
 7275TIP3    H246021   5.140   1.955  12.680 -3.6181 -3.4051  0.5075
 7276TIP3   OH246022   0.856   4.997  12.995  0.4350 -0.2350 -0.2173
 7276TIP3    H146023   0.888   5.083  12.968  0.9569  0.1125  1.3891
 7276TIP3    H246024   0.798   5.015  13.069  1.0045 -1.2867  0.5211
 7277TIP3   OH246025   4.202   1.695  11.340 -0.3223 -0.3323  0.0496
 7277TIP3    H146026   4.266   1.674  11.409  2.7783  2.6439 -1.5852
 7277TIP3    H246027   4.163   1.778  11.367 -0.5811 -0.1600 -0.8121
 7278TIP3   OH246028   5.857   4.237  11.817  0.0128 -0.1080 -0.4975
 7278TIP3    H146029   5.920   4.176  11.780  0.4157  0.5396 -0.8958
 7278TIP3    H246030   5.881   4.322  11.780 -1.8128 -0.0161 -1.5781
 7279TIP3   OH246031   2.167   1.944  13.774  0.0028  0.3454  0.0156
 7279TIP3    H146032   2.148   1.987  13.858 -1.0884  1.2154 -0.6492
 7279TIP3    H246033   2.262   1.931  13.775 -0.1764 -1.2891  2.1283
 7280TIP3   OH246034   3.623   2.409  12.198  0.2077 -0.0694 -0.4667
 7280TIP3    H146035   3.698   2.469  12.200 -0.0128  0.1947  0.0841
 7280TIP3    H246036   3.637   2.350  12.272 -1.0624  1.1500  0.7963
 7281TIP3   OH246037   2.081   1.868  11.374  0.4091 -0.4357 -0.6977
 7281TIP3    H146038   2.160   1.893  11.326  0.9463  2.2008  1.3058
 7281TIP3    H246039   2.112   1.806  11.440  0.6405 -0.1341 -0.5202
 7282TIP3   OH246040   5.162   6.273  11.307 -0.6925  0.7156 -0.3019
 7282TIP3    H146041   5.099   6.326  11.260 -1.6182  1.0786  1.2662
 7282TIP3    H246042   5.163   6.309  11.396  0.4891 -0.3381  0.1552
 7283TIP3   OH246043   2.131   1.689  11.588 -0.0475 -0.2473 -0.0664
 7283TIP3    H146044   2.140   1.685  11.683  0.0036 -0.9578 -0.0951
 7283TIP3    H246045   2.184   1.617  11.555 -0.2754 -0.1734 -0.6217
 7284TIP3   OH246046   1.231   3.070  11.839 -0.3212  0.0179  0.5347
 7284TIP3    H146047   1.214   2.990  11.789  1.4713 -0.6734  0.9452
 7284TIP3    H246048   1.240   3.040  11.930  1.6910  0.4186  0.5263
 7285TIP3   OH246049   1.540   3.914  11.431 -0.4215 -0.2680 -0.1570
 7285TIP3    H146050   1.465   3.859  11.452  0.0019 -0.5234  0.7216
 7285TIP3    H246051   1.539   3.983  11.498  0.9879 -1.1285  0.8060
 7286TIP3   OH246052   6.186   4.782  11.784  0.4769  0.6485 -0.8181
 7286TIP3    H146053   6.219   4.693  11.789 -2.3705 -0.5566 -1.3184
 7286TIP3    H246054   6.241   4.825  11.718  1.7652 -0.7896 -0.7172
 7287TIP3   OH246055   4.466   4.077  12.647  0.0995  0.4995 -0.1809
 7287TIP3    H146056   4.462   4.085  12.552  0.8610  1.1043 -0.1693
 7287TIP3    H246057   4.501   4.161  12.677  0.3447  0.1291  0.5963
 7288TIP3   OH246058   2.386   5.167  11.834  0.1031  0.5780  0.1326
 7288TIP3    H146059   2.360   5.253  11.866 -0.4921 -0.2517  2.0238
 7288TIP3    H246060   2.482   5.173  11.826  0.0688  1.4102  0.2011
 7289TIP3   OH246061   1.016   5.242  13.938 -0.0309 -0.4272  0.4084
 7289TIP3    H146062   0.972   5.316  13.980  0.7781 -0.0051  0.5177
 7289TIP3    H246063   0.952   5.209  13.875  0.2115  1.4072 -0.8559
 7290TIP3   OH246064   5.866   5.873  13.306 -0.3449 -0.5394 -0.1854
 7290TIP3    H146065   5.880   5.779  13.290  1.0145 -0.1276 -1.7331
 7290TIP3    H246066   5.954   5.909  13.314 -0.8469  0.2537  3.1571
 7291TIP3   OH246067   5.880   2.207  12.418  0.4496  0.5970 -0.2356
 7291TIP3    H146068   5.818   2.164  12.359 -0.9472  1.3663  0.6184
 7291TIP3    H246069   5.854   2.177  12.506  2.3506 -0.3504  0.0515
 7292TIP3   OH246070   0.961   0.830  13.144 -0.4671 -0.2585  0.0512
 7292TIP3    H146071   0.918   0.806  13.227 -0.4776 -0.4688 -0.0163
 7292TIP3    H246072   0.892   0.822  13.079 -0.4697 -0.0501  0.0270
 7293TIP3   OH246073   5.115   5.647  10.988 -0.7909  0.2174 -0.4102
 7293TIP3    H146074   5.139   5.629  11.078  0.3156  1.2909 -0.4544
 7293TIP3    H246075   5.156   5.732  10.969  0.3594 -0.7028 -2.3998
 7294TIP3   OH246076   1.765   3.733  11.371 -0.0264  0.1090  0.0871
 7294TIP3    H146077   1.719   3.657  11.406 -1.7207  0.8570 -0.4063
 7294TIP3    H246078   1.707   3.806  11.388 -0.1226  0.7777 -2.5984
 7295TIP3   OH246079   2.847   7.539  12.186  0.0846  0.1565 -0.4245
 7295TIP3    H146080   2.900   7.606  12.229 -0.2204  0.2843 -0.2527
 7295TIP3    H246081   2.761   7.579  12.176 -0.9485 -1.1755  2.2082
 7296TIP3   OH246082   4.276   6.612  13.061 -0.1906 -0.5245  0.1436
 7296TIP3    H146083   4.228   6.613  13.144  1.5888 -0.6000  1.2041
 7296TIP3    H246084   4.249   6.530  13.019 -0.1960 -1.0714  1.1900
 7297TIP3   OH246085   3.722   2.570  11.249  0.3725  0.3802  0.4578
 7297TIP3    H146086   3.639   2.533  11.219 -0.0153  0.0679  1.8145
 7297TIP3    H246087   3.699   2.624  11.325  1.2539  1.3894  0.0333
 7298TIP3   OH246088   1.601   5.136  12.095 -0.5438  0.6730 -0.4952
 7298TIP3    H146089   1.507   5.136  12.078 -0.6049  3.6947 -0.6734
 7298TIP3    H246090   1.641   5.165  12.013  0.5838 -0.5295 -0.4100
 7299TIP3   OH246091   6.593   4.296  11.212  0.2512  0.5723 -0.0872
 7299TIP3    H146092   6.532   4.256  11.274 -0.1290 -0.6401 -1.1969
 7299TIP3    H246093   6.537   4.335  11.145  0.6754  0.1794 -0.6781
 7300TIP3   OH246094   1.971   0.289  11.290 -0.0025 -0.0654  0.3071
 7300TIP3    H146095   1.882   0.272  11.321 -0.5499 -0.3621 -1.3258
 7300TIP3    H246096   2.027   0.260  11.362 -1.1359 -2.5623  0.3025
 7301TIP3   OH246097   4.808   6.897  11.854 -0.1127 -0.1872 -0.1069
 7301TIP3    H146098   4.842   6.897  11.943  0.6580  1.1655 -0.3698
 7301TIP3    H246099   4.738   6.962  11.854  0.3767  0.3553 -0.6482
 7302TIP3   OH246100   5.179   5.231  13.023  0.0108 -0.0330 -0.3840
 7302TIP3    H146101   5.185   5.296  12.954 -2.1359  0.2617 -0.3575
 7302TIP3    H246102   5.086   5.211  13.030  0.4266 -1.8417  0.7890
 7303TIP3   OH246103   3.458   7.516  11.834  0.1488  0.7928 -0.2122
 7303TIP3    H146104   3.399   7.517  11.759 -0.0429 -0.0903 -0.0845
 7303TIP3    H246105   3.470   7.608  11.856 -0.1317  1.0416 -1.0589
 7304TIP3   OH246106   0.869   4.545  13.200 -0.5246 -0.4569  0.0354
 7304TIP3    H146107   0.797   4.550  13.263  0.3682  0.7828  1.0087
 7304TIP3    H246108   0.855   4.620  13.141 -0.5722 -0.7951 -0.3901
 7305TIP3   OH246109   2.159   6.014  11.746  0.4579  0.4406  0.6303
 7305TIP3    H146110   2.213   5.978  11.815  0.6588  0.9802  0.7629
 7305TIP3    H246111   2.171   6.109  11.753  2.5856  0.4705 -1.8207
 7306TIP3   OH246112   6.803   0.737  12.218 -0.1658 -0.0500 -0.2577
 7306TIP3    H146113   6.738   0.755  12.286 -0.8667 -0.0331 -0.9318
 7306TIP3    H246114   6.774   0.656  12.177 -0.4130  0.5847 -1.3496
 7307TIP3   OH246115   3.486   1.984  11.305  0.0679  0.3045  0.3223
 7307TIP3    H146116   3.447   1.899  11.283  0.0105  0.3174  0.3730
 7307TIP3    H246117   3.465   2.040  11.230 -0.5219  0.4754  0.6088
 7308TIP3   OH246118   6.543   6.393  11.414  0.0496 -1.2675 -0.2160
 7308TIP3    H146119   6.577   6.338  11.343  1.1326  0.0134 -0.7332
 7308TIP3    H246120   6.518   6.475  11.372 -0.0379 -0.7686  0.7667
 7309TIP3   OH246121   2.497   1.352  10.855 -0.4833  0.5523  0.2247
 7309TIP3    H146122   2.430   1.353  10.787  0.0905  0.1506 -0.3492
 7309TIP3    H246123   2.497   1.263  10.888 -0.3902  0.6126  0.3881
 7310TIP3   OH246124   4.536   7.075  12.098  0.0733  0.5370  0.2930
 7310TIP3    H146125   4.452   7.099  12.138  0.3193 -0.0702  1.2213
 7310TIP3    H246126   4.596   7.066  12.173  0.7624  0.1735 -0.2919
 7311TIP3   OH246127   0.285   3.014  11.289  0.1428  0.3129  0.5539
 7311TIP3    H146128   0.333   3.004  11.371  1.4591  0.9952 -0.0943
 7311TIP3    H246129   0.257   3.106  11.290  2.3085  1.0760 -0.8038
 7312TIP3   OH246130   2.034   3.944  11.216  0.1991  0.5308 -0.1228
 7312TIP3    H146131   2.085   3.957  11.295 -0.5343  0.3303  0.4004
 7312TIP3    H246132   2.044   3.850  11.196  1.2358  0.7808 -0.8894
 7313TIP3   OH246133   6.314   3.138  12.602  0.1491 -0.2495 -0.1870
 7313TIP3    H146134   6.391   3.099  12.643  0.2975  0.2315  0.0046
 7313TIP3    H246135   6.241   3.083  12.630  0.1028  0.6518  1.5839
 7314TIP3   OH246136   2.878   1.673  11.308 -0.6014  0.1146 -0.2125
 7314TIP3    H146137   2.887   1.596  11.252 -0.2682  0.3010 -0.4185
 7314TIP3    H246138   2.823   1.644  11.380 -0.6844 -0.2470 -0.4196
 7315TIP3   OH246139   0.668   4.606  13.384 -0.0105  0.2848 -0.6346
 7315TIP3    H146140   0.628   4.682  13.426 -0.6734 -0.4405  0.0765
 7315TIP3    H246141   0.604   4.579  13.319  0.0658  0.1216 -0.6403
 7316TIP3   OH246142   1.834   3.381  11.098  0.3186  0.1282  0.0480
 7316TIP3    H146143   1.920   3.388  11.057  1.2868  1.1509  2.1279
 7316TIP3    H246144   1.817   3.468  11.134 -1.2739 -0.2501  0.3153
 7317TIP3   OH246145   5.157   5.158  13.474  0.8968  0.2901  0.1551
 7317TIP3    H146146   5.225   5.124  13.533 -0.2720 -0.5451  1.0617
 7317TIP3    H246147   5.137   5.085  13.415  0.7507  0.5143 -0.0763
 7318TIP3   OH246148   1.461   4.120  11.598 -0.2781  0.2018 -0.8571
 7318TIP3    H146149   1.395   4.162  11.543  1.3570  1.7985 -1.7252
 7318TIP3    H246150   1.426   4.124  11.686 -0.6714  2.4634 -1.0711
 7319TIP3   OH246151   4.761   1.642  12.858  0.1927 -0.1729  0.4686
 7319TIP3    H146152   4.718   1.664  12.776  1.1610  1.0235  0.2464
 7319TIP3    H246153   4.692   1.650  12.924 -0.0200  1.4407  0.0901
 7320TIP3   OH246154   7.047   4.077  12.328  0.2081  0.1270 -0.6242
 7320TIP3    H146155   7.128   4.040  12.294 -0.0627 -0.8981 -0.2148
 7320TIP3    H246156   7.068   4.168  12.346  1.7248 -0.4551  0.8585
 7321TIP3   OH246157   6.483   3.057  13.167  0.4001  0.2238 -0.4259
 7321TIP3    H146158   6.393   3.038  13.141  0.9159 -2.0491 -0.7294
 7321TIP3    H246159   6.489   3.026  13.258  1.0322 -0.2372 -0.6151
 7322TIP3   OH246160   6.844   6.666  11.960 -0.2001  0.4847  0.3368
 7322TIP3    H146161   6.894   6.637  12.036  0.0320 -1.0082 -0.3224
 7322TIP3    H246162   6.753   6.644  11.980 -0.3985  1.7987  0.9211
 7323TIP3   OH246163   6.093   0.926  12.433 -0.2541  1.0553  0.2703
 7323TIP3    H146164   6.107   0.936  12.527  0.9805 -0.2250  0.2611
 7323TIP3    H246165   6.061   0.836  12.423 -0.8458  1.3355 -0.4986
 7324TIP3   OH246166   3.375   6.273  12.753  0.5628 -0.5379 -0.3050
 7324TIP3    H146167   3.359   6.279  12.659 -1.0256  1.9837  0.0283
 7324TIP3    H246168   3.464   6.307  12.764  0.1909  0.6616 -0.7963
 7325TIP3   OH246169   5.536   2.366  12.954 -0.0110 -0.1644  0.3432
 7325TIP3    H146170   5.525   2.272  12.945  0.2905 -0.2374  0.7382
 7325TIP3    H246171   5.626   2.383  12.926 -0.1187  0.0310  0.1062
 7326TIP3   OH246172   5.345   3.541  12.481  0.4386 -0.3019 -0.3879
 7326TIP3    H146173   5.361   3.452  12.511  0.1206  0.0285  0.7914
 7326TIP3    H246174   5.432   3.579  12.468  0.6426  0.0448  1.6558
 7327TIP3   OH246175   7.245   6.941  10.960 -0.0977  0.1203 -0.3316
 7327TIP3    H146176   7.256   6.954  11.054 -1.1727 -2.7747  0.2844
 7327TIP3    H246177   7.153   6.915  10.950  0.3220 -0.8387 -2.0153
 7328TIP3   OH246178   3.115   2.889  11.821 -0.0315 -0.0070  0.0779
 7328TIP3    H146179   3.207   2.870  11.839  0.5879  1.7382 -1.0012
 7328TIP3    H246180   3.080   2.920  11.905  0.6254  0.2249  0.2723
 7329TIP3   OH246181   3.576   0.461  12.526 -0.3135 -0.7966  0.1282
 7329TIP3    H146182   3.663   0.501  12.530 -0.5790 -0.2433  0.4368
 7329TIP3    H246183   3.555   0.461  12.432 -0.0772 -0.7133  0.0740
 7330TIP3   OH246184   4.979   7.428  12.339 -0.1281  0.3987  0.5366
 7330TIP3    H146185   4.924   7.505  12.329 -0.2099  0.3138  0.3192
 7330TIP3    H246186   4.955   7.372  12.265 -0.7808 -0.2726  1.2387
 7331TIP3   OH246187   7.033   0.679  12.997  0.1475 -0.0391 -0.5872
 7331TIP3    H146188   7.004   0.591  12.970  0.7288 -0.7432  0.9642
 7331TIP3    H246189   6.954   0.731  12.999 -0.2223 -0.5363 -1.4404
 7332TIP3   OH246190   7.427   2.948  12.177  0.0606  0.3602 -0.3308
 7332TIP3    H146191   7.455   3.039  12.180  2.2373 -0.2599 -0.0304
 7332TIP3    H246192   7.472   2.911  12.101 -3.6013  0.2885 -2.7434
 7333TIP3   OH246193   3.431   6.728  12.211  0.3773 -0.1307  0.1880
 7333TIP3    H146194   3.395   6.679  12.284  0.4340  0.5569  0.6852
 7333TIP3    H246195   3.511   6.768  12.246  0.7914 -0.3744 -0.4542
 7334TIP3   OH246196   6.613   4.738  12.273  0.1871 -0.0007 -0.8760
 7334TIP3    H146197   6.546   4.776  12.330 -1.3228  1.4414 -3.4305
 7334TIP3    H246198   6.683   4.804  12.272  0.9011 -0.7060  0.4067
 7335TIP3   OH246199   1.038   1.916  11.451 -0.0920  0.2567  0.0794
 7335TIP3    H146200   1.123   1.926  11.494 -1.0780 -0.7716  2.4602
 7335TIP3    H246201   1.014   1.824  11.466 -1.3871  0.3862 -1.0148
 7336TIP3   OH246202   2.492   7.646  12.944 -0.4816  0.3789 -0.0856
 7336TIP3    H146203   2.508   7.625  12.852  0.3111  1.7401 -0.2961
 7336TIP3    H246204   2.526   7.735  12.954  2.1003 -0.7091  2.1755
 7337TIP3   OH246205   1.573   3.963  12.596  0.4254  0.0548  0.1795
 7337TIP3    H146206   1.605   4.019  12.666  0.1893  2.2687 -1.3563
 7337TIP3    H246207   1.532   3.889  12.641  0.8737  1.0323  2.3337
 7338TIP3   OH246208   0.241   7.028  12.620  0.7860 -0.1735 -0.4357
 7338TIP3    H146209   0.283   7.026  12.534  0.3511 -1.5642 -0.6403
 7338TIP3    H246210   0.165   7.086  12.609  0.5769 -0.5590 -1.0698
 7339TIP3   OH246211   4.524   3.771  12.429 -0.4810  0.2251 -0.3774
 7339TIP3    H146212   4.605   3.822  12.432  0.4811 -1.2088 -0.9071
 7339TIP3    H246213   4.521   3.738  12.339 -0.9279 -0.8707  0.0320
 7340TIP3   OH246214   2.570   5.638  13.432 -0.2013 -0.2140  0.5496
 7340TIP3    H146215   2.628   5.695  13.484  0.5723  0.0597 -0.5689
 7340TIP3    H246216   2.582   5.551  13.469  1.2926 -0.2381  0.0654
 7341TIP3   OH246217   2.590   6.836  12.133  0.2596 -0.0794 -0.3113
 7341TIP3    H146218   2.606   6.804  12.222  1.6380 -0.8924 -0.8131
 7341TIP3    H246219   2.667   6.808  12.084 -0.4074  0.4897 -1.7329
 7342TIP3   OH246220   5.770   2.490  10.825 -0.3472 -0.1767  0.3480
 7342TIP3    H146221   5.842   2.522  10.770  1.6270 -1.2309  2.1335
 7342TIP3    H246222   5.720   2.568  10.846  0.3966  0.6431 -0.7808
 7343TIP3   OH246223   0.452   5.441  11.203  0.8301  0.0085  0.9411
 7343TIP3    H146224   0.429   5.531  11.182  0.4034 -0.1311  0.7877
 7343TIP3    H246225   0.492   5.407  11.123 -0.3485 -0.3764  0.5035
 7344TIP3   OH246226   1.402   3.265  12.641 -0.3128  0.4174  0.3586
 7344TIP3    H146227   1.329   3.206  12.661 -0.0560  0.2228  0.7296
 7344TIP3    H246228   1.365   3.353  12.647 -0.0838  0.4076  2.4422
 7345TIP3   OH246229   2.106   3.453  11.034  0.0500 -0.2015 -0.1606
 7345TIP3    H146230   2.102   3.534  10.983 -1.0235 -0.5372 -0.6306
 7345TIP3    H246231   2.143   3.480  11.118 -2.3655  1.2402  0.5156
 7346TIP3   OH246232   4.542   4.405  11.987 -0.6722 -0.2691 -0.0363
 7346TIP3    H146233   4.631   4.377  12.010 -0.2884  1.0010  0.0576
 7346TIP3    H246234   4.537   4.391  11.892 -0.3647 -0.3287 -0.0457
 7347TIP3   OH246235   0.020   5.463  13.091 -1.0638  0.1922 -0.0708
 7347TIP3    H146236   0.092   5.506  13.137  0.1026 -0.1573 -1.4749
 7347TIP3    H246237  -0.007   5.392  13.148  0.5313 -0.4111 -0.0353
 7348TIP3   OH246238   2.939   2.804  13.488  0.4797 -0.2629  0.4125
 7348TIP3    H146239   3.032   2.794  13.510  0.4332  0.9420  1.2500
 7348TIP3    H246240   2.940   2.841  13.399  0.7488 -1.6013 -0.1661
 7349TIP3   OH246241   0.546   1.793  11.626 -0.5094  0.0863 -0.5956
 7349TIP3    H146242   0.479   1.852  11.594  1.8535  2.4701 -1.5046
 7349TIP3    H246243   0.565   1.824  11.715  1.4073  1.4368 -1.4166
 7350TIP3   OH246244   0.745   0.951  13.602 -0.5337 -0.8167  0.4450
 7350TIP3    H146245   0.806   0.879  13.616 -1.8001 -1.7747  1.3052
 7350TIP3    H246246   0.794   1.030  13.626  1.4894 -1.1075 -2.2770
 7351TIP3   OH246247   1.054   7.559  12.001  0.3736  0.1344  0.3305
 7351TIP3    H146248   1.083   7.649  12.011 -0.7317  0.5011  0.2752
 7351TIP3    H246249   0.984   7.549  12.065  1.6414 -1.2167  1.6043
 7352TIP3   OH246250   0.037   6.831  13.114 -0.2487  0.0309 -0.3941
 7352TIP3    H146251   0.068   6.741  13.103 -0.4309 -0.0066 -0.5971
 7352TIP3    H246252   0.112   6.878  13.149 -0.2722 -0.2922  0.1017
 7353TIP3   OH246253   0.093   1.583  13.214  0.4656  0.2624 -0.8251
 7353TIP3    H146254   0.081   1.490  13.232 -0.4315  0.2880 -1.2129
 7353TIP3    H246255   0.076   1.626  13.299  0.0909  0.1177 -0.8216
 7354TIP3   OH246256   2.138   2.773  12.631 -0.3031 -0.3250  0.2307
 7354TIP3    H146257   2.188   2.825  12.694  1.1079 -0.3598 -0.7979
 7354TIP3    H246258   2.093   2.838  12.577 -1.2900 -0.2887  1.0762
 7355TIP3   OH246259   6.992   2.532  11.192  0.4550 -0.2886  0.2418
 7355TIP3    H146260   6.962   2.616  11.229  0.5102  0.1989 -0.7975
 7355TIP3    H246261   6.921   2.506  11.132  1.0474 -0.2966 -0.4656
 7356TIP3   OH246262   3.584   7.458  12.926  0.7980  0.0029 -0.5255
 7356TIP3    H146263   3.511   7.519  12.911  0.2571 -0.9403 -1.9635
 7356TIP3    H246264   3.616   7.480  13.013 -2.1643 -0.5045  0.8223
 7357TIP3   OH246265   0.329   1.314  13.161 -0.8464 -0.8014 -0.4532
 7357TIP3    H146266   0.311   1.220  13.169  0.7161 -1.0213  1.0647
 7357TIP3    H246267   0.304   1.350  13.246  0.4858 -0.1908 -0.3061
 7358TIP3   OH246268   5.106   2.717  11.289 -0.1638 -0.8904  0.2976
 7358TIP3    H146269   5.144   2.703  11.376 -0.7148  0.4321  0.7847
 7358TIP3    H246270   5.052   2.640  11.274 -1.7071 -0.2417  2.0677
 7359TIP3   OH246271   0.713   5.765  12.075 -0.3141 -0.4300 -0.3725
 7359TIP3    H146272   0.679   5.734  12.159  0.8570  0.3958  0.4369
 7359TIP3    H246273   0.746   5.853  12.093  0.5398 -0.4825 -1.5483
 7360TIP3   OH246274   7.165   3.748  12.569  0.5255  0.0269 -0.3295
 7360TIP3    H146275   7.208   3.800  12.501  0.3985  0.1591 -0.3085
 7360TIP3    H246276   7.196   3.785  12.651 -0.7804  1.1036 -0.2952
 7361TIP3   OH246277   5.007   4.455  11.293 -0.1713  0.3903 -0.3367
 7361TIP3    H146278   4.957   4.397  11.236  0.1548 -2.0019  1.6139
 7361TIP3    H246279   4.941   4.501  11.345 -0.4182 -0.2459 -0.0802
 7362TIP3   OH246280   0.474   3.977  13.269  0.7306  0.0957  0.1483
 7362TIP3    H146281   0.399   3.928  13.236  1.9447 -0.8076 -1.4305
 7362TIP3    H246282   0.451   4.069  13.252 -0.3577 -0.0944  0.4965
 7363TIP3   OH246283   0.388   6.205  11.895  0.7945 -0.2742 -0.3669
 7363TIP3    H146284   0.324   6.259  11.848 -0.1212  0.1617  1.2874
 7363TIP3    H246285   0.465   6.261  11.903 -0.5252  1.3399  2.3135
 7364TIP3   OH246286   2.753   5.056  12.915 -0.0106 -0.3402  0.0256
 7364TIP3    H146287   2.657   5.061  12.922  0.0411 -0.0574  0.5776
 7364TIP3    H246288   2.781   5.147  12.912  0.3930 -0.3540  2.1108
 7365TIP3   OH246289   5.689   7.228  12.755 -0.0940 -0.2000  0.3208
 7365TIP3    H146290   5.699   7.252  12.663 -0.4659  0.2834  0.4063
 7365TIP3    H246291   5.745   7.150  12.765 -0.9779 -0.9776 -0.5999
 7366TIP3   OH246292   0.213   2.737  12.103 -0.3838 -0.0486 -0.4918
 7366TIP3    H146293   0.200   2.675  12.031 -0.3464  1.0185 -1.4437
 7366TIP3    H246294   0.308   2.739  12.116 -0.3619  0.0072 -0.6518
 7367TIP3   OH246295   5.883   5.617  13.489  0.1229  0.0520  0.4210
 7367TIP3    H146296   5.975   5.596  13.469  0.0652  1.9510 -2.7177
 7367TIP3    H246297   5.834   5.578  13.417 -1.2242  1.0954  0.7347
 7368TIP3   OH246298   6.535   2.895  12.071  0.3063 -0.7828  0.0739
 7368TIP3    H146299   6.524   2.914  12.164 -1.4527 -1.5927  0.0740
 7368TIP3    H246300   6.581   2.811  12.068 -1.5959 -1.8911  0.3066
 7369TIP3   OH246301   4.558   4.844  12.881 -0.3153 -0.5657 -0.2551
 7369TIP3    H146302   4.601   4.894  12.951  0.0418 -1.7179  0.3775
 7369TIP3    H246303   4.630   4.816  12.824 -0.4616 -0.6838 -0.3808
 7370TIP3   OH246304   0.815   4.725  12.979 -0.1384  0.1806  0.0056
 7370TIP3    H146305   0.886   4.711  12.916  0.0521  1.1939 -0.0394
 7370TIP3    H246306   0.823   4.818  13.002 -0.4235 -0.0904  1.2561
 7371TIP3   OH246307   7.663   5.037  10.665 -0.0131  0.0690 -0.3680
 7371TIP3    H146308   7.678   4.963  10.724  1.5672 -0.5151 -1.4281
 7371TIP3    H246309   7.580   5.075  10.695  0.3661 -0.6255  1.7476
 7372TIP3   OH246310   6.593   4.844  11.717  0.2783  0.2082  0.0483
 7372TIP3    H146311   6.564   4.863  11.806  1.8992  0.6426  0.5151
 7372TIP3    H246312   6.534   4.775  11.687  0.3050 -0.6401  1.8163
 7373TIP3   OH246313   7.016   0.955  11.438 -0.2644  0.3865 -0.2648
 7373TIP3    H146314   6.974   1.038  11.418 -1.5924  0.1938  1.5366
 7373TIP3    H246315   6.964   0.889  11.392  0.6698  0.4917 -1.5282
 7374TIP3   OH246316   7.574   1.225  13.518 -0.1264 -0.1781  0.1695
 7374TIP3    H146317   7.546   1.146  13.564 -0.4297 -0.2813 -0.1823
 7374TIP3    H246318   7.515   1.294  13.550 -0.6274 -0.3392 -0.3690
 7375TIP3   OH246319   0.545   2.988  12.190 -0.3254  0.0546  0.3340
 7375TIP3    H146320   0.608   2.934  12.239 -0.4683  0.3419  0.8384
 7375TIP3    H246321   0.503   2.927  12.130  0.2466 -0.1947  0.1762
 7376TIP3   OH246322   1.976   1.329  13.492 -0.5835 -0.2234  0.2431
 7376TIP3    H146323   1.880   1.328  13.488 -0.5993  0.1853  0.4370
 7376TIP3    H246324   2.000   1.416  13.461 -0.1623 -0.9873 -1.7299
 7377TIP3   OH246325   3.164   1.633  11.869 -0.5900  0.0947 -0.3832
 7377TIP3    H146326   3.166   1.694  11.943 -2.7433  1.9014 -1.7201
 7377TIP3    H246327   3.167   1.546  11.910  1.5053  1.0067  1.6269
 7378TIP3   OH246328   0.365   0.219  11.729 -0.2130  0.3310  0.2245
 7378TIP3    H146329   0.374   0.189  11.820  1.8125  0.1172  0.0141
 7378TIP3    H246330   0.448   0.262  11.710 -1.0347  1.3760 -1.1877
 7379TIP3   OH246331   4.410   7.248  11.856 -0.3595  0.1554  0.0057
 7379TIP3    H146332   4.348   7.274  11.788 -0.8206 -0.8356  0.0219
 7379TIP3    H246333   4.370   7.279  11.937 -0.1062  0.8033 -0.1096
 7380TIP3   OH246334   5.465   1.705  11.179  0.1329 -0.5918 -0.1533
 7380TIP3    H146335   5.442   1.612  11.168  0.2257 -0.6698  0.2736
 7380TIP3    H246336   5.384   1.745  11.212  0.5078 -0.8200  1.1212
 7381TIP3   OH246337   5.005   4.537  10.932  0.1692 -0.4839  0.3722
 7381TIP3    H146338   5.101   4.535  10.937  0.3626  0.1870 -1.9158
 7381TIP3    H246339   4.979   4.444  10.938  0.9626 -0.6874  0.7952
 7382TIP3   OH246340   0.985   2.355  13.846 -0.1288 -0.8486  0.4110
 7382TIP3    H146341   0.940   2.439  13.839  1.0011 -0.2837 -0.2963
 7382TIP3    H246342   0.922   2.292  13.808 -0.7070 -0.2274  0.3122
 7383TIP3   OH246343   4.698   3.497  12.575  0.0618 -0.0434 -0.1274
 7383TIP3    H146344   4.735   3.567  12.521  1.1651 -1.9819 -2.0566
 7383TIP3    H246345   4.606   3.493  12.551  0.2599 -0.0326 -0.8976
 7384TIP3   OH246346   3.541   5.388  12.994  0.3840  0.4192 -0.2579
 7384TIP3    H146347   3.462   5.442  12.993 -0.4099 -0.6921 -1.0933
 7384TIP3    H246348   3.563   5.377  12.901  2.0369  1.3976 -0.0213
 7385TIP3   OH246349   1.228   1.695  11.338 -0.0553  0.2209 -0.9093
 7385TIP3    H146350   1.213   1.685  11.432  1.5436 -0.3851 -0.6838
 7385TIP3    H246351   1.299   1.759  11.332 -0.1529  0.2567 -1.6963
 7386TIP3   OH246352   7.038   2.296  12.482 -0.7101  0.5233  0.1222
 7386TIP3    H146353   7.061   2.205  12.463 -1.2743 -0.3128  2.9542
 7386TIP3    H246354   7.123   2.339  12.495 -0.4629 -0.0284  0.3858
 7387TIP3   OH246355   2.181   1.595  10.916  0.4883  0.2159 -0.0514
 7387TIP3    H146356   2.266   1.627  10.947  1.0543 -0.0845 -1.2514
 7387TIP3    H246357   2.124   1.672  10.921  0.4621  0.1287  1.9369
 7388TIP3   OH246358   7.503   3.352  11.440 -0.1247 -0.1281  0.3854
 7388TIP3    H146359   7.599   3.347  11.436 -0.2471 -2.1264 -1.9944
 7388TIP3    H246360   7.473   3.265  11.416 -2.5470  0.9104 -0.7057
 7389TIP3   OH246361   5.634   1.305  10.935 -0.0222 -0.0988 -0.1308
 7389TIP3    H146362   5.705   1.286  10.997 -0.0674 -2.9368 -0.7673
 7389TIP3    H246363   5.639   1.233  10.871 -1.5155  1.3511 -2.0196
 7390TIP3   OH246364   2.413   2.352  12.069 -0.0477  0.3248 -0.4810
 7390TIP3    H146365   2.362   2.430  12.088  0.2882  0.6904 -1.0324
 7390TIP3    H246366   2.384   2.287  12.132  0.1009  1.0796  0.3743
 7391TIP3   OH246367   3.487   6.652  12.493 -0.2903  0.1958  0.5353
 7391TIP3    H146368   3.474   6.622  12.583 -0.7544  0.9593  0.7285
 7391TIP3    H246369   3.530   6.737  12.502  0.8710 -0.3033 -0.0043
 7392TIP3   OH246370   3.968   2.871  11.391  0.1899 -0.1793 -0.4919
 7392TIP3    H146371   4.053   2.883  11.434 -0.0405 -2.5871  0.8161
 7392TIP3    H246372   3.985   2.810  11.320  0.0131  1.5864 -2.1551
 7393TIP3   OH246373   2.821   7.487  12.627 -0.2482 -0.6776  0.4018
 7393TIP3    H146374   2.794   7.424  12.560 -1.1574  0.0081  0.1114
 7393TIP3    H246375   2.740   7.521  12.664  0.1243  1.5754 -0.6299
 7394TIP3   OH246376   6.639   1.441  11.394  0.2821  0.2744  0.2773
 7394TIP3    H146377   6.562   1.489  11.365  0.4545  0.7949  0.6644
 7394TIP3    H246378   6.709   1.506  11.394 -0.0245  0.7330  3.3420
 7395TIP3   OH246379   2.568   1.937  12.105  0.2288 -0.5816  0.2994
 7395TIP3    H146380   2.598   2.022  12.072  0.9531 -0.2686  1.6825
 7395TIP3    H246381   2.594   1.874  12.038 -2.2063  0.4906 -1.7878
 7396TIP3   OH246382   0.183   7.640  11.970  0.4281  0.2804 -0.6474
 7396TIP3    H146383   0.269   7.672  12.000  1.0336 -1.5918 -0.1877
 7396TIP3    H246384   0.199   7.610  11.880 -0.4301  2.3241 -1.5212
 7397TIP3   OH246385   4.025   5.929  13.241 -0.0534  0.4208 -0.0175
 7397TIP3    H146386   3.967   5.893  13.307 -1.3507  0.1340 -1.2678
 7397TIP3    H246387   4.098   5.867  13.237 -0.8786 -0.5567 -0.1580
 7398TIP3   OH246388   5.084   0.241  12.679 -0.1776  0.0637 -0.9596
 7398TIP3    H146389   5.048   0.157  12.705  1.0130 -0.1717  0.0073
 7398TIP3    H246390   5.008   0.292  12.651 -1.0357 -0.9791 -0.5848
 7399TIP3   OH246391   0.182   2.360  11.668  0.1787 -0.1561  0.6267
 7399TIP3    H146392   0.212   2.294  11.731 -1.5389  1.1100  2.9521
 7399TIP3    H246393   0.088   2.367  11.685 -0.1050  1.1426 -1.2834
 7400TIP3   OH246394   0.905   3.431  11.329  0.2501  0.5728 -0.5117
 7400TIP3    H146395   0.905   3.367  11.401 -0.6876  1.7248  0.5457
 7400TIP3    H246396   0.998   3.447  11.313  0.4867  0.7903  0.9156
 7401TIP3   OH246397   0.566   5.351  11.461  0.1331  0.8740 -0.2577
 7401TIP3    H146398   0.564   5.256  11.471  1.4521  0.8920  0.3856
 7401TIP3    H246399   0.522   5.367  11.377 -0.8810 -0.2158  0.0349
 7402TIP3   OH246400   3.940   2.550  12.448  0.4486  0.0136 -0.3649
 7402TIP3    H146401   4.002   2.487  12.411  0.0712 -1.9927  2.1167
 7402TIP3    H246402   3.993   2.604  12.507  0.1206 -0.9779  0.9022
 7403TIP3   OH246403   0.440   1.126  11.765 -0.0323 -0.4199  0.1624
 7403TIP3    H146404   0.483   1.081  11.838 -1.2417 -0.3699  0.9338
 7403TIP3    H246405   0.415   1.055  11.705  0.5410 -0.5073  0.0245
 7404TIP3   OH246406   1.628   3.007  13.400  0.3212  0.4962  0.4252
 7404TIP3    H146407   1.710   2.990  13.355  0.0927 -1.2068  0.5659
 7404TIP3    H246408   1.639   3.092  13.441  2.4748 -0.2329  1.4592
 7405TIP3   OH246409   0.048   4.073  12.509  0.2291 -0.1209  0.5387
 7405TIP3    H146410   0.046   4.047  12.602  0.4536 -1.0782  0.2857
 7405TIP3    H246411   0.085   3.998  12.464 -1.5606 -0.4134 -0.5643
 7406TIP3   OH246412   5.977   6.710  11.376  0.1309  0.2689 -0.7480
 7406TIP3    H146413   5.960   6.789  11.428 -0.6062 -0.4804  0.1695
 7406TIP3    H246414   6.039   6.660  11.429  1.6763  0.8103 -1.9395
 7407TIP3   OH246415   7.190   6.840  11.885  0.4160 -0.1036  0.0342
 7407TIP3    H146416   7.280   6.825  11.856  0.3110  2.4004 -1.8732
 7407TIP3    H246417   7.183   6.934  11.895 -1.2380 -0.4178  3.0725
 7408TIP3   OH246418   5.190   5.082  12.770 -0.0504 -0.3572  0.2792
 7408TIP3    H146419   5.134   5.157  12.746  0.2990 -0.0985  0.2645
 7408TIP3    H246420   5.277   5.107  12.740 -0.0135 -0.9756 -0.1495
 7409TIP3   OH246421   0.087   5.184  11.659  0.0898  0.1802 -0.1333
 7409TIP3    H146422   0.107   5.227  11.576  0.1341 -0.6341 -0.5576
 7409TIP3    H246423   0.164   5.129  11.676 -0.3062 -0.3380 -0.0076
 7410TIP3   OH246424   1.469   0.650  11.236 -0.0579 -0.0359  0.2437
 7410TIP3    H146425   1.502   0.653  11.147  0.0683  1.3143  0.3071
 7410TIP3    H246426   1.542   0.679  11.290 -0.2139 -0.5952  0.7668
 7411TIP3   OH246427   7.424   0.676  11.584 -0.1314  0.5650  0.1482
 7411TIP3    H146428   7.457   0.634  11.664  0.6850  3.6027  1.5457
 7411TIP3    H246429   7.502   0.684  11.528 -0.4894 -0.5809 -0.5534
 7412TIP3   OH246430   6.379   0.868  12.339  0.0258  0.3730  0.5430
 7412TIP3    H146431   6.288   0.881  12.366 -0.5233 -0.2771 -0.8748
 7412TIP3    H246432   6.408   0.955  12.310 -0.7295  0.2755 -0.5894
 7413TIP3   OH246433   7.519   5.005  11.703  0.3465  0.0487 -0.0891
 7413TIP3    H146434   7.550   4.983  11.791  0.7525  1.8736  0.2623
 7413TIP3    H246435   7.489   4.922  11.667 -2.2146 -0.3744  2.6855
 7414TIP3   OH246436   0.312   7.384  12.489  0.0325 -0.1533  0.3315
 7414TIP3    H146437   0.256   7.462  12.493  1.3425  0.7821  2.8098
 7414TIP3    H246438   0.251   7.310  12.487 -1.2361  0.8737 -0.5462
 7415TIP3   OH246439   1.809   6.551  11.496  0.6565  0.3831  0.1466
 7415TIP3    H146440   1.800   6.502  11.415  1.5977  1.7711 -0.8271
 7415TIP3    H246441   1.791   6.642  11.472  1.0662  0.8378  1.4569
 7416TIP3   OH246442   4.214   0.959  12.386  0.1353 -0.3230  0.3527
 7416TIP3    H146443   4.234   0.913  12.305  0.0102  1.2095 -0.5843
 7416TIP3    H246444   4.253   0.905  12.455  1.4699 -0.9450 -0.8460
 7417TIP3   OH246445   7.344   2.642  13.584 -0.0773  0.5115 -0.5837
 7417TIP3    H146446   7.273   2.706  13.589  0.7561  1.4498 -0.4813
 7417TIP3    H246447   7.422   2.691  13.608  0.5082 -0.6951  0.0694
 7418TIP3   OH246448   1.465   7.399  12.420  0.4209 -0.1023 -0.1070
 7418TIP3    H146449   1.511   7.468  12.467 -0.2193 -0.1179  0.5571
 7418TIP3    H246450   1.534   7.343  12.385  0.9098  0.1628  0.4307
 7419TIP3   OH246451   3.321   0.826  11.194 -0.4488 -0.1317  0.3618
 7419TIP3    H146452   3.396   0.846  11.138  0.4810 -0.1211  1.5816
 7419TIP3    H246453   3.358   0.784  11.271 -1.9608 -3.0237 -0.3144
 7420TIP3   OH246454   5.606   1.371  12.096  0.1608  0.2670 -0.2345
 7420TIP3    H146455   5.567   1.333  12.017  0.6360 -0.2417 -0.2347
 7420TIP3    H246456   5.693   1.332  12.100  0.2974  0.6231  0.3077
 7421TIP3   OH246457   2.331   1.149  12.640 -0.0171 -0.6117 -0.3186
 7421TIP3    H146458   2.384   1.112  12.570 -1.5993 -0.2460 -1.7707
 7421TIP3    H246459   2.279   1.217  12.597 -2.9748 -2.1465  0.6081
 7422TIP3   OH246460   7.082   2.037  12.403 -0.3551  0.0344  0.0188
 7422TIP3    H146461   6.989   2.045  12.381 -0.7686  0.1835  1.6399
 7422TIP3    H246462   7.083   1.979  12.479  0.9106 -0.2049 -0.1656
 7423TIP3   OH246463   6.800   1.988  11.225 -0.4464 -0.0651  0.3199
 7423TIP3    H146464   6.792   1.931  11.148  0.4265 -0.1302  0.2636
 7423TIP3    H246465   6.820   2.074  11.189 -1.4864  0.2332  0.4207
 7424TIP3   OH246466   6.710   2.688  10.957 -0.2151 -0.2208 -0.2432
 7424TIP3    H146467   6.762   2.739  11.020  0.5736 -1.3420  0.0502
 7424TIP3    H246468   6.633   2.741  10.941  0.4846  0.9707  0.2033
 7425TIP3   OH246469   4.603   7.564  12.060  0.4619  0.4748 -0.1123
 7425TIP3    H146470   4.611   7.480  12.015 -0.3688  0.0477  0.4938
 7425TIP3    H246471   4.632   7.629  11.997 -1.3590 -0.0304 -1.5557
 7426TIP3   OH246472   0.578   2.815  11.066 -0.1665 -0.2014 -0.6584
 7426TIP3    H146473   0.599   2.838  11.157  0.4214  2.9217 -1.4541
 7426TIP3    H246474   0.573   2.899  11.021 -0.4458 -1.6399 -3.5475
 7427TIP3   OH246475   3.454   3.094  11.474  0.3184 -0.0032  0.3611
 7427TIP3    H146476   3.363   3.123  11.473 -0.0036 -0.8696  1.6555
 7427TIP3    H246477   3.504   3.172  11.501  0.0265  0.5971 -0.8086
 7428TIP3   OH246478   6.298   2.703  12.698  0.1652  0.4530  0.3874
 7428TIP3    H146479   6.347   2.773  12.655  0.4160  0.6469  0.9797
 7428TIP3    H246480   6.206   2.723  12.677  0.2086  1.1502  0.8115
 7429TIP3   OH246481   6.233   3.392  13.455  0.2675 -0.1299 -0.2905
 7429TIP3    H146482   6.201   3.417  13.369 -2.2003  0.2452  0.6414
 7429TIP3    H246483   6.160   3.344  13.495  0.2573  1.9241  2.5169
 7430TIP3   OH246484   3.407   2.784  12.458 -0.0321  0.1608 -0.0615
 7430TIP3    H146485   3.404   2.759  12.366  1.4220  0.1322 -0.1211
 7430TIP3    H246486   3.384   2.877  12.458  1.6076  0.5973 -0.6738
 7431TIP3   OH246487   3.964   7.484  11.268 -0.1117 -0.6108  0.2721
 7431TIP3    H146488   3.902   7.481  11.195  0.2340  0.0824 -0.0483
 7431TIP3    H246489   4.043   7.442  11.235 -0.0262 -0.4841  0.3137
 7432TIP3   OH246490   5.679   5.773  13.628 -0.3267  0.5290 -0.1902
 7432TIP3    H146491   5.658   5.831  13.555  1.4331  1.1953 -0.1894
 7432TIP3    H246492   5.756   5.725  13.599 -1.6084 -1.7453 -0.1260
 7433TIP3   OH246493   5.696   0.976  13.280 -0.0284 -0.4061  0.9357
 7433TIP3    H146494   5.640   0.919  13.228  1.3457 -0.0012 -1.1173
 7433TIP3    H246495   5.662   1.064  13.265  1.0591 -0.1552 -0.3326
 7434TIP3   OH246496   7.445   1.658  11.966  0.2691 -0.3680 -0.4924
 7434TIP3    H146497   7.406   1.704  12.040  2.1110 -0.0388  0.3505
 7434TIP3    H246498   7.394   1.686  11.890 -0.9482  0.1795  0.4962
 7435TIP3   OH246499   1.602   3.244  11.047  0.1127 -0.5124  0.2340
 7435TIP3    H146500   1.680   3.299  11.043 -2.1334  3.0326  0.5605
 7435TIP3    H246501   1.556   3.262  10.965 -1.5080 -0.5605  1.0922
 7436TIP3   OH246502   0.411   2.656  12.352 -0.5283  0.1572 -0.4545
 7436TIP3    H146503   0.466   2.706  12.412  1.1924  0.6149 -2.3255
 7436TIP3    H246504   0.323   2.692  12.364 -0.0009  1.0557  0.8986
 7437TIP3   OH246505   2.075   5.194  10.966 -1.0054  0.4386 -0.1289
 7437TIP3    H146506   2.120   5.270  10.930 -1.7991  2.1729  2.2335
 7437TIP3    H246507   2.043   5.224  11.051 -0.9789 -2.7142  1.1132
 7438TIP3   OH246508   4.634   4.448  13.901  0.0703 -0.3512 -0.2307
 7438TIP3    H146509   4.681   4.411  13.826  0.1734 -0.1747 -0.2511
 7438TIP3    H246510   4.590   4.372  13.941  0.1102 -0.4634 -0.3992
 7439TIP3   OH246511   1.088   7.160  11.207 -0.1903  0.0793 -0.3518
 7439TIP3    H146512   1.174   7.185  11.242  0.3060 -1.2850 -0.5380
 7439TIP3    H246513   1.028   7.225  11.242  0.7465  0.3845  0.7417
 7440TIP3   OH246514   3.932   0.697  12.917  0.0791  0.1052 -0.6199
 7440TIP3    H146515   3.837   0.695  12.923  0.0212  1.2952 -0.9988
 7440TIP3    H246516   3.962   0.650  12.995 -0.7912  1.9240  0.8667
 7441TIP3   OH246517   4.761   2.426  12.887 -0.7629  0.1973 -0.0200
 7441TIP3    H146518   4.754   2.487  12.960  2.8863 -0.4114  1.0473
 7441TIP3    H246519   4.793   2.478  12.814 -0.2477  0.0954  0.1224
 7442TIP3   OH246520   5.500   5.555  13.580  0.5210  0.0369 -0.1743
 7442TIP3    H146521   5.512   5.582  13.489  2.7814  1.2172  0.3929
 7442TIP3    H246522   5.562   5.609  13.629 -0.1554 -1.0479  2.0037
 7443TIP3   OH246523   3.432   5.822  11.569 -0.1510  0.7371 -0.6736
 7443TIP3    H146524   3.505   5.823  11.507 -1.2128 -1.0671 -2.0462
 7443TIP3    H246525   3.451   5.747  11.626  0.1791  1.6400  0.4516
 7444TIP3   OH246526   0.448   5.113  10.941 -0.4917 -0.8830  0.7591
 7444TIP3    H146527   0.492   5.051  10.999  1.6319  0.6467  0.9015
 7444TIP3    H246528   0.469   5.084  10.853  0.0533 -0.6895  0.8217
 7445TIP3   OH246529   3.698   3.533  13.606  0.8458 -0.0606  0.7509
 7445TIP3    H146530   3.606   3.542  13.630  0.4500  0.9841 -1.0068
 7445TIP3    H246531   3.737   3.485  13.679 -0.6560  1.2342  2.4882
 7446TIP3   OH246532   1.906   0.393  12.301 -0.3596  0.2353 -0.1033
 7446TIP3    H146533   1.908   0.452  12.376  0.2039 -0.0230  0.0839
 7446TIP3    H246534   1.816   0.359  12.300 -0.4625  0.4916  0.2532
 7447TIP3   OH246535   3.020   4.084  11.340 -0.4904  0.4880  0.5228
 7447TIP3    H146536   3.016   4.096  11.435  0.2040  0.8826  0.5043
 7447TIP3    H246537   2.940   4.034  11.319  0.0373 -0.8099  1.4853
 7448TIP3   OH246538   3.116   5.337  12.091 -0.2401 -0.0922  0.6683
 7448TIP3    H146539   3.113   5.265  12.028  1.5992 -0.2651  0.7337
 7448TIP3    H246540   3.206   5.369  12.087 -1.0417  2.3519  0.5097
 7449TIP3   OH246541   5.341   5.694  12.026 -0.1468 -0.1248  0.0984
 7449TIP3    H146542   5.411   5.752  11.995 -0.0782 -0.0058  0.4706
 7449TIP3    H246543   5.266   5.751  12.041  0.3213  0.1201  1.7889
 7450TIP3   OH246544   2.235   2.348  12.950 -0.2634  0.0265 -0.2479
 7450TIP3    H146545   2.212   2.256  12.966  0.3844  0.0480  0.9592
 7450TIP3    H246546   2.169   2.379  12.889 -0.1485 -1.4050 -1.1515
 7451TIP3   OH246547   7.661   6.858  12.208 -0.5434  0.0580 -0.1697
 7451TIP3    H146548   7.594   6.916  12.172  1.2433  0.9498 -2.3196
 7451TIP3    H246549   7.694   6.905  12.285 -1.2628  0.3771 -0.0508
 7452TIP3   OH246550   2.303   7.639  11.184  0.6784  0.5038  0.0683
 7452TIP3    H146551   2.367   7.570  11.199  0.7474  0.0866 -1.8812
 7452TIP3    H246552   2.219   7.595  11.187  0.5480  0.7961  1.1951
 7453TIP3   OH246553   6.537   3.731  13.514 -0.1645 -0.2424 -0.7313
 7453TIP3    H146554   6.564   3.761  13.426  0.9980  1.8963  0.2715
 7453TIP3    H246555   6.568   3.800  13.573 -1.0474 -1.5560  1.3713
 7454TIP3   OH246556   1.135   6.119  12.221 -0.0671  0.7022 -0.3500
 7454TIP3    H146557   1.188   6.120  12.142 -0.8852 -0.8714 -0.9578
 7454TIP3    H246558   1.180   6.058  12.280  0.0075  1.1053  0.0147
 7455TIP3   OH246559   5.253   5.605  12.798 -0.1744 -0.0382  0.3990
 7455TIP3    H146560   5.178   5.664  12.790 -1.1384 -1.4348 -2.0824
 7455TIP3    H246561   5.319   5.655  12.845 -1.0990  2.8548 -1.1585
 7456TIP3   OH246562   7.147   7.494  12.369 -0.4515 -0.1586 -0.0312
 7456TIP3    H146563   7.189   7.481  12.284  0.5833  1.1663  0.2250
 7456TIP3    H246564   7.214   7.539  12.421 -1.0820 -0.9093  1.4704
 7457TIP3   OH246565   2.595   4.714  11.696  0.0399 -0.2200  0.0585
 7457TIP3    H146566   2.548   4.631  11.694  0.8967 -0.7597  1.1156
 7457TIP3    H246567   2.683   4.692  11.666 -0.4933  0.9198 -2.6715
 7458TIP3   OH246568   0.378   1.317  12.760 -0.0795 -0.4372  0.2966
 7458TIP3    H146569   0.382   1.225  12.734  2.4752 -0.3083 -0.1020
 7458TIP3    H246570   0.360   1.364  12.679  1.3156 -0.4615 -0.0578
 7459TIP3   OH246571   3.109   3.689  12.214  0.2230 -0.6076  0.1035
 7459TIP3    H146572   3.098   3.606  12.260 -0.7650 -1.0532 -0.9011
 7459TIP3    H246573   3.051   3.749  12.259 -1.0351 -1.1401 -0.7596
 7460TIP3   OH246574   4.080   3.387  11.584  0.0279  0.1701  0.0204
 7460TIP3    H146575   4.032   3.389  11.666  0.1015 -1.8814  0.1741
 7460TIP3    H246576   4.029   3.328  11.528  2.3729 -2.3457  0.3012
 7461TIP3   OH246577   0.082   1.708  11.664 -0.0973  0.1120  0.0481
 7461TIP3    H146578   0.019   1.660  11.609 -0.9889  0.3228  0.8497
 7461TIP3    H246579   0.057   1.800  11.654 -1.8708  0.0306  2.6011
 7462TIP3   OH246580   5.078   3.571  12.418  0.1195 -0.4123  0.4255
 7462TIP3    H146581   5.053   3.484  12.450  1.1936 -1.3511 -1.1046
 7462TIP3    H246582   5.174   3.572  12.427  0.1134  0.6167  0.4327
 7463TIP3   OH246583   0.644   5.574  12.939  0.4150 -0.2275  0.0382
 7463TIP3    H146584   0.687   5.622  12.868 -0.1617  0.0794 -0.1050
 7463TIP3    H246585   0.551   5.588  12.925  0.1596 -2.1674 -0.5666
 7464TIP3   OH246586   3.251   1.763  12.098 -0.2275  0.0726 -0.4302
 7464TIP3    H146587   3.333   1.765  12.148  0.8960  1.6005 -2.2124
 7464TIP3    H246588   3.183   1.778  12.163  0.7619 -1.9658  1.2381
 7465TIP3   OH246589   4.487   3.126  12.386 -0.5410  0.2592 -0.4831
 7465TIP3    H146590   4.439   3.187  12.330  0.0243 -0.9063 -2.3132
 7465TIP3    H246591   4.447   3.041  12.369 -1.0223 -0.0079  1.6894
 7466TIP3   OH246592   1.594   1.442  13.113  0.1667  0.0993 -0.0774
 7466TIP3    H146593   1.547   1.448  13.031 -0.4152 -1.0648  0.1583
 7466TIP3    H246594   1.632   1.529  13.125 -1.3889  0.8871 -0.5873
 7467TIP3   OH246595   6.107   3.187  12.204  0.1980 -0.3346 -0.1897
 7467TIP3    H146596   6.153   3.104  12.216  0.2921 -0.4140 -1.0059
 7467TIP3    H246597   6.052   3.196  12.282  1.4550 -0.3178  0.7233
 7468TIP3   OH246598   1.040   5.867  12.349  0.2912  0.2257  0.7864
 7468TIP3    H146599   0.984   5.938  12.382  0.4846  0.3870  0.7696
 7468TIP3    H246600   1.034   5.874  12.254  0.5539  0.4164  0.7822
 7469TIP3   OH246601   2.611   7.040  11.002  0.3368  0.6153  0.7676
 7469TIP3    H146602   2.649   7.089  11.076 -1.0511  0.3398  1.6826
 7469TIP3    H246603   2.655   6.955  11.005  1.6039  1.2181  0.1399
 7470TIP3   OH246604   5.708   2.185  11.469  0.7457  0.3207  0.0319
 7470TIP3    H146605   5.627   2.136  11.455  1.5132 -0.5065 -1.8111
 7470TIP3    H246606   5.693   2.269  11.427  0.8917  0.1061 -0.4550
 7471TIP3   OH246607   4.485   2.056  12.353  0.8235  0.0706 -0.4959
 7471TIP3    H146608   4.523   2.141  12.373 -2.2395  1.2777  0.7937
 7471TIP3    H246609   4.475   2.055  12.258  1.2459  0.9620 -0.5555
 7472TIP3   OH246610   4.343   6.920  11.945  0.1241 -0.3109  0.4378
 7472TIP3    H146611   4.346   6.866  12.024 -0.4446  2.0832  2.2169
 7472TIP3    H246612   4.405   6.991  11.963 -0.7095  0.7841 -0.8745
 7473TIP3   OH246613   1.359   4.473  13.608  0.3532 -0.3293 -0.4847
 7473TIP3    H146614   1.271   4.472  13.570 -0.2219 -1.1748  0.7578
 7473TIP3    H246615   1.348   4.429  13.693  1.5996  1.2689  0.5534
 7474TIP3   OH246616   0.870   7.428  11.812  0.4425  0.4040 -0.2626
 7474TIP3    H146617   0.955   7.460  11.840  0.9946 -2.2433  1.4519
 7474TIP3    H246618   0.888   7.369  11.739  0.8368 -3.4999  2.6634
 7475TIP3   OH246619   1.246   5.674  12.035 -0.2571  0.2064 -0.1110
 7475TIP3    H146620   1.220   5.753  12.083  0.0045  0.6490 -0.6931
 7475TIP3    H246621   1.164   5.629  12.017 -0.5232  0.9450 -0.8087
 7476TIP3   OH246622   5.297   5.821  11.148 -0.6130 -0.4177  0.4677
 7476TIP3    H146623   5.285   5.762  11.223 -0.2793  0.1315  0.9689
 7476TIP3    H246624   5.385   5.802  11.117 -0.8461 -0.8247  0.0485
 7477TIP3   OH246625   3.319   7.448  11.592 -0.4031 -0.8498 -0.1833
 7477TIP3    H146626   3.337   7.400  11.511 -1.5420  0.4014 -1.2271
 7477TIP3    H246627   3.240   7.499  11.573  1.4794  2.5652  0.3139
 7478TIP3   OH246628   1.146   2.937  13.346 -0.1972  0.3925 -0.2181
 7478TIP3    H146629   1.136   2.844  13.365  0.4553  0.3719  0.0591
 7478TIP3    H246630   1.211   2.941  13.276 -0.6077  0.6133 -0.5905
 7479TIP3   OH246631   6.870   6.863  18.760 -0.1732  0.4112  0.0271
 7479TIP3    H146632   6.817   6.902  18.828 -0.7598  1.1131 -0.8190
 7479TIP3    H246633   6.917   6.936  18.720  2.4118 -0.2808  1.5157
 7480TIP3   OH246634   0.394   3.164  13.035 -0.4534  0.0424 -0.2153
 7480TIP3    H146635   0.477   3.188  12.992 -0.0133  1.2366  1.1980
 7480TIP3    H246636   0.420   3.109  13.108 -1.2337 -2.3296 -1.6280
 7481TIP3   OH246637   1.962   2.967  12.513 -0.5927 -0.0855 -0.7418
 7481TIP3    H146638   1.894   2.947  12.578 -0.2335 -0.9296 -0.6222
 7481TIP3    H246639   1.912   2.999  12.437 -0.9843  1.4880  0.1236
 7482TIP3   OH246640   1.719   1.539  12.455 -0.3735  0.1040  0.1980
 7482TIP3    H146641   1.735   1.453  12.416 -1.8102 -1.2788  2.4199
 7482TIP3    H246642   1.721   1.524  12.550 -1.0077  2.4540  0.6676
 7483TIP3   OH246643   1.569   2.028  11.882  0.7576 -0.3723  0.3312
 7483TIP3    H146644   1.514   2.096  11.922  2.8774  0.8083  1.4055
 7483TIP3    H246645   1.573   2.053  11.789 -0.0842 -0.1983  0.3297
 7484TIP3   OH246646   0.896   6.454  11.105  0.3490  0.1901 -0.2380
 7484TIP3    H146647   0.874   6.538  11.144 -2.7283 -1.0588  1.0637
 7484TIP3    H246648   0.847   6.390  11.157  2.1656 -2.3755 -1.4828
 7485TIP3   OH246649   5.543   5.004  11.037 -0.4849 -0.2213 -0.1461
 7485TIP3    H146650   5.560   5.091  11.074  0.3143 -0.5775  0.3396
 7485TIP3    H246651   5.455   5.012  10.998  0.1622  1.2377 -1.4243
 7486TIP3   OH246652   4.449   5.021  12.661  0.1894  0.5544 -0.1138
 7486TIP3    H146653   4.435   4.929  12.684 -0.5114  1.0952  1.7944
 7486TIP3    H246654   4.365   5.063  12.680  0.5553  1.6387 -0.7940
 7487TIP3   OH246655   3.698   6.894  12.686 -0.3088 -0.0846  0.2660
 7487TIP3    H146656   3.633   6.900  12.616  0.4947  0.3624 -0.4543
 7487TIP3    H246657   3.745   6.812  12.668  1.2917  1.0469 -0.9779
 7488TIP3   OH246658   5.854   3.923  12.400 -0.4136 -0.0278  0.3970
 7488TIP3    H146659   5.828   3.997  12.455 -0.6671  0.3796 -0.2457
 7488TIP3    H246660   5.772   3.893  12.361 -0.1706  0.0791 -0.2177
 7489TIP3   OH246661   4.919   6.611  12.512  0.7637 -0.0732  0.3069
 7489TIP3    H146662   4.886   6.603  12.423 -0.2237 -1.7038  0.7658
 7489TIP3    H246663   4.902   6.701  12.537 -0.2982  0.0075 -0.6483
 7490TIP3   OH246664   3.825   6.668  11.909  0.3165  0.9636 -0.4950
 7490TIP3    H146665   3.740   6.694  11.875 -0.2966 -0.3336 -0.0514
 7490TIP3    H246666   3.808   6.646  12.001  1.2765  1.3702 -0.2125
 7491TIP3   OH246667   0.987   7.474  13.179  0.2301 -0.7919  0.1039
 7491TIP3    H146668   0.942   7.433  13.253  0.9903 -0.3965  0.8060
 7491TIP3    H246669   0.923   7.533  13.141  0.1581 -0.1887  1.1249
 7492TIP3   OH246670   2.292   5.494  12.479 -0.4258  0.4001 -0.3206
 7492TIP3    H146671   2.214   5.508  12.426  0.1576 -0.4366 -1.4320
 7492TIP3    H246672   2.319   5.404  12.460  1.3305  0.9502 -0.6716
 7493TIP3   OH246673   4.878   0.099  11.355 -0.0357  0.5195  0.0832
 7493TIP3    H146674   4.933   0.111  11.278  0.1620  0.3457  0.1944
 7493TIP3    H246675   4.911   0.162  11.419 -2.2904  3.0369 -1.0520
 7494TIP3   OH246676   2.105   6.308  11.699  0.3224 -0.4341 -0.0709
 7494TIP3    H146677   2.090   6.367  11.625  0.6761  1.2474  1.1447
 7494TIP3    H246678   2.021   6.305  11.745  0.0467 -1.6281 -0.5918
 7495TIP3   OH246679   6.873   4.332  12.671  0.5116 -0.7214 -0.3882
 7495TIP3    H146680   6.854   4.264  12.607  0.0496 -1.7052  0.7511
 7495TIP3    H246681   6.896   4.409  12.619  0.2487 -1.5137 -1.7126
 7496TIP3   OH246682   3.235   2.278  11.700  0.6923  0.6367  0.2828
 7496TIP3    H146683   3.160   2.316  11.654  1.2569  1.4355  0.0062
 7496TIP3    H246684   3.260   2.203  11.646  1.5388  1.7448 -0.9087
 7497TIP3   OH246685   6.791   4.274  12.252  0.1268 -0.4380  0.0327
 7497TIP3    H146686   6.871   4.305  12.209 -0.8538 -0.8999 -2.3122
 7497TIP3    H246687   6.726   4.341  12.233 -0.4132 -0.8074  0.5529
 7498TIP3   OH246688   7.607   0.786  11.027  0.5493 -0.1180 -0.0218
 7498TIP3    H146689   7.587   0.695  11.002 -2.1060  0.4332 -0.1837
 7498TIP3    H246690   7.550   0.803  11.102  2.0372  1.0207  0.9053
 7499TIP3   OH246691   4.590   1.022  12.486  0.4147 -0.3412 -0.3357
 7499TIP3    H146692   4.515   0.978  12.524  1.0985 -0.3568  1.0458
 7499TIP3    H246693   4.554   1.098  12.441 -0.3081  0.4499  1.5204
 7500TIP3   OH246694   0.323   3.267  11.576 -0.2597  0.0238  0.3913
 7500TIP3    H146695   0.413   3.294  11.595  0.0586 -0.9657  0.3509
 7500TIP3    H246696   0.325   3.171  11.580 -1.0791 -0.0552 -0.6478
 7501TIP3   OH246697   2.621   4.844  12.197  0.6981  0.0065 -0.3794
 7501TIP3    H146698   2.648   4.823  12.286  3.3633  2.3650 -0.4961
 7501TIP3    H246699   2.527   4.860  12.203  0.2140 -2.7822  1.3247
 7502TIP3   OH246700   4.520   0.887  11.380 -0.2523 -0.0851  0.4113
 7502TIP3    H146701   4.426   0.875  11.367 -0.4008  1.5536 -0.2609
 7502TIP3    H246702   4.527   0.963  11.438  0.6502  0.2210 -0.0660
 7503TIP3   OH246703   1.794   1.628  13.096 -0.0427 -0.3239 -0.7438
 7503TIP3    H146704   1.870   1.580  13.065 -0.1445 -1.5479  0.8046
 7503TIP3    H246705   1.824   1.671  13.176 -0.7748 -0.2364 -0.5089
 7504TIP3   OH246706   3.909   4.203  11.623 -0.0679  0.0962  0.3618
 7504TIP3    H146707   3.955   4.244  11.549 -0.3068  0.4757  0.4203
 7504TIP3    H246708   3.838   4.264  11.643 -0.2304 -0.1933  0.6622
 7505TIP3   OH246709   6.048   0.807  12.081 -0.5428 -0.6570  0.4542
 7505TIP3    H146710   6.006   0.848  12.156 -2.4674 -2.0526  0.2239
 7505TIP3    H246711   5.979   0.800  12.015  0.4570 -1.6634 -0.5450
 7506TIP3   OH246712   6.526   1.564  12.837  0.5036  0.0548  0.7359
 7506TIP3    H146713   6.443   1.552  12.883  0.5366 -1.3309  0.4893
 7506TIP3    H246714   6.588   1.588  12.905  0.3998 -1.2873  1.3501
 7507TIP3   OH246715   2.582   2.861  12.692 -0.0057  0.8963 -0.4677
 7507TIP3    H146716   2.580   2.908  12.775  0.7997  2.4961 -1.3237
 7507TIP3    H246717   2.492   2.866  12.660  0.1058  2.0217 -0.6268
 7508TIP3   OH246718   7.498   2.350  13.957  0.2870  0.2013 -0.0784
 7508TIP3    H146719   7.472   2.430  14.003 -0.2135  0.3018 -0.5189
 7508TIP3    H246720   7.463   2.362  13.868 -0.2485 -0.7408 -0.0001
 7509TIP3   OH246721   0.939   4.897  12.155  0.0614  0.2255  0.8855
 7509TIP3    H146722   1.022   4.944  12.164  0.7874 -0.9430  0.6004
 7509TIP3    H246723   0.914   4.875  12.245  1.9694 -2.5266  0.8545
 7510TIP3   OH246724   1.899   5.082  11.641  0.2948  0.0182 -0.3034
 7510TIP3    H146725   1.991   5.072  11.617  0.3971 -1.2464  0.5669
 7510TIP3    H246726   1.851   5.048  11.565  0.5155  0.8674 -0.8457
 7511TIP3   OH246727   6.499   4.643  12.560 -0.4097 -0.3870  0.0324
 7511TIP3    H146728   6.454   4.559  12.570  0.1538 -1.0900 -2.6314
 7511TIP3    H246729   6.587   4.628  12.593 -0.6757 -0.4370  0.7398
 7512TIP3   OH246730   6.478   3.951  12.361 -0.3622  0.0451 -0.0663
 7512TIP3    H146731   6.528   3.974  12.283 -0.2826 -0.1765 -0.0832
 7512TIP3    H246732   6.540   3.960  12.433 -0.5196  0.5506  0.0118
 7513TIP3   OH246733   7.574   5.649  10.674  0.5996  0.0048 -0.1879
 7513TIP3    H146734   7.617   5.607  10.600  1.4587  0.7851 -0.1496
 7513TIP3    H246735   7.541   5.732  10.639  0.9627  0.3551  0.2738
 7514TIP3   OH246736   5.385   7.538  11.502  0.1427 -0.5595 -0.0893
 7514TIP3    H146737   5.402   7.470  11.567 -1.4197 -1.9341 -1.0581
 7514TIP3    H246738   5.316   7.591  11.541 -0.3079 -0.9652 -0.3346
 7515TIP3   OH246739   6.446   3.398  12.171 -0.2352  0.0364  0.2756
 7515TIP3    H146740   6.507   3.465  12.139 -0.3897  1.3814  2.5690
 7515TIP3    H246741   6.495   3.352  12.239 -0.5935 -1.3554 -0.3742
 7516TIP3   OH246742   2.351   0.494  11.531 -0.2206 -0.3954 -0.1420
 7516TIP3    H146743   2.359   0.589  11.531 -1.1202 -0.2974 -1.3085
 7516TIP3    H246744   2.313   0.472  11.616  0.2243  0.2568  0.2279
 7517TIP3   OH246745   2.207   5.409  13.198 -0.1351 -0.0080  0.3816
 7517TIP3    H146746   2.247   5.496  13.195  0.3835 -0.1534  2.0006
 7517TIP3    H246747   2.122   5.423  13.241  0.4022 -0.4162  1.6333
 7518TIP3   OH246748   1.076   5.583  12.554  0.6419  0.5114 -0.4566
 7518TIP3    H146749   1.126   5.536  12.488 -0.2910  0.2574 -1.0078
 7518TIP3    H246750   1.104   5.674  12.546  1.1625  0.3384 -0.6048
 7519TIP3   OH246751   2.318   5.415  11.904  0.1523 -0.4528  0.2671
 7519TIP3    H146752   2.282   5.397  11.992 -0.9756  1.4557  0.2503
 7519TIP3    H246753   2.381   5.485  11.918 -0.0210 -0.1503 -0.4358
 7520TIP3   OH246754   3.135   2.672  12.070 -0.4896  0.5617 -0.0735
 7520TIP3    H146755   3.214   2.676  12.124 -0.5428  1.4125 -0.0434
 7520TIP3    H246756   3.153   2.602  12.007 -1.4355 -2.2239  2.5379
 7521TIP3   OH246757   2.187   5.438  10.879  0.3504  0.4963  0.5330
 7521TIP3    H146758   2.241   5.422  10.956 -0.2751 -0.0895  0.8510
 7521TIP3    H246759   2.164   5.531  10.885  0.8095  0.6016  0.7178
 7522TIP3   OH246760   4.005   5.172  12.657 -0.0164  0.1822 -0.3876
 7522TIP3    H146761   4.090   5.212  12.676 -0.3818  0.3699  0.9806
 7522TIP3    H246762   4.006   5.089  12.705  0.7812 -1.6290 -3.2933
 7523TIP3   OH246763   1.846   2.069  11.965  0.2344  0.5415 -0.9816
 7523TIP3    H146764   1.861   2.019  11.885  0.1931  0.6806 -1.0760
 7523TIP3    H246765   1.775   2.130  11.943 -0.4827 -0.1122 -0.5383
 7524TIP3   OH246766   3.007   3.972  13.785 -0.1503  0.3357 -0.4292
 7524TIP3    H146767   2.965   4.041  13.735 -0.3022  0.6365  0.1016
 7524TIP3    H246768   2.937   3.909  13.803  0.1928 -0.4507 -1.7323
 7525TIP3   OH246769   6.529   0.784  11.953  0.1866 -0.0265 -0.2357
 7525TIP3    H146770   6.528   0.750  12.042  0.0441 -1.1163 -0.6422
 7525TIP3    H246771   6.440   0.769  11.920  0.4622 -0.3944 -0.8364
 7526TIP3   OH246772   2.577   4.013  13.212  0.1537 -0.3510 -0.4609
 7526TIP3    H146773   2.531   4.002  13.296  0.3955 -0.9177 -0.4003
 7526TIP3    H246774   2.666   3.985  13.230  0.7444  1.4524 -0.3866
 7527TIP3   OH246775   6.793   5.406  12.827  0.2840 -0.5424 -0.2971
 7527TIP3    H146776   6.771   5.345  12.896  0.9249 -0.5494 -0.0951
 7527TIP3    H246777   6.709   5.430  12.788 -0.0236 -1.0185  0.0700
 7528TIP3   OH246778   1.502   7.197  11.071 -0.2430  0.7643 -0.4195
 7528TIP3    H146779   1.444   7.121  11.080 -0.6377  1.2400  1.7992
 7528TIP3    H246780   1.484   7.232  10.984 -0.4211 -1.3680 -1.2840
 7529TIP3   OH246781   4.565   3.116  11.730 -0.2691  0.0716  0.1730
 7529TIP3    H146782   4.481   3.154  11.702 -0.1925  0.4003  0.3916
 7529TIP3    H246783   4.571   3.137  11.823 -0.0840 -0.2152  0.2266
 7530TIP3   OH246784   3.612   3.206  13.144  0.1427  0.0506 -0.1724
 7530TIP3    H146785   3.699   3.166  13.135 -0.7746 -1.9224 -0.7946
 7530TIP3    H246786   3.615   3.249  13.229  1.1387 -1.6045  0.7004
 7531TIP3   OH246787   6.625   5.155  12.678  0.7337 -0.1228 -0.3433
 7531TIP3    H146788   6.624   5.076  12.732  2.2868  1.6377  2.4507
 7531TIP3    H246789   6.537   5.191  12.687  0.6042 -0.5071 -0.0255
 7532TIP3   OH246790   2.662   6.306  12.837  0.3418  0.3453 -0.4556
 7532TIP3    H146791   2.591   6.353  12.882 -0.6938 -1.4352 -0.1507
 7532TIP3    H246792   2.618   6.244  12.779  1.6376 -0.7484 -0.3252
 7533TIP3   OH246793   5.384   4.752  12.248  0.1232 -0.2068 -0.1090
 7533TIP3    H146794   5.416   4.781  12.162 -0.8492  0.8263 -0.1422
 7533TIP3    H246795   5.333   4.674  12.229  0.7574 -0.5723 -0.3363
 7534TIP3   OH246796   5.613   3.341  11.274 -0.3234 -0.2838 -0.3526
 7534TIP3    H146797   5.663   3.266  11.307 -1.6476 -1.2284 -0.3509
 7534TIP3    H246798   5.625   3.409  11.339 -0.7551 -1.2229  0.7398
 7535TIP3   OH246799   3.669   5.059  12.095 -0.7321  0.1892 -0.3658
 7535TIP3    H146800   3.629   5.005  12.163 -1.0979  0.5090 -0.3244
 7535TIP3    H246801   3.695   5.140  12.141 -2.4197  1.0781 -0.8999
 7536TIP3   OH246802   0.903   5.597  11.963  0.0960  0.0696  1.1070
 7536TIP3    H146803   0.932   5.577  12.052 -1.6609 -1.4922  1.3718
 7536TIP3    H246804   0.825   5.651  11.976 -1.0934 -1.4683  0.5915
 7537TIP3   OH246805   0.029   6.363  11.997 -0.2324 -0.4838  0.1015
 7537TIP3    H146806   0.035   6.443  12.050 -0.5524  0.1702 -0.8054
 7537TIP3    H246807   0.105   6.367  11.939 -0.0432 -1.0383  0.3104
 7538TIP3   OH246808   0.122   6.720  11.399  0.0887 -0.3040  0.4212
 7538TIP3    H146809   0.182   6.691  11.467  1.4076  0.2618 -0.4521
 7538TIP3    H246810   0.100   6.641  11.350 -1.1231 -0.7671  1.6633
 7539TIP3   OH246811   3.394   6.088  11.657  0.0781 -0.6103  0.3783
 7539TIP3    H146812   3.424   6.017  11.600 -1.8701 -0.2821 -1.1873
 7539TIP3    H246813   3.298   6.086  11.648 -0.0974  1.3638  1.3548
 7540TIP3   OH246814   6.044   5.710  12.193 -0.2233  0.2523 -0.1056
 7540TIP3    H146815   6.113   5.714  12.126  0.6826 -0.1253  0.7722
 7540TIP3    H246816   6.077   5.765  12.264 -1.2196  0.7338 -0.0023
 7541TIP3   OH246817   4.376   5.952  12.217 -0.3095 -0.1084  0.3384
 7541TIP3    H146818   4.299   5.972  12.271 -0.5428  0.9177 -0.3420
 7541TIP3    H246819   4.440   5.917  12.279 -1.5679 -1.7190  0.7865
 7542TIP3   OH246820   5.471   1.484  11.851  0.0569 -0.5445  0.4075
 7542TIP3    H146821   5.460   1.510  11.760  0.6633 -2.4001 -0.2426
 7542TIP3    H246822   5.566   1.490  11.866 -0.0815  0.1587  1.0652
 7543TIP3   OH246823   1.450   4.456  12.755  0.2856  0.1719  0.0443
 7543TIP3    H146824   1.401   4.531  12.788  1.8374 -0.1243  3.4486
 7543TIP3    H246825   1.542   4.484  12.760  0.7984 -1.3782 -0.1689
 7544TIP3   OH246826   4.675   0.474  11.594 -0.3080  0.5853 -0.4461
 7544TIP3    H146827   4.767   0.478  11.622 -0.6266  0.1674  0.7040
 7544TIP3    H246828   4.677   0.424  11.513  0.0339 -3.4643  1.8252
 7545TIP3   OH246829   1.558   1.174  13.145  0.1161  0.2373 -0.5336
 7545TIP3    H146830   1.533   1.266  13.150 -3.2307 -0.5603  0.9880
 7545TIP3    H246831   1.522   1.135  13.225 -0.5889 -2.7427 -2.1052
 7546TIP3   OH246832   0.583   0.428  12.216  0.2643 -0.5770  0.2538
 7546TIP3    H146833   0.664   0.393  12.254  0.5388  0.4832  0.6779
 7546TIP3    H246834   0.527   0.447  12.291  0.6901  1.2514  0.1476
 7547TIP3   OH246835   6.467   5.932  10.861 -0.1904  0.7424  0.2303
 7547TIP3    H146836   6.391   5.925  10.803 -1.5219  0.2774  1.9351
 7547TIP3    H246837   6.434   5.980  10.937  0.6501 -1.1339  1.8680
 7548TIP3   OH246838   1.007   4.866  13.347  0.2284 -0.0766 -1.3779
 7548TIP3    H146839   1.028   4.780  13.384 -1.0587 -0.3465 -1.1962
 7548TIP3    H246840   0.915   4.879  13.370  0.4336  1.4095 -1.3046
 7549TIP3   OH246841   0.332   4.739  10.967  0.4417 -0.4438 -0.3229
 7549TIP3    H146842   0.403   4.675  10.975  0.7443 -0.2896 -1.5259
 7549TIP3    H246843   0.277   4.723  11.044  2.5422  0.4374  1.4774
 7550TIP3   OH246844   1.770   0.261  11.995 -0.2548  0.1467  0.2523
 7550TIP3    H146845   1.840   0.287  11.935 -0.2647 -0.0457  0.1578
 7550TIP3    H246846   1.734   0.181  11.957 -1.4557  0.9939 -0.4679
 7551TIP3   OH246847   5.256   5.999  12.932 -0.2634 -0.3573  0.1732
 7551TIP3    H146848   5.218   6.001  13.020 -0.8009 -0.8642 -0.0446
 7551TIP3    H246849   5.316   5.925  12.933 -0.2582 -0.3541  0.1118
 7552TIP3   OH246850   6.992   1.764  11.819 -0.3064 -0.0833 -0.3697
 7552TIP3    H146851   7.007   1.846  11.867 -1.8982 -0.0313  0.0970
 7552TIP3    H246852   7.001   1.696  11.885  0.0756 -0.2177 -0.5591
 7553TIP3   OH246853   7.051   6.906  12.124 -0.5721 -0.1697  0.0619
 7553TIP3    H146854   7.090   6.850  12.058  1.0765  1.2765 -0.2685
 7553TIP3    H246855   7.029   6.987  12.077  2.3754  1.6451  1.4808
 7554TIP3   OH246856   7.297   5.814  12.942 -0.2588  0.5210  0.2898
 7554TIP3    H146857   7.239   5.843  13.013 -1.7122  0.9466 -1.0257
 7554TIP3    H246858   7.298   5.886  12.880  0.5805 -0.0491 -0.3811
 7555TIP3   OH246859   3.808   6.075  12.341  0.2055  0.6382  0.0114
 7555TIP3    H146860   3.766   6.108  12.262 -1.3031 -0.6561  0.2357
 7555TIP3    H246861   3.751   6.004  12.372  1.6919 -0.0913  1.2598
 7556TIP3   OH246862   0.422   5.824  13.363 -0.4469  0.6132 -0.5303
 7556TIP3    H146863   0.387   5.814  13.274 -1.0449 -0.9373 -0.1511
 7556TIP3    H246864   0.345   5.839  13.418 -0.3898 -1.0992  0.0726
 7557TIP3   OH246865   3.536   6.658  12.805 -0.4561 -0.3288 -0.0219
 7557TIP3    H146866   3.521   6.745  12.769 -0.3212 -0.6282 -0.8301
 7557TIP3    H246867   3.478   6.653  12.881 -1.9935 -0.2568 -1.1402
 7558TIP3   OH246868   0.607   4.388  11.529  0.0563 -0.0726 -0.2694
 7558TIP3    H146869   0.696   4.355  11.516  0.2196  0.6269 -1.0103
 7558TIP3    H246870   0.574   4.339  11.604  0.9877 -0.4960 -0.1212
 7559TIP3   OH246871   2.208   4.648  11.987 -0.1900  0.2862 -0.2740
 7559TIP3    H146872   2.222   4.646  11.892 -0.2819 -1.3609 -0.2915
 7559TIP3    H246873   2.126   4.600  12.000  0.7427 -1.1059  0.7567
 7560TIP3   OH246874   6.958   5.029  10.995 -0.4505  0.2759  0.0836
 7560TIP3    H146875   6.877   5.034  10.944 -0.6409 -0.3915  0.3076
 7560TIP3    H246876   7.019   5.088  10.950 -1.0458  0.7528 -0.1092
 7561TIP3   OH246877   1.225   3.487  12.240  0.2316 -0.3660 -0.1314
 7561TIP3    H146878   1.224   3.394  12.262 -0.1176 -0.6265 -1.2117
 7561TIP3    H246879   1.188   3.530  12.317  2.1336 -0.9186  1.1716
 7562TIP3   OH246880   1.156   3.980  12.999  0.3039  0.6028 -0.1228
 7562TIP3    H146881   1.135   3.932  12.919  0.0797 -0.2053  0.4063
 7562TIP3    H246882   1.203   3.916  13.053 -1.6065  0.3502  1.3526
 7563TIP3   OH246883   3.662   2.298  12.746  0.0198 -0.1228  0.5766
 7563TIP3    H146884   3.690   2.211  12.775 -1.4725 -0.4000  1.2719
 7563TIP3    H246885   3.667   2.294  12.650  0.5116 -0.7772  0.6216
 7564TIP3   OH246886   2.954   5.336  12.359 -0.3048  0.9124 -0.6023
 7564TIP3    H146887   2.991   5.362  12.274 -1.3725  0.4646 -1.2301
 7564TIP3    H246888   3.024   5.288  12.402  0.1783  0.9220 -1.3585
 7565TIP3   OH246889   5.212   1.966  12.376 -0.2345  0.5267  0.2341
 7565TIP3    H146890   5.233   1.939  12.465 -0.9126  0.4057  0.3556
 7565TIP3    H246891   5.185   1.886  12.331 -1.5739  0.8630  0.4045
 7566TIP3   OH246892   3.030   0.765  12.998  0.1922  0.5944  0.2836
 7566TIP3    H146893   3.024   0.853  13.036  1.4336  0.7220  0.2497
 7566TIP3    H246894   3.090   0.776  12.924  1.9525 -0.6117  1.4328
 7567TIP3   OH246895   3.346   0.285  12.556 -0.6809  0.4483  0.5298
 7567TIP3    H146896   3.289   0.316  12.486 -0.5355 -0.3833  0.0229
 7567TIP3    H246897   3.426   0.337  12.549 -0.2261 -0.3658 -0.6485
 7568TIP3   OH246898   4.116   4.221  12.381  0.7018  0.3877  0.3099
 7568TIP3    H146899   4.107   4.304  12.428  0.1067 -0.3286  1.5099
 7568TIP3    H246900   4.202   4.225  12.339  0.2163  2.0734 -0.6156
 7569TIP3   OH246901   4.485   1.213  11.566  0.1330  0.2944  0.7411
 7569TIP3    H146902   4.484   1.145  11.634 -0.2345  1.4306  1.9070
 7569TIP3    H246903   4.578   1.230  11.550  0.2304  0.4727  1.4464
 7570TIP3   OH246904   1.803   7.046  11.834  0.1583 -0.6239  0.2403
 7570TIP3    H146905   1.867   7.019  11.900  0.3788  0.8121  0.6381
 7570TIP3    H246906   1.830   6.999  11.755  1.7071 -0.0609  0.3961
 7571TIP3   OH246907   2.488   0.124  12.390  0.5469  0.2394 -0.0092
 7571TIP3    H146908   2.436   0.048  12.414  2.0369 -1.1597 -0.9850
 7571TIP3    H246909   2.445   0.158  12.312 -1.1075  1.4955  1.3618
 7572TIP3   OH246910   5.403   5.744  12.339 -0.6117 -0.5068  0.1060
 7572TIP3    H146911   5.396   5.683  12.266  1.7123 -0.4698 -0.2431
 7572TIP3    H246912   5.412   5.688  12.416  0.3850 -0.6281 -0.0815
 7573TIP3   OH246913   0.046   5.539  10.481  0.2423  0.3056  0.7216
 7573TIP3    H146914   0.080   5.477  10.416  0.3921 -0.2510  1.3168
 7573TIP3    H246915   0.121   5.592  10.506 -0.1565  1.6001 -0.7236
 7574TIP3   OH246916   6.832   1.196  12.719  0.3867  0.0768 -0.0707
 7574TIP3    H146917   6.808   1.288  12.707 -1.6839 -0.2704  0.9478
 7574TIP3    H246918   6.911   1.185  12.667 -0.3217  1.9968 -1.6968
 7575TIP3   OH246919   2.799   0.319  12.768  0.0567  0.6961  0.0669
 7575TIP3    H146920   2.737   0.381  12.730 -0.0177  0.4836 -0.1602
 7575TIP3    H246921   2.788   0.239  12.717  1.0903  0.8992 -0.4977
 7576TIP3   OH246922   5.439   5.771  12.916 -0.2280  0.3446 -0.7007
 7576TIP3    H146923   5.507   5.749  12.979 -0.6728 -1.0045 -0.6634
 7576TIP3    H246924   5.487   5.795  12.836  0.2981 -0.3181 -0.5921
 7577TIP3   OH246925   5.162   1.479  12.446 -0.1903  0.1297  0.0532
 7577TIP3    H146926   5.111   1.523  12.514 -0.8708 -0.9453  0.2654
 7577TIP3    H246927   5.213   1.549  12.405 -2.6050  1.4313 -0.8805
 7578TIP3   OH246928   3.678   7.273  12.299  0.2522 -0.3690 -0.0393
 7578TIP3    H146929   3.670   7.206  12.366  1.3757 -1.2113 -0.7072
 7578TIP3    H246930   3.752   7.327  12.328  1.1369 -1.1002 -0.8669
 7579TIP3   OH246931   3.765   6.955  11.251  0.0306  0.0694  0.3844
 7579TIP3    H146932   3.809   6.870  11.241 -1.6433 -0.8747  0.6979
 7579TIP3    H246933   3.711   6.945  11.329 -1.7274  0.7051 -0.6940
 7580TIP3   OH246934   0.302   1.117  11.141  0.4106 -0.4764 -0.5627
 7580TIP3    H146935   0.352   1.039  11.165  0.6338 -0.0630  0.3762
 7580TIP3    H246936   0.216   1.083  11.115  1.3252 -1.2486 -2.7648
 7581TIP3   OH246937   3.863   2.544  12.832  0.4435 -0.2338 -0.0690
 7581TIP3    H146938   3.895   2.522  12.920  2.6175  0.8101 -0.5287
 7581TIP3    H246939   3.774   2.576  12.847 -0.0729 -2.1215  1.4497
 7582TIP3   OH246940   2.195   5.895  11.207  0.3654 -0.8419  0.5631
 7582TIP3    H146941   2.107   5.892  11.170  0.9173 -1.9285 -0.6956
 7582TIP3    H246942   2.189   5.961  11.276 -0.2661  2.7993 -2.6282
 7583TIP3   OH246943   2.754   4.052  11.866  0.2668 -0.1453 -0.2191
 7583TIP3    H146944   2.847   4.067  11.853  0.2795 -1.1031 -1.4030
 7583TIP3    H246945   2.743   3.957  11.855 -1.0445  0.1230 -1.5396
 7584TIP3   OH246946   2.725   0.673  12.555 -0.6321 -0.4846  0.3401
 7584TIP3    H146947   2.820   0.682  12.545 -0.8290  1.2613 -0.3154
 7584TIP3    H246948   2.699   0.616  12.482 -0.1472 -0.6752  0.3073
 7585TIP3   OH246949   1.889   0.845  12.548  0.6984  0.2314 -0.6210
 7585TIP3    H146950   1.845   0.930  12.546 -1.8014 -0.9564 -0.3891
 7585TIP3    H246951   1.982   0.866  12.554  0.1342  2.9314 -0.0103
 7586TIP3   OH246952   1.124   5.608  11.315  0.0148  0.2638 -0.1778
 7586TIP3    H146953   1.209   5.580  11.283 -0.1609  0.0619 -0.4746
 7586TIP3    H246954   1.097   5.678  11.255  0.4711  1.1163  0.5878
 7587TIP3   OH246955   0.618   0.143  12.490  0.3422 -0.9862  0.5380
 7587TIP3    H146956   0.680   0.083  12.531  1.2678 -0.1951  0.3235
 7587TIP3    H246957   0.672   0.215  12.458 -0.9297  1.0762  2.7020
 7588TIP3   OH246958   0.071   0.098  12.317  0.3838  0.2966 -0.0031
 7588TIP3    H146959   0.127   0.158  12.365 -1.8323  1.1970  1.6168
 7588TIP3    H246960   0.130   0.029  12.287  2.9436  2.9127 -1.4824
 7589TIP3   OH246961   3.751   2.084  11.042 -0.3924  0.0854  0.1349
 7589TIP3    H146962   3.778   2.168  11.005 -1.6949  1.0804  1.3471
 7589TIP3    H246963   3.832   2.032  11.045  1.0177  2.1879  1.7015
 7590TIP3   OH246964   4.589   3.987  14.075 -0.2540 -0.2557 -0.3440
 7590TIP3    H146965   4.631   3.966  13.991  1.2970  0.1708  0.2875
 7590TIP3    H246966   4.569   4.081  14.068  1.5956  0.2523  0.4097
 7591TIP3   OH246967   2.103   4.018  11.973 -0.1904  0.8598  0.4063
 7591TIP3    H146968   2.109   4.053  11.884  1.3726  0.0638  0.1550
 7591TIP3    H246969   2.071   3.928  11.962  1.8126  0.0936  0.4181
 7592TIP3   OH246970   2.101   7.191  11.783  0.2082  0.2211  0.2255
 7592TIP3    H146971   2.069   7.136  11.854  3.0815  0.6624  2.0355
 7592TIP3    H246972   2.082   7.280  11.812 -0.7935  0.3566 -0.7807
 7593TIP3   OH246973   0.286   4.390  11.039 -0.5222 -0.4173  0.1033
 7593TIP3    H146974   0.320   4.359  11.123 -2.8732  0.0605  1.3006
 7593TIP3    H246975   0.296   4.315  10.980  1.2470 -0.7350  0.7547
 7594TIP3   OH246976   0.297   4.996  11.626  0.0390 -0.2528  0.4979
 7594TIP3    H146977   0.306   4.912  11.671  1.1316 -0.9898 -0.9882
 7594TIP3    H246978   0.226   4.981  11.563  2.4151 -1.2670 -2.1335
 7595TIP3   OH246979   2.104   3.748  13.467  0.5706 -0.6098  0.0855
 7595TIP3    H146980   2.053   3.826  13.447 -0.8539 -1.4333  0.3871
 7595TIP3    H246981   2.055   3.703  13.535  1.9458 -1.2243  0.7195
 7596TIP3   OH246982   5.191   6.956  12.277 -0.7163  0.9744 -0.0179
 7596TIP3    H146983   5.275   6.910  12.267 -1.2345 -0.2876  1.1371
 7596TIP3    H246984   5.214   7.040  12.315  0.0348  0.6664  0.2241
 7597TIP3   OH246985   6.142   4.295  11.336  0.1181  0.3594 -0.2096
 7597TIP3    H146986   6.113   4.205  11.354 -1.5627  1.1122  1.1263
 7597TIP3    H246987   6.160   4.332  11.422  1.4000  1.1501 -0.7838
 7598TIP3   OH246988   5.003   2.508  11.997 -0.0431 -0.1631 -0.5437
 7598TIP3    H146989   5.019   2.464  12.080 -2.6968  0.0260  0.1794
 7598TIP3    H246990   5.004   2.438  11.932 -1.5323 -0.9328  0.2125
 7599TIP3   OH246991   2.045   3.576  13.030  0.5196 -0.6583  0.0518
 7599TIP3    H146992   2.094   3.570  12.949  1.0271  1.0517  0.1912
 7599TIP3    H246993   2.110   3.603  13.096 -0.2290 -0.1815  0.6220
 7600TIP3   OH246994   1.773   3.875  13.764  0.2098 -0.4742  0.2250
 7600TIP3    H146995   1.762   3.964  13.798  0.9557 -0.8476  1.4774
 7600TIP3    H246996   1.690   3.856  13.720 -0.0763  0.7113  0.2068
 7601TIP3   OH246997   1.035   0.900  11.037  0.2123 -0.2521 -0.4287
 7601TIP3    H146998   0.974   0.958  10.993  1.6830  0.0579 -2.1468
 7601TIP3    H246999   1.056   0.945  11.119 -2.2905 -0.6757  0.5276
 7602TIP3   OH247000   3.552   4.896  12.319  0.6559  0.2156 -0.2953
 7602TIP3    H147001   3.588   4.944  12.394  0.5053  1.7784 -1.1763
 7602TIP3    H247002   3.582   4.806  12.331  1.9151  0.7543  0.8419
 7603TIP3   OH247003   2.869   7.564  13.501  0.4057 -0.1819 -0.3375
 7603TIP3    H147004   2.947   7.616  13.521  0.8244 -0.1393 -1.9175
 7603TIP3    H247005   2.823   7.614  13.434 -1.0226 -0.2007  0.5870
 7604TIP3   OH247006   1.538   1.087  12.196  0.3168  0.4148  0.0600
 7604TIP3    H147007   1.514   1.177  12.218  0.9467  0.5038  0.4084
 7604TIP3    H247008   1.529   1.083  12.100  1.5927  1.2600 -0.1206
 7605TIP3   OH247009   4.661   0.288  11.369 -0.3733  0.1538  0.2070
 7605TIP3    H147010   4.712   0.227  11.316  1.2415  0.2136  1.6147
 7605TIP3    H247011   4.656   0.247  11.455 -1.1980  0.9887  0.5830
 7606TIP3   OH247012   2.511   0.827  10.741  0.1087 -0.5482  0.0047
 7606TIP3    H147013   2.568   0.794  10.810  0.7366  1.3063  0.4465
 7606TIP3    H247014   2.544   0.787  10.661  0.5600 -1.2722  0.5410
 7607TIP3   OH247015   2.508   7.492  11.802  0.1170 -0.6525 -0.7228
 7607TIP3    H147016   2.419   7.528  11.802  0.3040 -0.1220  0.5306
 7607TIP3    H247017   2.525   7.469  11.711 -1.4698 -1.1974 -0.9081
 7608TIP3   OH247018   3.573   7.139  12.501 -0.6350  0.4066 -0.1300
 7608TIP3    H147019   3.493   7.182  12.531  1.0785  2.2949  2.1178
 7608TIP3    H247020   3.638   7.161  12.567  1.7047 -1.3282 -1.6902
 7609TIP3   OH247021   1.624   7.302  12.925  0.2039  0.1965 -0.3491
 7609TIP3    H147022   1.708   7.257  12.921 -0.6923 -1.5331 -0.4018
 7609TIP3    H247023   1.625   7.346  13.011  1.3046  0.5531 -0.5248
 7610TIP3   OH247024   3.581   1.021  12.490 -0.2179 -0.2328  0.4347
 7610TIP3    H147025   3.515   1.081  12.456 -0.5036  0.6358  2.4158
 7610TIP3    H247026   3.660   1.074  12.500  0.2702 -0.8180 -0.1762
 7611TIP3   OH247027   4.497   2.227  13.174  0.2360  0.4790  0.5570
 7611TIP3    H147028   4.498   2.166  13.248 -0.0116  0.9315  0.9386
 7611TIP3    H247029   4.551   2.300  13.202  1.5300 -0.0860 -0.3689
 7612TIP3   OH247030   4.241   2.462  11.995 -0.3235  0.0740  0.4492
 7612TIP3    H147031   4.262   2.512  11.917  0.1065  0.8394  1.0351
 7612TIP3    H247032   4.207   2.379  11.963 -0.3382  0.4536 -0.5420
 7613TIP3   OH247033   3.996   4.217  12.768 -0.0539  0.3304  0.1813
 7613TIP3    H147034   4.051   4.139  12.769  0.8812  0.9043 -1.5151
 7613TIP3    H247035   3.910   4.186  12.797 -0.2253 -1.7869 -2.2134
 7614TIP3   OH247036   4.229   7.563  13.019  0.1821  0.1557  0.2937
 7614TIP3    H147037   4.172   7.491  12.994  0.9745 -0.4687  0.2394
 7614TIP3    H247038   4.173   7.622  13.069 -0.7751  0.1208 -0.7060
 7615TIP3   OH247039   3.468   1.605  12.877  0.1546 -0.4704  0.0547
 7615TIP3    H147040   3.395   1.664  12.860  2.3068  3.0170  1.7667
 7615TIP3    H247041   3.524   1.613  12.801  0.6416  0.0143  0.4596
 7616TIP3   OH247042   2.001   0.190  11.013  0.5564 -0.3313  0.4516
 7616TIP3    H147043   1.929   0.229  10.964  1.0512 -0.0108 -0.0375
 7616TIP3    H247044   1.988   0.220  11.103  0.1926 -0.1083  0.3267
 7617TIP3   OH247045   6.159   5.180  11.768  0.1405 -0.2977 -0.4070
 7617TIP3    H147046   6.077   5.156  11.811 -0.0019  1.3191  0.2718
 7617TIP3    H247047   6.191   5.256  11.817  1.1991  0.1146 -1.6815
 7618TIP3   OH247048   1.406   5.384  12.010  0.1263  0.3762 -0.1803
 7618TIP3    H147049   1.438   5.468  11.977  1.9000 -0.1720  0.0586
 7618TIP3    H247050   1.429   5.321  11.941  0.5693 -0.2082  0.4938
 7619TIP3   OH247051   5.627   1.925  11.256  0.1332 -0.8234  0.2500
 7619TIP3    H147052   5.597   1.853  11.200  0.4443 -0.3608 -0.5198
 7619TIP3    H247053   5.597   2.004  11.212  1.8436 -0.3795 -0.1659
 7620TIP3   OH247054   0.887   3.022  12.838 -0.5262  0.1916  0.0588
 7620TIP3    H147055   0.971   2.983  12.862  1.0976  2.8737 -0.8930
 7620TIP3    H247056   0.868   3.083  12.909 -0.8292  0.7682 -0.5072
 7621TIP3   OH247057   4.566   6.530  11.172  0.5909  0.3794  0.0466
 7621TIP3    H147058   4.561   6.455  11.231 -0.2417  0.0133 -0.4800
 7621TIP3    H247059   4.499   6.590  11.203  2.6136  1.9059  1.7755
 7622TIP3   OH247060   7.141   4.075  11.776 -0.0622 -0.1655 -0.0811
 7622TIP3    H147061   7.134   3.990  11.732  3.3354  0.6157 -2.5347
 7622TIP3    H247062   7.079   4.131  11.729  0.1683 -0.4576 -0.7413
 7623TIP3   OH247063   4.387   5.374  10.910  0.4751 -0.5746  0.2964
 7623TIP3    H147064   4.388   5.278  10.905 -0.3722 -0.5571 -0.8412
 7623TIP3    H247065   4.365   5.402  10.821  1.8499  0.7317  0.3215
 7624TIP3   OH247066   5.206   1.516  11.308 -0.0587  0.4220  0.2364
 7624TIP3    H147067   5.283   1.485  11.260  1.5768  1.1856  2.2256
 7624TIP3    H247068   5.138   1.451  11.288  0.8079  0.1717 -2.2298
 7625TIP3   OH247069   7.632   2.627  11.926  0.4331 -0.5543 -0.1051
 7625TIP3    H147070   7.567   2.571  11.885  0.4715 -0.4412 -0.3189
 7625TIP3    H247071   7.609   2.626  12.019 -1.1163  1.0969 -0.4087
 7626TIP3   OH247072   4.206   6.481  11.131 -0.1979  0.4556 -0.2676
 7626TIP3    H147073   4.256   6.475  11.049  0.2380  0.4780 -0.0070
 7626TIP3    H247074   4.248   6.552  11.179 -0.5147  0.5066 -0.0611
 7627TIP3   OH247075   2.679   3.793  12.964  0.0860 -0.5008  0.2861
 7627TIP3    H147076   2.693   3.727  13.032  2.8079  0.4476  0.8033
 7627TIP3    H247077   2.666   3.875  13.012  0.7478 -0.0359 -0.2961
 7628TIP3   OH247078   0.884   2.570  11.785  0.8703 -0.4442 -0.0983
 7628TIP3    H147079   0.885   2.638  11.718  2.6715  0.3942  0.7004
 7628TIP3    H247080   0.833   2.498  11.747 -2.9404  2.0134 -0.2249
 7629TIP3   OH247081   1.511   6.859  13.164  0.2155 -0.1645 -0.0953
 7629TIP3    H147082   1.534   6.792  13.099 -2.9188 -1.7809  0.2804
 7629TIP3    H247083   1.469   6.811  13.235 -1.8020  2.1275  0.3925
 7630TIP3   OH247084   7.021   4.722  11.922  0.4857  0.2952 -0.4875
 7630TIP3    H147085   7.090   4.772  11.878 -0.9610  0.3967 -2.8402
 7630TIP3    H247086   6.942   4.775  11.909 -0.4680 -0.9751 -0.0298
 7631TIP3   OH247087   6.958   1.186  12.056 -0.0670 -0.2643  0.1917
 7631TIP3    H147088   6.934   1.190  12.149 -1.0990  1.0233 -0.0973
 7631TIP3    H247089   6.875   1.165  12.012  0.5047 -1.3041 -0.4156
 7632TIP3   OH247090   3.342   2.087  11.526  0.2221 -0.5893 -0.6127
 7632TIP3    H147091   3.253   2.053  11.514  0.5978 -1.5671 -0.7771
 7632TIP3    H247092   3.399   2.012  11.508  1.1136  0.2018 -1.1996
 7633TIP3   OH247093   5.068   3.210  13.507  0.9400 -0.4197  0.4443
 7633TIP3    H147094   5.018   3.269  13.451  1.2241 -0.8691 -0.3018
 7633TIP3    H247095   5.139   3.264  13.542 -0.1946  0.3087  1.7616
 7634TIP3   OH247096   1.299   5.642  13.907  0.0129 -0.7251 -0.0502
 7634TIP3    H147097   1.342   5.587  13.841 -1.4125 -0.9680 -0.8170
 7634TIP3    H247098   1.216   5.597  13.925 -1.2305  1.2046 -0.7454
 7635TIP3   OH247099   3.821   3.874  11.243  0.4004  0.3645 -0.0297
 7635TIP3    H147100   3.886   3.944  11.252 -0.8619  1.6538 -0.4751
 7635TIP3    H247101   3.767   3.882  11.322  0.3437 -0.2119 -0.0093
 7636TIP3   OH247102   0.915   0.164  12.751 -0.3698  0.8252 -0.4631
 7636TIP3    H147103   0.862   0.107  12.695  0.2230  0.1050 -0.3009
 7636TIP3    H247104   0.988   0.109  12.779 -1.3248  0.7157  2.0921
 7637TIP3   OH247105   1.664   4.390  11.730 -0.3756  0.1648  0.0824
 7637TIP3    H147106   1.658   4.484  11.711 -0.9017  0.1352  0.0787
 7637TIP3    H247107   1.729   4.384  11.800  0.7641  0.3816 -0.9286
 7638TIP3   OH247108   1.544   4.756  13.019 -0.5562  0.0390 -0.2006
 7638TIP3    H147109   1.639   4.743  13.021 -0.7524 -1.5793  0.3767
 7638TIP3    H247110   1.529   4.832  13.074  0.2716 -0.7748  1.2123
 7639TIP3   OH247111   2.992   1.030  13.070 -0.5402 -0.4516  0.7378
 7639TIP3    H147112   2.938   1.083  13.128  1.1639  2.2546  0.0643
 7639TIP3    H247113   3.076   1.021  13.116 -0.4632 -1.7327  0.3847
 7640TIP3   OH247114   2.800   3.577  13.090  0.3731  0.2908  0.3326
 7640TIP3    H147115   2.819   3.536  13.005 -0.0112  0.1493  0.3119
 7640TIP3    H247116   2.718   3.537  13.118 -0.5468  1.7195 -0.1435
 7641TIP3   OH247117   1.176   7.637  11.687 -0.3699  0.1310 -0.3264
 7641TIP3    H147118   1.257   7.590  11.706 -0.4921 -0.6299 -1.5495
 7641TIP3    H247119   1.148   7.672  11.771 -1.0834 -3.2718  1.0038
 7642TIP3   OH247120   6.229   2.917  12.217  0.0640 -0.4486 -0.0579
 7642TIP3    H147121   6.317   2.891  12.247 -0.2959 -1.2211  0.3491
 7642TIP3    H247122   6.187   2.835  12.194 -0.7548 -0.1290  0.2831
 7643TIP3   OH247123   1.585   7.409  11.265  0.2401 -0.2395 -0.0782
 7643TIP3    H147124   1.501   7.418  11.310 -0.2933  2.3436 -1.3854
 7643TIP3    H247125   1.585   7.318  11.233 -2.1477 -0.2646 -0.2073
 7644TIP3   OH247126   7.333   6.242  11.628 -0.1305 -0.0300 -0.0291
 7644TIP3    H147127   7.250   6.202  11.652 -0.5268  0.6383 -0.2496
 7644TIP3    H247128   7.310   6.307  11.562  0.5311  0.3490  0.1025
 7645TIP3   OH247129   3.367   4.935  12.589 -0.0545  0.1312 -0.4046
 7645TIP3    H147130   3.279   4.949  12.624  1.1055  1.4692  2.2394
 7645TIP3    H247131   3.421   4.999  12.634  2.5277 -1.5519 -0.9186
 7646TIP3   OH247132   4.405   5.083  10.938  0.0720 -0.1428 -0.3627
 7646TIP3    H147133   4.498   5.061  10.943  0.3877  1.2637  0.5839
 7646TIP3    H247134   4.364   5.036  11.010  0.1662 -0.2141 -0.3557
 7647TIP3   OH247135   0.307   1.073  12.980  0.3282  0.3664 -0.0094
 7647TIP3    H147136   0.351   1.158  12.973  1.7326 -0.4275 -1.6257
 7647TIP3    H247137   0.224   1.084  12.934  0.6137  0.8109 -0.4231
 7648TIP3   OH247138   1.738   2.290  12.843  0.1219 -0.1146  0.1740
 7648TIP3    H147139   1.768   2.285  12.753  0.2983  1.2666  0.1367
 7648TIP3    H247140   1.650   2.329  12.837  0.6069  1.0958  0.6631
 7649TIP3   OH247141   2.452   4.211  11.021  0.3746  0.4073 -0.1496
 7649TIP3    H147142   2.391   4.220  10.948 -0.2133 -1.9575 -0.0575
 7649TIP3    H247143   2.522   4.274  11.003 -1.2343  1.9892 -1.1437
 7650TIP3   OH247144   7.185   5.774  12.335 -0.0850  0.0109 -0.4365
 7650TIP3    H147145   7.135   5.843  12.380 -0.8175  0.5224 -1.9598
 7650TIP3    H247146   7.136   5.758  12.255 -0.3037 -2.7804  0.1376
 7651TIP3   OH247147   0.825   2.677  12.627 -0.1119  0.4296 -0.1448
 7651TIP3    H147148   0.786   2.747  12.574  0.8633  1.9331  1.0752
 7651TIP3    H247149   0.893   2.640  12.571 -0.3193  0.7521 -0.6187
 7652TIP3   OH247150   6.318   3.793  12.529  0.3732 -0.5265 -0.0372
 7652TIP3    H147151   6.230   3.829  12.544  0.4808 -0.4372  0.3971
 7652TIP3    H247152   6.353   3.843  12.456  0.2324 -0.2532  0.0805
 7653TIP3   OH247153   6.517   6.215  12.633  0.1525 -0.5743 -0.1965
 7653TIP3    H147154   6.491   6.161  12.559 -0.4159 -0.4358 -0.0996
 7653TIP3    H247155   6.457   6.289  12.631  1.5420  0.5851 -0.9276
 7654TIP3   OH247156   6.702   5.000  10.795 -0.2378 -0.5769 -0.0784
 7654TIP3    H147157   6.702   5.094  10.775  1.2182 -0.4827  0.2829
 7654TIP3    H247158   6.620   4.986  10.842 -1.2496  0.1911 -1.5449
 7655TIP3   OH247159   0.775   4.091  11.975  0.4338  0.0817 -0.2807
 7655TIP3    H147160   0.736   4.053  12.054  0.7916 -0.2350 -0.2493
 7655TIP3    H247161   0.708   4.082  11.908  0.3453 -0.1927 -0.1576
 7656TIP3   OH247162   2.836   2.625  12.214 -0.2154 -0.1387  0.1435
 7656TIP3    H147163   2.761   2.657  12.264 -0.3978  0.7722 -0.7000
 7656TIP3    H247164   2.859   2.697  12.156  0.4186 -0.9348 -0.6142
 7657TIP3   OH247165   5.527   6.252  11.016  0.1872 -0.0554 -0.2990
 7657TIP3    H147166   5.470   6.206  11.078 -0.1481  1.4509  0.5602
 7657TIP3    H247167   5.471   6.316  10.974  1.2177  1.5355  0.6412
 7658TIP3   OH247168   7.480   1.039  12.311 -0.4875 -0.0855 -0.2581
 7658TIP3    H147169   7.390   1.007  12.318 -0.3819 -0.2591  0.3024
 7658TIP3    H247170   7.533   0.960  12.297 -0.4448  0.0373 -0.8201
 7659TIP3   OH247171   2.555   6.573  11.360 -0.2484  0.1501 -0.3869
 7659TIP3    H147172   2.626   6.623  11.321 -0.6754 -0.0940 -1.4997
 7659TIP3    H247173   2.564   6.588  11.454  0.6935  0.8820 -0.5841
 7660TIP3   OH247174   3.217   2.622  13.426 -0.1851  0.2451  0.0644
 7660TIP3    H147175   3.234   2.714  13.445 -1.6621  0.2106  1.8464
 7660TIP3    H247176   3.228   2.614  13.331 -0.5223  2.3672 -0.1935
 7661TIP3   OH247177   3.236   4.106  11.589 -0.1604  0.2211  0.1820
 7661TIP3    H147178   3.260   4.022  11.551  1.1275 -0.3757  2.1958
 7661TIP3    H247179   3.319   4.146  11.615 -0.8248  1.7013  0.1329
 7662TIP3   OH247180   6.473   3.107  11.902 -0.1377 -0.2473  0.1311
 7662TIP3    H147181   6.378   3.102  11.896 -0.1931 -1.1948  1.3653
 7662TIP3    H247182   6.498   3.032  11.957  1.3869 -0.4735 -0.7993
 7663TIP3   OH247183   3.841   6.600  13.075  0.0183  0.1332  0.0764
 7663TIP3    H147184   3.915   6.660  13.081  0.0458 -0.0079  1.7890
 7663TIP3    H247185   3.770   6.645  13.121  0.1201 -1.2148  1.6414
 7664TIP3   OH247186   7.454   2.508  11.716  0.3926  0.5302  0.2562
 7664TIP3    H147187   7.484   2.575  11.655  0.9035 -0.9357 -1.1609
 7664TIP3    H247188   7.491   2.426  11.683 -0.1445 -0.4709  1.9726
 7665TIP3   OH247189   5.039   6.365  12.867  0.1974  0.3968 -0.0682
 7665TIP3    H147190   4.984   6.328  12.936 -0.2487  0.7300 -0.2432
 7665TIP3    H247191   5.128   6.339  12.891 -0.1686 -1.5873 -0.6674
 7666TIP3   OH247192   5.865   6.903  11.846 -0.1870 -0.3870 -0.1504
 7666TIP3    H147193   5.877   6.812  11.818 -0.2756 -0.4759  0.0992
 7666TIP3    H247194   5.797   6.938  11.788 -2.3734 -1.3677  1.6991
 7667TIP3   OH247195   5.693   1.936  12.336 -0.4341 -0.2099 -0.0768
 7667TIP3    H147196   5.654   1.870  12.278 -0.5842 -0.6139  0.4787
 7667TIP3    H247197   5.626   1.953  12.402  0.4343 -1.1835  1.1043
 7668TIP3   OH247198   0.778   5.221  12.295  0.3506  0.9856 -0.6103
 7668TIP3    H147199   0.813   5.241  12.382 -0.8580  1.2631 -0.1700
 7668TIP3    H247200   0.706   5.283  12.283  2.9825  3.8582 -3.5488
 7669TIP3   OH247201   6.153   4.545  12.667  0.1901  0.1620 -0.2851
 7669TIP3    H147202   6.180   4.553  12.759 -2.9392 -2.3121  1.0667
 7669TIP3    H247203   6.066   4.586  12.665 -0.0544 -0.3810 -1.9720
 7670TIP3   OH247204   4.969   3.361  12.533  0.2641  0.2460  0.2554
 7670TIP3    H147205   4.962   3.421  12.607 -2.0820  0.8801 -0.4048
 7670TIP3    H247206   4.890   3.307  12.538  1.3424 -1.4825 -0.3325
 7671TIP3   OH247207   1.828   1.992  10.998  0.7407 -0.0128  0.1409
 7671TIP3    H147208   1.848   2.085  11.005  0.6291 -0.0279  0.7134
 7671TIP3    H247209   1.742   1.982  11.039  0.9889 -0.4485  0.5670
 7672TIP3   OH247210   0.626   2.226  10.701  0.0339  0.3334 -0.5082
 7672TIP3    H147211   0.598   2.145  10.745  0.0235 -0.9637 -2.7839
 7672TIP3    H247212   0.682   2.196  10.629 -1.5113  2.2073 -2.6143
 7673TIP3   OH247213   3.504   4.219  11.208 -0.2197 -0.4480 -0.1146
 7673TIP3    H147214   3.468   4.282  11.147 -3.0788 -0.5938  1.2827
 7673TIP3    H247215   3.599   4.224  11.194 -0.4982  2.3372 -1.7259
 7674TIP3   OH247216   2.598   2.611  12.366  0.3541  0.0756 -0.3207
 7674TIP3    H147217   2.648   2.588  12.444  0.2340 -3.1395 -1.0441
 7674TIP3    H247218   2.512   2.635  12.400  0.5949 -0.2884  0.5937
 7675TIP3   OH247219   1.657   0.207  10.911 -0.4216  0.3530 -0.3445
 7675TIP3    H147220   1.563   0.208  10.927 -0.2269  1.2172  0.8854
 7675TIP3    H247221   1.681   0.114  10.912 -0.9392  0.2047  1.5487
 7676TIP3   OH247222   3.389   1.355  10.925  0.1651 -0.0310  0.3601
 7676TIP3    H147223   3.389   1.382  11.017 -0.1810 -1.1464  0.7037
 7676TIP3    H247224   3.297   1.358  10.899  0.4272  2.0194 -0.5101
 7677TIP3   OH247225   0.045   3.206  11.525 -0.2005  0.6347  0.5573
 7677TIP3    H147226   0.121   3.252  11.489 -1.6049  1.8202 -1.0191
 7677TIP3    H247227   0.026   3.137  11.461 -1.2131  1.1569  0.2903
 7678TIP3   OH247228   7.226   2.741  11.721 -0.6083 -0.8645  0.0084
 7678TIP3    H147229   7.293   2.717  11.657 -0.2630  0.0734 -0.0036
 7678TIP3    H247230   7.144   2.716  11.680 -0.2984 -1.6661 -0.1458
 7679TIP3   OH247231   0.839   5.054  11.764 -0.0087  0.3062  0.9427
 7679TIP3    H147232   0.837   5.063  11.860 -0.1352 -2.9376  1.3325
 7679TIP3    H247233   0.755   5.015  11.741  1.1142 -1.6421 -0.0944
 7680TIP3   OH247234   2.769   6.293  11.959 -0.2296  0.5713  0.2164
 7680TIP3    H147235   2.728   6.213  11.991 -1.2559  1.0945  0.2620
 7680TIP3    H247236   2.733   6.362  12.015 -0.1493  1.1889 -0.4775
 7681TIP3   OH247237   6.662   3.546  11.892 -0.0730  1.0540  0.4826
 7681TIP3    H147238   6.706   3.483  11.834  0.8652  1.3181  0.8804
 7681TIP3    H247239   6.712   3.627  11.880 -0.9296  1.5728  0.3872
 7682TIP3   OH247240   1.706   3.309  12.379 -0.2026 -0.1335  0.3659
 7682TIP3    H147241   1.758   3.362  12.440  0.0811  0.1126 -0.0766
 7682TIP3    H247242   1.651   3.373  12.334  0.4587 -0.1370 -0.4880
 7683TIP3   OH247243   5.873   2.125  11.682 -0.1912 -0.4011  0.5619
 7683TIP3    H147244   5.812   2.072  11.732 -1.3428  1.0846  0.7823
 7683TIP3    H247245   5.819   2.169  11.617  1.1187 -1.4652 -1.3570
 7684TIP3   OH247246   4.215   0.034  12.648  0.1845  0.5802 -0.3562
 7684TIP3    H147247   4.188   0.048  12.557  0.2254  3.5256 -0.0174
 7684TIP3    H247248   4.161   0.096  12.699  1.8218  0.7259  1.3175
 7685TIP3   OH247249   4.452   0.603  11.662 -0.5053 -0.0194 -0.1067
 7685TIP3    H147250   4.500   0.683  11.685  0.3616  0.0469 -1.9872
 7685TIP3    H247251   4.519   0.543  11.629 -1.1576 -1.5278  1.1808
 7686TIP3   OH247252   1.367   0.925  11.683  0.5660  0.0848 -0.2902
 7686TIP3    H147253   1.363   0.867  11.607  1.2934  1.5458 -1.5126
 7686TIP3    H247254   1.323   1.005  11.654  0.8671  0.6809  0.8300
 7687TIP3   OH247255   5.153   6.917  11.293 -0.1603 -0.7394  0.0140
 7687TIP3    H147256   5.084   6.883  11.350  0.5012  1.5696  2.4223
 7687TIP3    H247257   5.234   6.881  11.330  0.0858 -3.3454 -2.7266
 7688TIP3   OH247258   2.548   6.502  10.989  0.1147 -0.6378 -0.1442
 7688TIP3    H147259   2.493   6.428  11.015 -0.8802 -0.2134 -0.9830
 7688TIP3    H247260   2.582   6.476  10.903  0.4055 -0.4543 -0.0859
 7689TIP3   OH247261   4.490   4.981  11.877  0.1908  0.1005 -0.2994
 7689TIP3    H147262   4.454   4.908  11.927 -0.4958  0.4385 -0.2911
 7689TIP3    H247263   4.501   5.051  11.942  1.8193 -0.3026 -0.0922
 7690TIP3   OH247264   3.578   2.417  11.714 -0.6344  0.4659 -0.3006
 7690TIP3    H147265   3.596   2.409  11.621  0.6161  0.4199 -0.0753
 7690TIP3    H247266   3.623   2.342  11.753 -2.1613 -0.2278  0.2376
 7691TIP3   OH247267   2.410   2.168  10.845 -0.0630  0.0003  0.2489
 7691TIP3    H147268   2.495   2.131  10.867  0.0071  0.2559  0.4153
 7691TIP3    H247269   2.347   2.112  10.889 -0.0894 -1.2401 -1.2670
 7692TIP3   OH247270   7.443   6.382  12.684 -0.4898 -0.3221 -0.2502
 7692TIP3    H147271   7.533   6.385  12.717 -0.6273 -1.7098  0.3163
 7692TIP3    H247272   7.449   6.420  12.596  0.6678 -0.4712 -0.2546
 7693TIP3   OH247273   4.870   0.673  19.081  0.1127  0.0417 -0.4407
 7693TIP3    H147274   4.937   0.635  19.024  0.9941 -0.7130  1.0110
 7693TIP3    H247275   4.909   0.670  19.168 -1.2860  0.8936  0.2576
 7694TIP3   OH247276   3.839   5.594  13.356 -0.2216  0.2814 -0.5446
 7694TIP3    H147277   3.804   5.606  13.267 -2.3582  0.7677  0.2971
 7694TIP3    H247278   3.878   5.678  13.378 -0.6388  0.5041 -0.6477
 7695TIP3   OH247279   2.246   3.086  12.355 -0.2836  0.2019  0.5593
 7695TIP3    H147280   2.198   3.003  12.353  0.3053 -0.1463 -1.4001
 7695TIP3    H247281   2.180   3.153  12.340 -0.7734  0.1301  2.2035
 7696TIP3   OH247282   3.396   7.621  12.713  0.1244  0.2636 -0.1241
 7696TIP3    H147283   3.463   7.675  12.756 -0.1671 -0.2772  1.0413
 7696TIP3    H247284   3.445   7.569  12.649  0.8092 -0.0359  0.6271
 7697TIP3   OH247285   6.652   4.033  12.164 -0.8713  0.5349 -0.0670
 7697TIP3    H147286   6.713   3.960  12.168 -1.2391  0.2586  0.7234
 7697TIP3    H247287   6.704   4.109  12.189 -0.5928  0.4755 -0.4642
 7698TIP3   OH247288   3.753   6.247  13.268 -0.0853 -0.1584  0.2442
 7698TIP3    H147289   3.685   6.314  13.275  0.9232  0.8334  0.7480
 7698TIP3    H247290   3.712   6.168  13.304 -0.9919  0.4009  0.4834
 7699TIP3   OH247291   6.468   5.315  11.575  0.0306  0.4951  0.6753
 7699TIP3    H147292   6.540   5.317  11.511  0.2969  2.8598  0.9465
 7699TIP3    H247293   6.486   5.237  11.628  0.8717 -0.4601 -0.9074
 7700TIP3   OH247294   6.427   4.092  13.187  0.0718  0.3478  0.2962
 7700TIP3    H147295   6.333   4.075  13.194 -0.1620  0.4047 -2.1321
 7700TIP3    H247296   6.462   4.063  13.272 -2.1214  0.4584  1.3194
 7701TIP3   OH247297   2.545   0.695  12.757 -0.0068  0.0676 -0.2546
 7701TIP3    H147298   2.588   0.695  12.671  1.2799 -1.1063  0.3599
 7701TIP3    H247299   2.616   0.692  12.820 -0.9420  0.7866  0.8871
 7702TIP3   OH247300   0.526   7.653  12.055  0.5331  0.0579  0.3401
 7702TIP3    H147301   0.531   7.621  11.965  0.5505 -1.0946  0.7441
 7702TIP3    H247302   0.579   7.592  12.106  0.1294  0.4137  1.2113
 7703TIP3   OH247303   5.677   6.527  12.108  0.2386  0.2539  0.0291
 7703TIP3    H147304   5.718   6.613  12.120 -0.4504  0.5332  0.4998
 7703TIP3    H247305   5.599   6.545  12.055  1.4397 -0.4827 -2.1045
 7704TIP3   OH247306   6.453   2.961  12.770 -0.3517  0.1699 -0.4684
 7704TIP3    H147307   6.530   3.007  12.803 -0.9766 -0.0972  1.4767
 7704TIP3    H247308   6.390   2.963  12.843 -1.1270 -2.0541 -0.9861
 7705TIP3   OH247309   2.507   2.943  12.313  0.7729  0.2014  0.8573
 7705TIP3    H147310   2.415   2.966  12.298  0.7022 -0.2871  0.5134
 7705TIP3    H247311   2.503   2.856  12.354  0.9469  1.4862  3.8501
 7706TIP3   OH247312   1.473   5.887  12.948 -0.6809  0.2813  0.1034
 7706TIP3    H147313   1.489   5.863  13.039  1.5341  3.1979  0.6455
 7706TIP3    H247314   1.384   5.858  12.930 -0.3413 -2.5679  2.3634
 7707TIP3   OH247315   1.895   4.568  11.468 -0.0777 -0.5517 -0.2137
 7707TIP3    H147316   1.911   4.493  11.525 -2.1431  0.4396  1.8157
 7707TIP3    H247317   1.804   4.593  11.484  0.3888  2.1524 -1.0960
 7708TIP3   OH247318   2.684   3.482  12.816 -0.2036 -0.9075 -0.0220
 7708TIP3    H147319   2.778   3.499  12.807  0.1542 -1.6622  1.8697
 7708TIP3    H247320   2.677   3.386  12.811 -1.0800 -0.8041 -1.5322
 7709TIP3   OH247321   5.150   4.832  12.597  0.4935  0.3880  0.1231
 7709TIP3    H147322   5.206   4.858  12.524 -1.8790  2.7527 -0.9810
 7709TIP3    H247323   5.112   4.913  12.629 -0.4691 -0.8618  2.4353
 7710TIP3   OH247324   1.677   4.582  10.715 -0.7968 -0.8001 -0.3893
 7710TIP3    H147325   1.631   4.552  10.637  0.9710 -3.0057 -0.7106
 7710TIP3    H247326   1.761   4.535  10.713 -1.0540 -1.7512  3.3279
 7711TIP3   OH247327   2.426   1.135  12.266 -0.1314 -0.4437  0.1323
 7711TIP3    H147328   2.333   1.147  12.249 -0.3570 -0.5769  1.1945
 7711TIP3    H247329   2.450   1.058  12.214 -0.9245 -1.2137  0.8756
 7712TIP3   OH247330   3.018   5.480  11.259  0.2937  0.1083  0.3085
 7712TIP3    H147331   3.015   5.564  11.212 -0.0562  0.3338  0.7254
 7712TIP3    H247332   2.941   5.482  11.315 -0.5321 -1.1051 -0.7150
 7713TIP3   OH247333   6.639   4.026  13.035  0.2789 -0.1539  0.0824
 7713TIP3    H147334   6.593   4.036  13.119  0.9331 -1.9139  0.6856
 7713TIP3    H247335   6.571   4.042  12.969 -0.4871  0.2548  0.9418
 7714TIP3   OH247336   3.760   2.319  12.452  0.0848 -0.5844 -0.3002
 7714TIP3    H147337   3.795   2.264  12.382  0.8082  0.8261 -1.0986
 7714TIP3    H247338   3.837   2.364  12.488 -0.4436 -0.3243  0.5440
 7715TIP3   OH247339   6.847   2.477  11.481 -0.4101 -0.1717 -0.9800
 7715TIP3    H147340   6.866   2.389  11.449 -0.4245 -0.8785  0.8212
 7715TIP3    H247341   6.879   2.536  11.412  3.1680 -1.4388 -0.5889
 7716TIP3   OH247342   0.445   4.574  12.835  0.0664  0.1954 -0.0541
 7716TIP3    H147343   0.431   4.641  12.902 -0.1025 -0.1632  0.2787
 7716TIP3    H247344   0.399   4.606  12.758  1.0845  1.0851 -0.3144
 7717TIP3   OH247345   2.219   4.412  12.335 -0.1739  0.5607  0.0364
 7717TIP3    H147346   2.246   4.324  12.364 -0.6143  0.2080 -0.5957
 7717TIP3    H247347   2.130   4.421  12.370 -1.0853 -0.2419 -1.8767
 7718TIP3   OH247348   3.006   7.056  12.789  0.7551  0.7090  0.1870
 7718TIP3    H147349   3.008   6.987  12.722  1.0027  0.9724 -0.0767
 7718TIP3    H247350   2.942   7.119  12.757  2.0357  1.6560 -0.6235
 7719TIP3   OH247351   4.653   7.271  11.210  0.3372 -0.2876 -0.3245
 7719TIP3    H147352   4.624   7.244  11.123  0.5887 -0.1324 -0.4566
 7719TIP3    H247353   4.625   7.199  11.268  0.8667 -0.7583 -0.6506
 7720TIP3   OH247354   4.469   1.530  11.221  0.0202 -1.3130 -0.4270
 7720TIP3    H147355   4.449   1.591  11.150  0.7738 -1.7225 -1.0059
 7720TIP3    H247356   4.383   1.500  11.252 -0.3334 -0.5906 -0.6767
 7721TIP3   OH247357   4.037   5.967  11.783 -0.4950 -0.4686  0.1288
 7721TIP3    H147358   4.050   6.034  11.716 -0.1411 -0.0007  0.6484
 7721TIP3    H247359   4.122   5.961  11.827 -0.6451 -0.9587  0.3660
 7722TIP3   OH247360   0.512   7.632  11.605  0.2682  0.3141 -0.4304
 7722TIP3    H147361   0.430   7.651  11.649  1.2232  0.7499  1.2538
 7722TIP3    H247362   0.512   7.690  11.528  0.4212  2.8321  1.3319
 7723TIP3   OH247363   2.960   4.642  11.912  0.2240  0.4332  0.5921
 7723TIP3    H147364   2.872   4.657  11.946  0.6933 -0.4756  2.3163
 7723TIP3    H247365   2.992   4.567  11.962  1.3346 -0.3670 -1.2495
 7724TIP3   OH247366   5.429   0.218  13.375 -0.7977  0.0516 -0.8394
 7724TIP3    H147367   5.465   0.129  13.378  2.8480  1.3635 -0.1555
 7724TIP3    H247368   5.384   0.228  13.459 -1.5676 -1.2148 -1.0696
 7725TIP3   OH247369   4.264   2.917  12.420 -0.0800 -0.7200 -0.1388
 7725TIP3    H147370   4.239   2.984  12.356  2.0129 -0.3058 -0.5895
 7725TIP3    H247371   4.330   2.864  12.375  0.9031 -0.8851  1.4140
 7726TIP3   OH247372   7.223   3.192  12.806 -0.6050 -0.1628 -0.1300
 7726TIP3    H147373   7.256   3.219  12.891  0.1704  0.9477 -0.7540
 7726TIP3    H247374   7.149   3.251  12.789 -0.4230 -0.0209 -0.4492
 7727TIP3   OH247375   2.212   5.882  11.497  0.2011  0.0390  0.2801
 7727TIP3    H147376   2.187   5.933  11.575 -0.7972  0.4843 -0.3113
 7727TIP3    H247377   2.308   5.888  11.495  0.1921  0.7243  1.0048
 7728TIP3   OH247378   5.664   0.524  10.967 -0.0353  0.0861 -0.2614
 7728TIP3    H147379   5.750   0.525  11.008  0.2861  1.8598 -0.8693
 7728TIP3    H247380   5.682   0.536  10.873 -0.7496 -3.6092 -1.0171
 7729TIP3   OH247381   0.242   0.894  11.967 -0.2484 -0.7124  0.1404
 7729TIP3    H147382   0.257   0.826  12.032  0.3339 -1.7836 -1.0684
 7729TIP3    H247383   0.329   0.919  11.937 -0.1316  2.9807  2.8249
 7730TIP3   OH247384   5.462   4.353  11.485 -0.3043  0.5474 -0.6369
 7730TIP3    H147385   5.519   4.413  11.437 -0.4346  0.1694 -1.2873
 7730TIP3    H247386   5.378   4.359  11.439 -1.3571  2.4189  1.3590
 7731TIP3   OH247387   4.252   5.190  12.759 -0.3535 -0.3105  0.3497
 7731TIP3    H147388   4.265   5.282  12.784 -1.3558  0.2055 -0.9284
 7731TIP3    H247389   4.230   5.146  12.841 -0.6165  0.7467  0.8675
 7732TIP3   OH247390   2.283   6.914  12.610 -0.3700 -0.1452 -0.0573
 7732TIP3    H147391   2.372   6.891  12.585 -0.6178 -0.6614 -0.4968
 7732TIP3    H247392   2.293   6.976  12.682  0.3199 -2.1065  1.6153
 7733TIP3   OH247393   5.504   7.416  12.180  0.3002  0.5759 -0.2862
 7733TIP3    H147394   5.574   7.355  12.202 -1.0896 -0.8766  0.2709
 7733TIP3    H247395   5.479   7.456  12.263 -0.7929 -0.3403 -0.1507
 7734TIP3   OH247396   0.628   4.705  12.320 -0.2144 -0.7108 -0.5915
 7734TIP3    H147397   0.628   4.644  12.393  0.8662 -1.0637 -0.8730
 7734TIP3    H247398   0.660   4.788  12.357  1.4586 -1.1954 -0.8859
 7735TIP3   OH247399   0.118   7.486  12.189  0.1450 -0.2877  0.4313
 7735TIP3    H147400   0.090   7.525  12.107 -2.1064 -0.5069  1.0492
 7735TIP3    H247401   0.202   7.445  12.168 -0.4344 -0.4537 -1.7999
 7736TIP3   OH247402   5.606   6.783  11.230 -0.0826 -0.0515 -0.0710
 7736TIP3    H147403   5.595   6.755  11.321  1.2109  1.1815  0.5081
 7736TIP3    H247404   5.577   6.708  11.178 -1.9293 -0.3775  1.3144
 7737TIP3   OH247405   1.786   2.980  12.738  0.4321  0.4563 -0.7433
 7737TIP3    H147406   1.742   3.044  12.682  1.4374 -0.0153 -2.1300
 7737TIP3    H247407   1.862   3.027  12.772  0.1952  0.5299 -0.3030
 7738TIP3   OH247408   6.328   6.390  12.634  0.2101 -0.4936  1.0062
 7738TIP3    H147409   6.292   6.384  12.723 -1.0992 -0.5110  0.5015
 7738TIP3    H247410   6.251   6.393  12.578  1.0130  0.3357 -0.0905
 7739TIP3   OH247411   5.856   2.825  11.668  0.7963  0.3663 -0.0609
 7739TIP3    H147412   5.763   2.813  11.688  0.4108  1.6432 -0.9815
 7739TIP3    H247413   5.865   2.919  11.649  2.6124  0.6222  1.6918
 7740TIP3   OH247414   4.958   2.399  11.646  0.2796 -0.5616 -0.8126
 7740TIP3    H147415   5.039   2.442  11.673 -0.9256  1.3214  0.0351
 7740TIP3    H247416   4.964   2.392  11.551  0.7751  1.0424 -0.9231
 7741TIP3   OH247417   6.376   5.400  11.110 -0.0611  0.0977 -0.7021
 7741TIP3    H147418   6.392   5.385  11.203 -0.6787 -2.7023 -0.9513
 7741TIP3    H247419   6.281   5.402  11.101 -0.0064  0.7640 -1.2242
 7742TIP3   OH247420   5.813   3.703  12.603 -0.4228 -0.6234  0.0453
 7742TIP3    H147421   5.886   3.650  12.571 -1.4340 -1.5642 -0.7984
 7742TIP3    H247422   5.795   3.763  12.530 -0.7752 -0.7022  0.0675
 7743TIP3   OH247423   1.481   0.395  13.187  0.0284  0.3270  0.2807
 7743TIP3    H147424   1.461   0.327  13.251  0.0825 -0.0411 -0.0857
 7743TIP3    H247425   1.547   0.355  13.129  0.7154  1.0029  0.5847
 7744TIP3   OH247426   7.154   2.071  11.573 -0.0744  0.2860 -0.4142
 7744TIP3    H147427   7.118   2.094  11.659  0.9299 -1.7649  0.6230
 7744TIP3    H247428   7.083   2.023  11.530 -0.0332 -0.1184 -0.0448
 7745TIP3   OH247429   5.098   7.039  11.688  0.2532  0.4146 -0.4316
 7745TIP3    H147430   5.018   7.090  11.676  0.3537  0.8768  0.8060
 7745TIP3    H247431   5.164   7.085  11.636 -0.1383  0.3588 -0.9886
 7746TIP3   OH247432   2.026   2.467  13.568  1.1284 -0.8451 -0.3084
 7746TIP3    H147433   2.097   2.428  13.516  0.2155 -1.5540 -1.0458
 7746TIP3    H247434   2.029   2.560  13.545  0.8904 -1.1100 -1.4596
 7747TIP3   OH247435   0.800   2.714  12.914 -0.2927  0.2133 -0.2344
 7747TIP3    H147436   0.773   2.798  12.951 -0.7203  0.3930 -0.9334
 7747TIP3    H247437   0.783   2.722  12.820 -0.3651 -0.6609 -0.3080
 7748TIP3   OH247438   0.855   7.003  13.613  0.0151  0.0141 -0.2934
 7748TIP3    H147439   0.810   7.024  13.532  1.5571  0.8021 -0.9911
 7748TIP3    H247440   0.884   7.088  13.647 -2.7243  0.0241  2.4511
 7749TIP3   OH247441   4.379   3.268  13.182 -0.5007 -0.2402  0.6140
 7749TIP3    H147442   4.343   3.277  13.270 -0.8344 -0.4014  0.4947
 7749TIP3    H247443   4.309   3.226  13.132 -1.1222  1.7315 -0.2513
 7750TIP3   OH247444   4.805   6.786  13.160 -0.2170  0.2748  0.2565
 7750TIP3    H147445   4.892   6.800  13.195 -0.7792 -1.0950  2.3187
 7750TIP3    H247446   4.798   6.692  13.146 -0.5595  0.5818 -2.2681
 7751TIP3   OH247447   4.222   0.505  11.062 -0.0812 -0.5962  0.2852
 7751TIP3    H147448   4.163   0.578  11.081  0.2688 -0.1332 -0.3662
 7751TIP3    H247449   4.284   0.505  11.134  1.0559  0.9485 -0.6274
 7752TIP3   OH247450   7.438   1.600  12.292  0.1599  0.1299  0.2537
 7752TIP3    H147451   7.504   1.669  12.285  0.3341 -0.1309 -0.8985
 7752TIP3    H247452   7.374   1.621  12.224  0.7448 -1.3788 -0.8171
 7753TIP3   OH247453   4.819   1.236  11.579  0.5683  0.4218 -0.8211
 7753TIP3    H147454   4.848   1.278  11.661  1.6100 -1.0116 -0.4188
 7753TIP3    H247455   4.864   1.285  11.510  2.1459 -0.2845 -0.3331
 7754TIP3   OH247456   5.900   2.591  12.120  0.4882 -0.4098  0.0201
 7754TIP3    H147457   5.933   2.519  12.174 -0.7096 -1.6211 -0.7810
 7754TIP3    H247458   5.945   2.581  12.036  2.2092  1.3547  0.6847
 7755TIP3   OH247459   0.944   0.641  11.102 -0.6333 -0.5221  0.2078
 7755TIP3    H147460   0.972   0.725  11.065 -1.4371  0.3407  1.4591
 7755TIP3    H247461   1.021   0.584  11.093  0.1829  0.5708  0.0021
 7756TIP3   OH247462   4.852   0.035  10.956  0.7915  0.2059 -0.5742
 7756TIP3    H147463   4.829  -0.039  11.013  0.8139  0.5104 -0.1678
 7756TIP3    H247464   4.926   0.002  10.904  1.1050  0.0929 -0.0688
 7757TIP3   OH247465   1.908   2.372  11.420 -0.2347 -0.3440  0.4063
 7757TIP3    H147466   1.813   2.386  11.419 -0.2076 -0.1151 -1.4530
 7757TIP3    H247467   1.919   2.279  11.402 -0.1173 -0.7935  2.5324
 7758TIP3   OH247468   0.221   3.861  11.769  0.6060 -0.1055 -0.2079
 7758TIP3    H147469   0.141   3.889  11.814 -1.4625 -1.7600 -2.5338
 7758TIP3    H247470   0.258   3.793  11.826  0.5055  0.8252  1.0092
 7759TIP3   OH247471   2.287   1.997  11.240  0.1713 -0.2560  0.1765
 7759TIP3    H147472   2.259   2.048  11.164 -0.6193  0.0531  0.6576
 7759TIP3    H247473   2.311   1.912  11.204  1.2615  0.3601 -0.6030
 7760TIP3   OH247474   5.227   0.292  12.464 -0.7689  0.2185  0.2013
 7760TIP3    H147475   5.211   0.256  12.551 -0.1785  1.4319  0.8326
 7760TIP3    H247476   5.140   0.314  12.431 -0.9193  0.8694  0.9942
 7761TIP3   OH247477   6.932   4.169  11.994  0.2026 -0.0942 -0.3516
 7761TIP3    H147478   7.021   4.139  11.973  0.6674  1.0312 -0.1052
 7761TIP3    H247479   6.946   4.254  12.036 -1.0546  0.6081 -1.2922
 7762TIP3   OH247480   2.524   7.421  11.533  0.3365  0.0716  0.1488
 7762TIP3    H147481   2.512   7.500  11.480  0.4399  0.4348  0.6668
 7762TIP3    H247482   2.446   7.368  11.515  0.2129  0.3392 -0.1127
 7763TIP3   OH247483   3.064   6.597  12.107  0.4864  0.8522  0.1476
 7763TIP3    H147484   2.991   6.546  12.143  0.8527  1.4561  1.8099
 7763TIP3    H247485   3.109   6.536  12.048  0.8124 -0.7308  1.9382
 7764TIP3   OH247486   0.755   0.265  11.303  0.0735 -0.1347  0.4708
 7764TIP3    H147487   0.828   0.206  11.288 -0.1441 -0.2298 -0.2837
 7764TIP3    H247488   0.788   0.330  11.364  0.8906  0.0134 -0.1153
 7765TIP3   OH247489   3.649   1.584  11.139 -0.9713 -0.4593  0.6653
 7765TIP3    H147490   3.605   1.594  11.224 -1.2740 -1.8177  0.7006
 7765TIP3    H247491   3.736   1.622  11.152 -1.3265  0.1628  1.3039
 7766TIP3   OH247492   0.873   6.107  11.534  0.2432 -0.3812 -0.0648
 7766TIP3    H147493   0.943   6.162  11.498  1.2316 -1.4771  0.1306
 7766TIP3    H247494   0.862   6.038  11.469 -0.7874 -0.1372 -0.1668
 7767TIP3   OH247495   1.091   3.502  13.317 -0.3018  0.1779 -0.1110
 7767TIP3    H147496   1.111   3.418  13.358 -0.8639  0.7425  1.4030
 7767TIP3    H247497   1.118   3.567  13.381  0.5191  1.1949 -1.4302
 7768TIP3   OH247498   3.189   4.147  12.681 -0.3393  0.0134  0.8138
 7768TIP3    H147499   3.103   4.173  12.647  0.2102 -1.2286 -1.7862
 7768TIP3    H247500   3.197   4.054  12.658  2.0864  0.3308  0.1023
 7769TIP3   OH247501   6.470   6.680  12.062 -0.3280 -0.0062  0.3182
 7769TIP3    H147502   6.496   6.756  12.010 -1.7111 -0.9037 -1.8381
 7769TIP3    H247503   6.525   6.609  12.029 -1.6835 -0.7356 -0.4625
 7770TIP3   OH247504   7.254   3.274  13.564  0.3134  0.1214  0.0149
 7770TIP3    H147505   7.270   3.315  13.478  0.5522 -0.3763 -0.1821
 7770TIP3    H247506   7.325   3.306  13.619 -0.7389  1.7277  0.4913
 7771TIP3   OH247507   3.677   0.604  13.556 -0.0887  0.0939 -0.1027
 7771TIP3    H147508   3.750   0.564  13.510  1.2852 -0.5727  2.4756
 7771TIP3    H247509   3.690   0.698  13.545  0.8025 -0.0316 -0.1794
 7772TIP3   OH247510   0.200   0.693  12.210  0.5628 -0.7791 -1.0708
 7772TIP3    H147511   0.294   0.696  12.197  0.5892  1.4336 -0.6972
 7772TIP3    H247512   0.174   0.606  12.178  2.9890 -2.4103  1.0332
 7773TIP3   OH247513   6.091   3.017  12.686  0.3322 -0.3878 -0.2028
 7773TIP3    H147514   6.052   3.023  12.774  2.2229 -1.2679  0.7519
 7773TIP3    H247515   6.062   2.932  12.653 -0.6772  0.0970 -0.6197
 7774TIP3   OH247516   1.882   4.420  10.697  0.0700  0.3506  0.2243
 7774TIP3    H147517   1.919   4.340  10.660 -0.8607 -0.7137  1.4839
 7774TIP3    H247518   1.954   4.457  10.749 -0.2468 -1.2037  1.8989
 7775TIP3   OH247519   4.107   2.329  12.465 -0.1147 -0.3754  0.0925
 7775TIP3    H147520   4.152   2.377  12.396 -0.4818  0.4222  0.3972
 7775TIP3    H247521   4.159   2.250  12.476  1.6924  0.8539  0.9508
 7776TIP3   OH247522   5.234   3.800  12.529 -0.1026 -0.1336 -0.3408
 7776TIP3    H147523   5.141   3.778  12.528 -0.5340  1.4921  0.2217
 7776TIP3    H247524   5.279   3.717  12.542 -1.6220 -0.6160  2.6181
 7777TIP3   OH247525   3.267   6.767  12.905  0.0721  0.5044 -0.3533
 7777TIP3    H147526   3.300   6.813  12.983  0.3496  2.3287 -1.4726
 7777TIP3    H247527   3.218   6.693  12.940  0.8356  0.8150  1.5327
 7778TIP3   OH247528   2.091   0.449  12.089  0.1406  0.2743  0.1531
 7778TIP3    H147529   2.163   0.472  12.148 -0.1851 -0.7815  0.9857
 7778TIP3    H247530   2.016   0.437  12.147  0.0703 -1.8890 -0.3327
 7779TIP3   OH247531   0.173   1.188  12.547 -0.4706  0.4916 -0.1172
 7779TIP3    H147532   0.159   1.147  12.462 -0.3524 -0.1922  0.1841
 7779TIP3    H247533   0.239   1.133  12.589  0.4371  1.5537 -0.0819
 7780TIP3   OH247534   0.558   0.964  10.906 -0.2115 -0.1487 -0.5744
 7780TIP3    H147535   0.514   0.960  10.991  0.1007 -0.5450 -0.4334
 7780TIP3    H247536   0.523   0.889  10.858  3.0551 -2.8234  0.8579
 7781TIP3   OH247537   6.176   1.407  13.124  0.1191  0.5457  0.0870
 7781TIP3    H147538   6.114   1.334  13.121  1.1022 -0.5115  2.6368
 7781TIP3    H247539   6.125   1.481  13.156 -0.3873  0.4067 -0.3834
 7782TIP3   OH247540   0.032   0.723  12.730  0.1509 -0.3202  0.5872
 7782TIP3    H147541  -0.030   0.795  12.720  0.9899  0.4542  0.8738
 7782TIP3    H247542   0.000   0.674  12.805 -2.2157 -2.1192 -1.4264
 7783TIP3   OH247543   7.486   2.625  11.047  0.0071  0.1514  0.2645
 7783TIP3    H147544   7.408   2.576  11.021 -1.7304  2.2307  1.2016
 7783TIP3    H247545   7.544   2.619  10.971  0.0940 -3.5178  0.4637
 7784TIP3   OH247546   4.317   2.404  11.365 -0.6366  0.0695 -0.5049
 7784TIP3    H147547   4.295   2.494  11.386 -0.3086  0.3990 -1.5011
 7784TIP3    H247548   4.351   2.408  11.275  5.0585 -0.0710  1.2623
 7785TIP3   OH247549   6.474   7.303  12.123 -0.3192 -0.0828  0.6281
 7785TIP3    H147550   6.429   7.227  12.087  0.7973 -0.8900  0.8897
 7785TIP3    H247551   6.468   7.369  12.054 -0.3700 -0.7667 -0.0407
 7786TIP3   OH247552   0.933   5.236  12.930 -0.3491 -0.2640  0.1252
 7786TIP3    H147553   0.910   5.302  12.865  0.0493 -1.0077 -0.7873
 7786TIP3    H247554   0.983   5.284  12.996  0.3674  0.2605 -0.7812
 7787TIP3   OH247555   7.475   5.931  11.837  0.0672  0.9268  0.0308
 7787TIP3    H147556   7.385   5.935  11.869 -0.2780 -1.7853 -0.4263
 7787TIP3    H247557   7.529   5.946  11.914 -0.7584  0.7679  0.6495
 7788TIP3   OH247558   3.095   2.928  13.003  0.4331  0.3441 -0.0154
 7788TIP3    H147559   3.055   3.013  12.983 -1.6909 -0.3834  0.8499
 7788TIP3    H247560   3.091   2.880  12.920 -1.1486  0.0685  0.1883
 7789TIP3   OH247561   0.549   3.344  11.729 -0.6754  0.0067 -0.0693
 7789TIP3    H147562   0.535   3.429  11.688  0.4236  1.0115  1.5073
 7789TIP3    H247563   0.527   3.358  11.821 -0.2647 -1.3652  0.2677
 7790TIP3   OH247564   3.497   5.671  12.448  0.0248 -0.1408  0.1648
 7790TIP3    H147565   3.494   5.576  12.440 -1.6961 -0.0536 -0.5934
 7790TIP3    H247566   3.504   5.703  12.358 -1.8124  0.4741  0.1945
 7791TIP3   OH247567   0.996   1.198  11.271 -0.5018 -0.0305  0.0355
 7791TIP3    H147568   0.954   1.260  11.330 -0.8274  0.2679 -0.5016
 7791TIP3    H247569   1.083   1.235  11.255 -0.0430 -0.6146  1.0947
 7792TIP3   OH247570   3.191   0.636  13.698  0.0773  0.5366  0.1784
 7792TIP3    H147571   3.277   0.624  13.658  0.4477  1.1145  0.7962
 7792TIP3    H247572   3.179   0.731  13.702 -0.8861  0.4692 -0.5136
 7793TIP3   OH247573   6.360   0.468  11.896 -0.5544  0.4386  0.1198
 7793TIP3    H147574   6.336   0.428  11.979 -0.8790 -0.4291 -0.3793
 7793TIP3    H247575   6.453   0.448  11.885 -0.7391 -0.2808 -0.1743
 7794TIP3   OH247576   5.383   0.888  11.940  0.0743  0.0035  0.4294
 7794TIP3    H147577   5.464   0.926  11.905  0.5550 -0.6708  0.7957
 7794TIP3    H247578   5.411   0.810  11.986 -0.8463 -0.4868  0.1778
 7795TIP3   OH247579   3.202   1.335  12.687 -0.3646  0.4052  0.1519
 7795TIP3    H147580   3.174   1.358  12.776 -4.6330 -2.8963 -0.0007
 7795TIP3    H247581   3.237   1.247  12.694 -0.4393  0.2168 -1.3669
 7796TIP3   OH247582   2.549   6.348  12.207 -0.1077 -0.5217 -0.2431
 7796TIP3    H147583   2.564   6.395  12.289 -0.0795 -0.2077 -0.4267
 7796TIP3    H247584   2.457   6.364  12.186 -0.5501 -1.8983  0.5342
 7797TIP3   OH247585   5.825   5.888  12.132  0.0660 -0.0223 -0.4890
 7797TIP3    H147586   5.754   5.883  12.196 -3.1481 -0.8966 -3.7547
 7797TIP3    H247587   5.888   5.822  12.161 -1.1782 -0.3486  1.7363
 7798TIP3   OH247588   0.359   7.091  12.037 -0.6689 -0.7035 -0.4920
 7798TIP3    H147589   0.448   7.121  12.058 -0.6830  0.4434 -1.9021
 7798TIP3    H247590   0.372   7.004  11.997 -0.2686 -0.9205  0.1029
 7799TIP3   OH247591   3.379   0.014  13.620  0.7655 -0.4906  0.7570
 7799TIP3    H147592   3.404   0.062  13.699  1.5025 -0.2306  0.3787
 7799TIP3    H247593   3.450   0.031  13.558 -0.2526  0.0765 -0.2955
 7800TIP3   OH247594   6.488   4.415  10.998  0.3818  0.3412 -0.0729
 7800TIP3    H147595   6.417   4.470  11.031 -0.3351 -0.1443 -0.7549
 7800TIP3    H247596   6.544   4.474  10.948  0.7878  0.8402  0.9592
 7801TIP3   OH247597   5.496   5.646  11.322  0.2083  0.2242  1.0689
 7801TIP3    H147598   5.506   5.737  11.296  0.9198 -0.0048  0.5035
 7801TIP3    H247599   5.516   5.596  11.243 -0.6002 -0.4161  1.2557
 7802TIP3   OH247600   6.225   6.578  13.113 -0.0447 -0.1333  0.4568
 7802TIP3    H147601   6.298   6.631  13.080  0.1368  0.4002  1.6537
 7802TIP3    H247602   6.151   6.600  13.057  0.7384 -0.7862 -0.8636
 7803TIP3   OH247603   6.269   4.665  12.398  0.2355  0.5968  0.1114
 7803TIP3    H147604   6.340   4.707  12.448  0.5312 -1.2657  1.3548
 7803TIP3    H247605   6.220   4.615  12.463 -0.9455  0.1341 -1.0909
 7804TIP3   OH247606   2.463   4.131  11.495  0.1433  0.0465 -0.2507
 7804TIP3    H147607   2.452   4.107  11.587  0.5525  0.8132  0.0101
 7804TIP3    H247608   2.554   4.161  11.489 -0.0563  0.5569 -0.7750
 7805TIP3   OH247609   3.476   7.057  13.083  0.4167  0.1139 -0.2984
 7805TIP3    H147610   3.475   7.111  13.163  0.6657  0.6439 -0.6470
 7805TIP3    H247611   3.458   7.119  13.012  1.6361 -0.0872 -0.8052
 7806TIP3   OH247612   6.082   5.376  11.124 -0.0574  0.4976 -0.0610
 7806TIP3    H147613   6.058   5.311  11.189  0.0988 -0.0042 -0.4989
 7806TIP3    H247614   5.999   5.407  11.088 -0.1450 -1.9113 -2.2443
 7807TIP3   OH247615   4.328   3.374  11.140  0.0789  0.0943  0.2024
 7807TIP3    H147616   4.243   3.401  11.104  0.6510  1.0060 -0.5130
 7807TIP3    H247617   4.315   3.374  11.235 -0.9591 -0.6078  0.0810
 7808TIP3   OH247618   0.163   5.795  10.793  0.1909  0.2388 -0.4894
 7808TIP3    H147619   0.170   5.708  10.753 -0.2818 -0.0648  0.0779
 7808TIP3    H247620   0.127   5.779  10.880 -2.4293  1.1906 -1.2777
 7809TIP3   OH247621   5.194   1.662  13.248  0.2988  0.5536 -0.7153
 7809TIP3    H147622   5.192   1.751  13.211 -0.6676  0.4711 -0.9098
 7809TIP3    H247623   5.231   1.673  13.335 -2.1184  1.5902  0.2723
 7810TIP3   OH247624   7.139   4.314  12.447 -0.2240  0.1693  0.4313
 7810TIP3    H147625   7.166   4.351  12.531 -1.7369 -1.7087  1.8267
 7810TIP3    H247626   7.220   4.307  12.397  0.5145  2.6672  1.1127
 7811TIP3   OH247627   2.468   1.390  13.453  0.3846  0.0774 -0.1163
 7811TIP3    H147628   2.413   1.337  13.510 -2.8019  0.3476 -2.6544
 7811TIP3    H247629   2.428   1.477  13.456  0.6638  0.3176 -1.9553
 7812TIP3   OH247630   0.660   1.457  12.043  0.2862 -0.3814  0.7924
 7812TIP3    H147631   0.730   1.404  12.079  1.4904 -1.4325 -2.6506
 7812TIP3    H247632   0.643   1.419  11.957 -0.7102  3.1439 -0.7629
 7813TIP3   OH247633   2.977   1.157  11.353 -0.7152  0.1511 -0.3449
 7813TIP3    H147634   2.919   1.148  11.429 -1.7116  1.0751 -0.9729
 7813TIP3    H247635   3.064   1.167  11.391 -1.2231  0.7858  0.7067
 7814TIP3   OH247636   5.601   4.375  12.293  0.1025  0.2142  0.4474
 7814TIP3    H147637   5.642   4.445  12.345  0.2949  0.4082  0.0489
 7814TIP3    H247638   5.618   4.401  12.202  0.6464 -0.6305  0.2947
 7815TIP3   OH247639   7.087   2.877  11.398 -0.1004 -0.3508  0.2361
 7815TIP3    H147640   7.179   2.887  11.373  0.2094 -1.1248  0.9929
 7815TIP3    H247641   7.068   2.955  11.450  0.2078 -0.3072  0.2882
 7816TIP3   OH247642   4.462   2.837  11.147 -0.2435  0.2818 -0.1461
 7816TIP3    H147643   4.445   2.803  11.059 -2.2234 -0.4720  0.4726
 7816TIP3    H247644   4.396   2.905  11.159 -1.8696 -1.5215  1.7366
 7817TIP3   OH247645   1.347   4.072  10.682 -0.3287  0.4529  0.4104
 7817TIP3    H147646   1.404   3.998  10.704 -0.5708  0.3435  0.6857
 7817TIP3    H247647   1.398   4.126  10.622 -0.7806 -0.8958 -1.2934
 7818TIP3   OH247648   5.940   5.986  11.271 -0.2458  0.1719 -0.2957
 7818TIP3    H147649   5.868   6.049  11.280 -0.9006 -0.7992  2.1575
 7818TIP3    H247650   6.016   6.032  11.308 -0.1509  0.3554 -0.7126
 7819TIP3   OH247651   5.867   5.460  11.815  0.6484 -0.3268  0.5165
 7819TIP3    H147652   5.894   5.450  11.906  0.1561 -3.1229  0.4679
 7819TIP3    H247653   5.945   5.492  11.770  0.6314  2.0161  2.0118
 7820TIP3   OH247654   4.408   1.670  12.077  0.1781 -0.0083  0.0129
 7820TIP3    H147655   4.418   1.749  12.023  2.2279 -0.9111 -1.0401
 7820TIP3    H247656   4.497   1.646  12.101 -0.4457 -1.6778  0.8014
 7821TIP3   OH247657   4.284   3.888  12.503 -0.4012  0.0735 -0.4470
 7821TIP3    H147658   4.285   3.977  12.469 -1.0891  1.1161  2.0613
 7821TIP3    H247659   4.364   3.848  12.470  1.4577  2.5839  0.7530
 7822TIP3   OH247660   7.498   6.478  11.679  0.4211 -0.3036 -0.0511
 7822TIP3    H147661   7.573   6.423  11.702 -0.4567 -1.8843 -0.8038
 7822TIP3    H247662   7.429   6.416  11.657 -0.3176  1.0983 -1.9775
 7823TIP3   OH247663   1.792   6.789  12.726 -0.2163 -0.3496 -0.2805
 7823TIP3    H147664   1.848   6.826  12.793 -2.1813  2.9518 -0.2324
 7823TIP3    H247665   1.704   6.790  12.765 -1.0224 -0.8313 -1.9693
 7824TIP3   OH247666   7.121   2.907  11.930  0.2802 -0.1362  0.0267
 7824TIP3    H147667   7.132   2.845  11.859 -1.0045 -0.3448 -0.0245
 7824TIP3    H247668   7.146   2.991  11.893  1.9968 -0.5926  0.0829
 7825TIP3   OH247669   1.431   3.227  13.128  0.0988  0.2299 -0.8520
 7825TIP3    H147670   1.352   3.281  13.129 -0.3238 -0.3875  0.5610
 7825TIP3    H247671   1.479   3.254  13.206  1.3113  0.5950 -1.6949
 7826TIP3   OH247672   5.016   1.028  11.412  0.2635 -0.7510  0.2734
 7826TIP3    H147673   4.930   1.032  11.453  0.6316 -0.4076  1.0407
 7826TIP3    H247674   4.999   1.000  11.322 -0.5825 -1.3816  0.6162
 7827TIP3   OH247675   6.833   1.178  11.317 -0.7926  0.7010  0.4901
 7827TIP3    H147676   6.819   1.253  11.260  1.1709  2.0905  1.7228
 7827TIP3    H247677   6.775   1.194  11.392 -0.2180  1.1389  0.8534
 7828TIP3   OH247678   1.923   1.863  12.135  0.4637 -0.0061  0.2878
 7828TIP3    H147679   1.926   1.824  12.223  1.2359  0.7106  0.5886
 7828TIP3    H247680   1.887   1.950  12.149 -1.2665 -0.5745 -0.3870
 7829TIP3   OH247681   6.969   3.819  11.342 -0.3012  0.3408 -0.1574
 7829TIP3    H147682   6.919   3.873  11.404  0.1068  1.2693 -0.6078
 7829TIP3    H247683   7.054   3.807  11.386  0.0043  1.0380 -0.5431
 7830TIP3   OH247684   5.919   0.591  12.900  0.1094 -0.1726  0.0321
 7830TIP3    H147685   6.005   0.553  12.920  0.2197 -0.2983 -0.6517
 7830TIP3    H247686   5.936   0.652  12.828 -0.6317 -1.4575 -1.2963
 7831TIP3   OH247687   7.189   6.014  11.018  0.0931 -0.0683 -0.1242
 7831TIP3    H147688   7.167   5.966  11.098 -2.7537  1.4694  0.1280
 7831TIP3    H247689   7.208   6.103  11.048  1.3290 -0.0249 -0.9718
 7832TIP3   OH247690   6.334   4.343  12.568 -0.1045 -0.1167 -0.0944
 7832TIP3    H147691   6.382   4.326  12.649  0.9774 -1.6041 -1.0013
 7832TIP3    H247692   6.273   4.414  12.591  1.7423  1.0963  1.3973
 7833TIP3   OH247693   5.733   3.110  12.549  0.2328 -0.1326  0.0699
 7833TIP3    H147694   5.683   3.089  12.470 -0.0203 -0.2978  0.2719
 7833TIP3    H247695   5.671   3.097  12.621  0.0373  1.3557  0.2144
 7834TIP3   OH247696   6.778   6.257  11.854 -0.2799 -0.8414  0.1546
 7834TIP3    H147697   6.752   6.167  11.875  1.3045 -1.4887 -0.5043
 7834TIP3    H247698   6.848   6.247  11.790 -0.1401  0.8817  0.0026
 7835TIP3   OH247699   1.820   3.665  11.113  0.1987 -0.2044 -0.5998
 7835TIP3    H147700   1.825   3.704  11.200 -0.6249 -0.6085 -0.3630
 7835TIP3    H247701   1.880   3.717  11.060  1.0593 -0.2451  0.3139
 7836TIP3   OH247702   1.387   4.923  12.365  0.1160 -0.0252  0.0071
 7836TIP3    H147703   1.480   4.941  12.349  0.0881 -0.9564 -1.4671
 7836TIP3    H247704   1.387   4.851  12.428  0.3057  1.8136  2.1936
 7837TIP3   OH247705   3.030   5.676  11.069  0.1322 -0.0587  0.4737
 7837TIP3    H147706   2.935   5.686  11.055 -0.0533 -1.6868  0.3919
 7837TIP3    H247707   3.066   5.673  10.980  0.0353 -1.2616  0.4676
 7838TIP3   OH247708   2.400   1.391  13.014  0.1064 -0.2700  0.0974
 7838TIP3    H147709   2.329   1.363  12.956  0.8239  2.2926 -2.1986
 7838TIP3    H247710   2.454   1.312  13.025  0.2767 -0.8006 -3.3263
 7839TIP3   OH247711   3.308   2.854  13.155 -0.7118 -0.6300 -0.0523
 7839TIP3    H147712   3.260   2.771  13.163 -1.5863 -0.3170 -1.6094
 7839TIP3    H247713   3.262   2.902  13.086  1.3182  0.0821 -0.9904
 7840TIP3   OH247714   3.262   3.875  12.093 -0.4065 -0.0045 -0.1445
 7840TIP3    H147715   3.341   3.823  12.084 -0.7312 -0.5885  0.3153
 7840TIP3    H247716   3.200   3.817  12.137 -0.6403  0.9145  0.7633
 7841TIP3   OH247717   7.228   4.874  11.813  0.0570  0.0607 -0.1996
 7841TIP3    H147718   7.172   4.948  11.791 -0.7843 -0.0355  1.4781
 7841TIP3    H247719   7.287   4.907  11.881  1.0348 -0.2808 -0.8437
 7842TIP3   OH247720   5.340   6.683  11.708  0.0111  0.1087  0.1059
 7842TIP3    H147721   5.274   6.636  11.656  0.2775 -1.3777  1.0496
 7842TIP3    H247722   5.383   6.614  11.759  2.2273  1.0566 -0.3960
 7843TIP3   OH247723   7.180   4.688  12.569 -0.4118 -0.1679  0.0096
 7843TIP3    H147724   7.138   4.721  12.649 -3.7542 -0.0923 -1.6055
 7843TIP3    H247725   7.259   4.643  12.600 -1.0266  0.7150  3.2257
 7844TIP3   OH247726   7.353   2.674  12.959  0.1775 -0.3480 -0.3948
 7844TIP3    H147727   7.336   2.700  12.868 -0.8716  0.5401  0.0250
 7844TIP3    H247728   7.411   2.598  12.952 -0.6354 -0.8848 -1.8385
 7845TIP3   OH247729   7.516   2.104  11.862 -0.3649 -0.1818 -0.2895
 7845TIP3    H147730   7.458   2.051  11.808 -0.2956 -0.7132  0.1480
 7845TIP3    H247731   7.542   2.046  11.933  0.9419 -0.0472 -0.6409
 7846TIP3   OH247732   2.505   2.287  11.458 -0.4184 -0.5291 -0.2298
 7846TIP3    H147733   2.526   2.310  11.367  2.4010 -1.6388  0.0147
 7846TIP3    H247734   2.420   2.244  11.453 -0.1215 -0.9884 -2.4493
 7847TIP3   OH247735   1.928   0.354  13.044  0.3626 -0.0299  0.3240
 7847TIP3    H147736   1.936   0.395  12.957 -0.4305 -0.3700  0.0884
 7847TIP3    H247737   1.891   0.423  13.099  1.1906  0.2994  0.4884
 7848TIP3   OH247738   4.377   7.448  11.331  0.0310 -0.0587 -0.3500
 7848TIP3    H147739   4.438   7.375  11.343  0.1473 -0.0732 -0.9684
 7848TIP3    H247740   4.368   7.486  11.418 -0.7508 -1.3782  0.1794
 7849TIP3   OH247741   0.114   1.830  10.864  0.2099 -0.3359  0.0156
 7849TIP3    H147742   0.071   1.753  10.826 -1.4809  0.4222  0.3219
 7849TIP3    H247743   0.131   1.887  10.789 -2.8749  1.0376  0.2263
 7850TIP3   OH247744   7.486   5.573  12.782  0.8036  0.0882  0.1082
 7850TIP3    H147745   7.401   5.613  12.800 -0.1964 -2.1440  0.6190
 7850TIP3    H247746   7.479   5.542  12.692  1.1243 -0.0207  0.1185
 7851TIP3   OH247747   6.562   0.761  13.475  0.7455 -0.0745  0.2429
 7851TIP3    H147748   6.639   0.806  13.441  0.5179  0.4203  0.3751
 7851TIP3    H247749   6.573   0.670  13.447  1.0349  0.1336 -0.3378
 7852TIP3   OH247750   6.979   6.819  10.947 -0.2456 -0.2873  0.5146
 7852TIP3    H147751   6.941   6.855  10.868  0.8434  0.2538  0.2090
 7852TIP3    H247752   6.952   6.878  11.017  0.0812  0.1352  0.2882
 7853TIP3   OH247753   2.742   2.138  11.971  0.0810  0.6456 -0.2171
 7853TIP3    H147754   2.822   2.171  11.929 -0.1421  0.6448 -0.6472
 7853TIP3    H247755   2.675   2.201  11.947 -0.2213  0.2034 -0.5389
 7854TIP3   OH247756   3.304   4.047  12.308  0.3607 -0.7947  0.1012
 7854TIP3    H147757   3.214   4.052  12.339  0.0955 -0.2490 -0.7244
 7854TIP3    H247758   3.298   3.999  12.225  0.7248 -0.1359 -0.3179
 7855TIP3   OH247759   1.581   3.828  11.966 -0.0828 -0.0927 -0.3122
 7855TIP3    H147760   1.606   3.736  11.958  0.0873 -0.0822  0.0705
 7855TIP3    H247761   1.506   3.827  12.025 -1.5548 -0.2067 -2.0926
 7856TIP3   OH247762   1.791   2.362  12.066 -0.7356  0.3629 -0.6356
 7856TIP3    H147763   1.829   2.352  11.979  0.4989  0.2569 -0.1059
 7856TIP3    H247764   1.822   2.287  12.115  1.5186  2.1528  0.8893
 7857TIP3   OH247765   2.609   7.228  13.228  0.1691 -0.0646  0.5258
 7857TIP3    H147766   2.598   7.144  13.183  2.6037  0.4103 -1.1106
 7857TIP3    H247767   2.613   7.205  13.321 -2.5885 -1.3251  0.4327
 7858TIP3   OH247768   0.205   1.019  12.307  0.0806 -0.3780  0.4232
 7858TIP3    H147769   0.169   0.930  12.302  0.6194 -0.5605 -0.7220
 7858TIP3    H247770   0.213   1.046  12.215 -0.5253  1.0530  0.7549
 7859TIP3   OH247771   5.055   0.256  13.330 -0.6427 -0.0465  0.2078
 7859TIP3    H147772   5.035   0.292  13.417 -1.2495  0.4665 -0.1309
 7859TIP3    H247773   4.992   0.298  13.272  0.0592 -0.0259 -0.5632
 7860TIP3   OH247774   3.634   2.800  11.397 -0.4485  0.0903  0.4659
 7860TIP3    H147775   3.683   2.830  11.474 -0.6083  0.2983  0.4881
 7860TIP3    H247776   3.672   2.849  11.324  0.1572 -0.6053  0.3136
 7861TIP3   OH247777   6.964   5.619  12.695 -0.6775  0.1198  0.4880
 7861TIP3    H147778   7.045   5.588  12.735 -0.8071  0.8185  1.3310
 7861TIP3    H247779   6.897   5.557  12.726 -0.6076  0.0580  0.5160
 7862TIP3   OH247780   0.038   3.448  12.419  0.5292  0.0042  0.0041
 7862TIP3    H147781   0.074   3.523  12.467 -0.2868 -0.1895  0.9453
 7862TIP3    H247782   0.032   3.479  12.328  1.4050  0.6290  0.1465
 7863TIP3   OH247783   6.410   1.888  12.300  0.1148 -0.2423 -0.3641
 7863TIP3    H147784   6.341   1.843  12.348 -1.4934  2.2037 -0.1686
 7863TIP3    H247785   6.366   1.964  12.261  2.2745  0.2503 -2.0629
 7864TIP3   OH247786   3.488   0.538  10.984  0.2433  0.7857 -0.0609
 7864TIP3    H147787   3.421   0.470  10.989  1.3015 -0.2895  0.1676
 7864TIP3    H247788   3.510   0.557  11.075  0.4995  0.8597 -0.1356
 7865TIP3   OH247789   5.775   2.470  12.667 -0.1290 -0.0570 -0.2297
 7865TIP3    H147790   5.784   2.375  12.652  2.5238 -0.1548  1.2905
 7865TIP3    H247791   5.842   2.489  12.733 -0.4038  2.9515 -0.7167
 7866TIP3   OH247792   3.947   0.809  12.252 -0.0556  0.1076 -0.0972
 7866TIP3    H147793   3.901   0.735  12.211  1.0503 -0.9241  0.4419
 7866TIP3    H247794   4.012   0.767  12.309  0.0023  1.5123  0.9088
 7867TIP3   OH247795   3.516   6.284  11.271 -0.2231 -0.2536  0.4294
 7867TIP3    H147796   3.522   6.275  11.366 -0.5277 -1.1072  0.3751
 7867TIP3    H247797   3.496   6.196  11.239 -1.4429  0.2585 -0.3188
 7868TIP3   OH247798   2.517   1.160  13.054  0.2692 -0.6192  0.0669
 7868TIP3    H147799   2.604   1.138  13.020  0.1245 -3.4121  1.1861
 7868TIP3    H247800   2.456   1.114  12.997 -0.5344  1.2946 -0.6921
 7869TIP3   OH247801   0.107   6.127  11.491  0.6027 -0.4572 -0.8735
 7869TIP3    H147802   0.047   6.065  11.450  0.5386 -0.1433 -1.2528
 7869TIP3    H247803   0.078   6.131  11.583 -1.7760  1.8029 -1.6053
 7870TIP3   OH247804   3.346   3.051  13.324  0.0152 -0.2767  0.5936
 7870TIP3    H147805   3.350   2.997  13.246 -1.0998  0.0073  0.3247
 7870TIP3    H247806   3.437   3.075  13.342  0.3685 -1.1002 -0.0739
 7871TIP3   OH247807   4.833   7.667  13.031  0.1482 -0.5453 -0.1519
 7871TIP3    H147808   4.860   7.611  13.104 -1.7226  0.1908  1.1646
 7871TIP3    H247809   4.803   7.748  13.072  1.5966  1.0026 -1.9374
 7872TIP3   OH247810   1.086   0.150  11.859 -0.1087  0.5646 -0.6438
 7872TIP3    H147811   1.023   0.145  11.931 -0.0714 -0.5630 -0.6618
 7872TIP3    H247812   1.070   0.235  11.819 -1.0141  0.6720 -0.0911
 7873TIP3   OH247813   6.168   4.018  13.173  0.0694 -0.7436  0.5012
 7873TIP3    H147814   6.178   3.926  13.200  0.2149 -1.7074 -2.4535
 7873TIP3    H247815   6.073   4.029  13.165  0.0601 -1.9999 -2.8558
 7874TIP3   OH247816   5.465   4.299  11.074  0.1028 -0.2970  0.1217
 7874TIP3    H147817   5.549   4.269  11.111 -1.1347 -1.2267  2.4164
 7874TIP3    H247818   5.444   4.234  11.007  0.3524 -1.1791  0.8662
 7875TIP3   OH247819   2.839   6.514  12.470 -0.2851 -0.1736  0.2534
 7875TIP3    H147820   2.920   6.505  12.521  0.5246  0.1631 -0.9407
 7875TIP3    H247821   2.815   6.606  12.479 -0.0337 -0.0684 -0.1079
 7876TIP3   OH247822   7.155   6.583  11.978  0.2519  0.5184 -0.1486
 7876TIP3    H147823   7.086   6.547  12.034  0.2075  0.6212 -0.1381
 7876TIP3    H247824   7.118   6.664  11.943  0.2907  0.4698 -0.3048
 7877TIP3   OH247825   7.314   0.389  12.410  0.1197 -0.2892 -0.0116
 7877TIP3    H147826   7.406   0.368  12.422  0.0984 -0.9901 -0.9702
 7877TIP3    H247827   7.273   0.364  12.493  0.8993  0.7657  0.7065
 7878TIP3   OH247828   5.325   4.800  11.703 -0.2477 -0.0398 -0.2704
 7878TIP3    H147829   5.335   4.884  11.658 -1.5188  0.5593  0.5013
 7878TIP3    H247830   5.305   4.737  11.633  0.4712  0.3366 -0.8268
 7879TIP3   OH247831   1.571   4.865  11.108  0.0728  0.1188  0.6843
 7879TIP3    H147832   1.614   4.864  11.023  0.5671  1.8187  0.8815
 7879TIP3    H247833   1.580   4.955  11.139 -0.9224 -0.2339  2.1228
 7880TIP3   OH247834   0.615   7.384  11.908  0.2093  0.1204  0.4831
 7880TIP3    H147835   0.706   7.396  11.881 -0.3585 -0.2316 -1.7542
 7880TIP3    H247836   0.618   7.309  11.968  1.2559 -0.5811 -0.4036
 7881TIP3   OH247837   6.385   6.159  11.038 -0.3108 -0.1398  0.2309
 7881TIP3    H147838   6.368   6.129  11.127  1.5464 -0.8666  0.3982
 7881TIP3    H247839   6.368   6.253  11.041  0.0387 -0.0959  1.4497
 7882TIP3   OH247840   5.285   3.351  13.579 -0.0044 -0.4200  0.4396
 7882TIP3    H147841   5.324   3.387  13.500 -1.8494  0.8839  0.0705
 7882TIP3    H247842   5.331   3.395  13.651  0.4780 -0.3226  0.0754
 7883TIP3   OH247843   1.191   2.186  13.826  0.2363  0.2186 -0.1676
 7883TIP3    H147844   1.113   2.222  13.868  0.5548  1.0418 -0.2526
 7883TIP3    H247845   1.258   2.253  13.841  1.0844 -0.7381  0.4165
 7884TIP3   OH247846   2.856   2.838  12.690  0.3530  0.2545  0.2927
 7884TIP3    H147847   2.865   2.783  12.768  0.7248 -2.4284 -1.5054
 7884TIP3    H247848   2.761   2.848  12.679  0.1447 -2.0675 -0.5847
 7885TIP3   OH247849   0.550   4.002  12.867  0.0795  0.3262  0.0292
 7885TIP3    H147850   0.626   3.988  12.810  0.3424 -0.4527  0.5508
 7885TIP3    H247851   0.588   4.035  12.949 -0.0527 -0.8511  0.5813
 7886TIP3   OH247852   4.622   2.822  12.681  0.1384  0.1084 -0.0365
 7886TIP3    H147853   4.648   2.895  12.737  1.6634 -1.2242  1.1122
 7886TIP3    H247854   4.544   2.786  12.723 -0.8451  1.2453 -0.8172
 7887TIP3   OH247855   0.120   1.254  13.653 -0.8564  0.8277 -0.1751
 7887TIP3    H147856   0.046   1.236  13.594 -0.6890  3.6725 -1.4034
 7887TIP3    H247857   0.079   1.262  13.740 -1.3227 -1.8086 -0.0683
 7888TIP3   OH247858   3.164   6.887  12.037 -0.4836 -0.3106 -0.1090
 7888TIP3    H147859   3.152   6.969  12.085  1.9191 -0.5139  1.0055
 7888TIP3    H247860   3.203   6.827  12.100  1.2986 -1.1169 -1.8400
 7889TIP3   OH247861   0.183   6.011  12.295  0.6444  0.4560  0.0746
 7889TIP3    H147862   0.264   6.061  12.291  1.2909 -0.5801 -0.2901
 7889TIP3    H247863   0.186   5.954  12.217 -1.3009  1.6758 -0.9900
 7890TIP3   OH247864   0.986   5.663  12.964  0.8677 -0.1498 -0.2683
 7890TIP3    H147865   0.955   5.633  13.049 -0.7152  0.8989 -0.4355
 7890TIP3    H247866   1.078   5.636  12.960  0.0560 -3.3287  0.2999
 7891TIP3   OH247867   4.113   2.070  10.863  0.1970  0.0003  0.3059
 7891TIP3    H147868   4.044   2.076  10.797 -0.4702  2.7196  1.0945
 7891TIP3    H247869   4.078   2.011  10.930 -0.2730 -0.6322 -0.4860
 7892TIP3   OH247870   1.191   5.521  13.037  0.0483  0.6230 -0.2942
 7892TIP3    H147871   1.125   5.480  13.094 -0.0499 -0.1093 -0.9208
 7892TIP3    H247872   1.260   5.456  13.030 -0.2708  0.4047 -1.5894
 7893TIP3   OH247873   6.709   7.484  12.950  0.3381 -0.0633  0.5267
 7893TIP3    H147874   6.722   7.549  13.020 -0.8695 -0.0117  0.7170
 7893TIP3    H247875   6.731   7.401  12.991 -2.7058 -0.3799  1.8206
 7894TIP3   OH247876   2.027   6.476  12.794 -0.3741  0.0550 -0.5734
 7894TIP3    H147877   2.071   6.449  12.874  0.3956  0.4064 -0.8664
 7894TIP3    H247878   2.044   6.570  12.787  0.7284 -0.2007 -1.8224
 7895TIP3   OH247879   1.175   3.294  10.963 -0.0557  0.0152  0.3443
 7895TIP3    H147880   1.163   3.288  11.058  1.5292 -1.0867  0.5119
 7895TIP3    H247881   1.155   3.207  10.931  0.6461  0.0302 -0.1599
 7896TIP3   OH247882   4.774   0.281  11.098 -0.2346 -0.0678 -0.2861
 7896TIP3    H147883   4.858   0.321  11.121 -0.8458  1.1454 -0.1201
 7896TIP3    H247884   4.792   0.233  11.017  0.6714 -0.0272 -0.1241
 7897TIP3   OH247885   1.821   3.235  12.907 -0.6267 -0.5211 -0.2658
 7897TIP3    H147886   1.813   3.156  12.961  0.5145 -0.6178 -0.2116
 7897TIP3    H247887   1.739   3.239  12.858 -1.6683 -0.5012  1.3640
 7898TIP3   OH247888   7.355   0.546  13.039  0.0176  0.5383  0.1629
 7898TIP3    H147889   7.296   0.471  13.033  0.6661 -0.0555  0.9332
 7898TIP3    H247890   7.310   0.617  12.994 -0.9598 -0.0996  0.1267
 7899TIP3   OH247891   3.723   1.352  12.380  0.4279 -0.1101  0.1804
 7899TIP3    H147892   3.729   1.431  12.435 -0.1690 -0.2018  0.3861
 7899TIP3    H247893   3.748   1.280  12.438  0.5341 -0.1243  0.1181
 7900TIP3   OH247894   4.379   5.430  11.183  0.0983 -0.0390  0.1858
 7900TIP3    H147895   4.390   5.413  11.090 -1.3533 -1.1276  0.1823
 7900TIP3    H247896   4.348   5.347  11.219 -0.3944  0.6694  1.4494
 7901TIP3   OH247897   2.338   7.128  13.371  0.1460  0.2619  0.2308
 7901TIP3    H147898   2.388   7.198  13.413 -0.0769  0.6100 -0.0863
 7901TIP3    H247899   2.246   7.155  13.379  0.1062  0.3595 -0.5384
 7902TIP3   OH247900   3.423   2.335  11.388  0.1566  0.5096  1.2416
 7902TIP3    H147901   3.425   2.244  11.418  1.7722 -0.1931 -0.7582
 7902TIP3    H247902   3.336   2.367  11.413 -0.0891 -1.2384  2.8649
 7903TIP3   OH247903   5.582   2.587  13.143 -0.0437 -0.3620  1.1023
 7903TIP3    H147904   5.534   2.658  13.187  0.3933 -0.1388  1.2165
 7903TIP3    H247905   5.513   2.524  13.119 -0.1650 -1.3622  3.6760
 7904TIP3   OH247906   0.200   4.272  13.815  0.0611  0.1997 -0.2874
 7904TIP3    H147907   0.146   4.345  13.847  0.6068 -0.5430  2.6659
 7904TIP3    H247908   0.281   4.313  13.785 -0.4922  0.9708 -0.7646
 7905TIP3   OH247909   4.979   3.093  11.941  0.2569  0.2141  0.0281
 7905TIP3    H147910   4.899   3.077  11.891 -0.7750  1.1628  1.3054
 7905TIP3    H247911   4.960   3.060  12.029  1.3713  0.2416  0.3034
 7906TIP3   OH247912   0.437   1.522  13.753  0.2686 -0.2631 -0.2556
 7906TIP3    H147913   0.363   1.520  13.693 -1.3899 -1.1438  1.7080
 7906TIP3    H247914   0.457   1.615  13.764  0.7508 -0.0885 -2.2620
 7907TIP3   OH247915   1.290   4.018  18.333  0.1267 -0.2721 -0.1826
 7907TIP3    H147916   1.281   3.931  18.372  1.4949 -0.6611 -0.6798
 7907TIP3    H247917   1.324   4.073  18.404  3.5263 -1.1914 -0.9226
 7908TIP3   OH247918   2.615   4.585  12.324  0.1717 -0.4366  0.8544
 7908TIP3    H147919   2.585   4.550  12.240 -0.2763  1.7119  0.0524
 7908TIP3    H247920   2.539   4.575  12.382 -0.1239 -0.3244  0.4908
 7909TIP3   OH247921   3.004   6.897  10.722  0.5011 -0.3417  0.3170
 7909TIP3    H147922   3.076   6.958  10.740  0.3229 -0.3407  1.0767
 7909TIP3    H247923   3.011   6.878  10.629  0.7739  0.5751  0.1366
 7910TIP3   OH247924   6.582   5.268  10.881  0.0573  0.0152 -0.0350
 7910TIP3    H147925   6.523   5.328  10.926 -0.3523 -0.6213  0.2878
 7910TIP3    H247926   6.668   5.310  10.887 -0.3922  1.1131 -0.7885
 7911TIP3   OH247927   3.816   0.059  11.603  0.2769 -0.6047 -0.3664
 7911TIP3    H147928   3.745  -0.002  11.580  0.5533  0.1789 -3.9739
 7911TIP3    H247929   3.777   0.146  11.595  1.6987 -0.1207 -3.2996
 7912TIP3   OH247930   6.034   0.329  12.339  0.2855  0.2469  0.9644
 7912TIP3    H147931   6.032   0.233  12.344  0.4370  0.2901  2.3932
 7912TIP3    H247932   6.060   0.356  12.427  1.6766  1.5558  0.1960
 7913TIP3   OH247933   3.869   1.999  13.310  0.5730  0.5347  0.5511
 7913TIP3    H147934   3.805   1.941  13.269  1.3975  0.2472 -0.3630
 7913TIP3    H247935   3.949   1.947  13.316  1.6381  1.8469 -1.2554
 7914TIP3   OH247936   2.509   0.398  12.157 -0.5218 -0.1420  0.1964
 7914TIP3    H147937   2.422   0.361  12.173 -0.1557 -1.0018  0.2929
 7914TIP3    H247938   2.529   0.374  12.067 -0.0404 -0.7032  0.4430
 7915TIP3   OH247939   0.247   2.032  11.092  0.4367 -0.7564 -0.3549
 7915TIP3    H147940   0.245   1.939  11.068 -0.2212 -0.8330 -0.0371
 7915TIP3    H247941   0.191   2.037  11.170  0.7050 -0.1419 -0.2002
 7916TIP3   OH247942   6.007   0.231  11.321 -0.1207  0.1401 -0.0075
 7916TIP3    H147943   5.925   0.224  11.271  0.5767 -1.2233 -1.0104
 7916TIP3    H247944   6.033   0.141  11.338  1.6777  0.5133 -0.5654
 7917TIP3   OH247945   1.385   5.433  11.203 -0.7058 -0.4557  0.8165
 7917TIP3    H147946   1.390   5.356  11.260  1.1169 -2.5019 -1.8531
 7917TIP3    H247947   1.452   5.492  11.238 -0.4302 -1.1421  1.4929
 7918TIP3   OH247948   6.049   5.920  11.603 -0.0719  0.5145 -0.6436
 7918TIP3    H147949   5.984   5.866  11.558 -0.6050  0.4825  0.1427
 7918TIP3    H247950   6.134   5.885  11.575 -0.4075 -0.4371 -0.5088
 7919TIP3   OH247951   0.818   5.885  13.531  0.0279 -0.7515 -0.3804
 7919TIP3    H147952   0.826   5.980  13.529 -1.3217 -0.4268  2.9175
 7919TIP3    H247953   0.769   5.863  13.452 -0.8210  1.4573 -0.5327
 7920TIP3   OH247954   0.552   3.047  12.833 -0.3859  0.0011  0.6743
 7920TIP3    H147955   0.607   2.996  12.892  0.6538  0.2927 -0.0190
 7920TIP3    H247956   0.473   2.995  12.823  0.3192 -1.0779  0.6189
 7921TIP3   OH247957   1.707   0.451  11.075  0.1108 -0.3138 -0.2247
 7921TIP3    H147958   1.802   0.449  11.064  0.4045 -0.2337  1.8827
 7921TIP3    H247959   1.675   0.378  11.022  1.5633 -1.5703  0.5376
 7922TIP3   OH247960   5.554   1.678  12.287 -0.2269  0.3790 -0.2627
 7922TIP3    H147961   5.564   1.703  12.379  1.1290 -1.7662  0.2392
 7922TIP3    H247962   5.502   1.598  12.289  1.0986 -0.5480 -1.2031
 7923TIP3   OH247963   1.403   6.434  12.272 -0.1922  0.3862 -0.1427
 7923TIP3    H147964   1.482   6.431  12.326 -0.5262  0.0316  0.3374
 7923TIP3    H247965   1.394   6.527  12.249 -0.0650  0.5557  0.4575
 7924TIP3   OH247966   1.979   4.013  12.938  0.1888 -0.3986 -0.5499
 7924TIP3    H147967   2.069   4.017  12.969  0.1998  0.6178 -0.6923
 7924TIP3    H247968   1.932   4.079  12.989 -0.3013 -0.3767 -1.0160
 7925TIP3   OH247969   5.663   5.645  11.835  0.1016 -0.2172 -0.6621
 7925TIP3    H147970   5.664   5.639  11.931  1.2826 -0.7084 -0.6901
 7925TIP3    H247971   5.731   5.585  11.806 -1.2966 -1.2947 -1.9038
 7926TIP3   OH247972   4.976   4.167  13.495  0.8150 -0.2818 -0.1114
 7926TIP3    H147973   4.968   4.082  13.452 -1.7416  0.9375 -2.3621
 7926TIP3    H247974   5.030   4.219  13.436  0.3775  0.3429  0.0292
 7927TIP3   OH247975   7.369   6.464  11.149  0.1919 -0.5399 -0.6489
 7927TIP3    H147976   7.333   6.387  11.194  0.7571 -0.2108  0.3737
 7927TIP3    H247977   7.296   6.496  11.096 -0.8856 -0.2372  0.9410
 7928TIP3   OH247978   4.575   5.284  13.069  0.1313 -0.2189 -0.3976
 7928TIP3    H147979   4.489   5.265  13.107 -0.7119 -0.8230 -2.4564
 7928TIP3    H247980   4.631   5.303  13.144 -1.3528 -1.5696  1.1374
 7929TIP3   OH247981   5.604   6.459  12.545 -0.2127 -0.6739 -0.1739
 7929TIP3    H147982   5.543   6.392  12.516  1.6548 -2.3851 -0.3185
 7929TIP3    H247983   5.665   6.413  12.602  2.5063  0.3295 -2.0735
 7930TIP3   OH247984   0.220   5.252  11.367  0.2406  1.0211  0.5540
 7930TIP3    H147985   0.248   5.337  11.331  1.4614  0.3623 -0.1226
 7930TIP3    H247986   0.239   5.189  11.297 -1.1530  0.2503  0.8438
 7931TIP3   OH247987   6.179   6.216  12.847 -0.0854 -0.0201  0.1394
 7931TIP3    H147988   6.241   6.258  12.906  1.2895  0.2331 -1.4208
 7931TIP3    H247989   6.105   6.193  12.903  1.0891  0.3159  1.9263
 7932TIP3   OH247990   5.693   7.460  11.322 -0.5181  0.0440 -0.4665
 7932TIP3    H147991   5.653   7.547  11.328  1.3777  0.9368  0.1618
 7932TIP3    H247992   5.764   7.462  11.386 -0.2569 -1.8815 -0.6532
 7933TIP3   OH247993   1.282   6.744  13.382  0.0552  0.1187  0.0036
 7933TIP3    H147994   1.276   6.722  13.475 -0.4050 -2.8299 -0.5986
 7933TIP3    H247995   1.193   6.730  13.349  0.4766 -0.1074 -1.0857
 7934TIP3   OH247996   0.807   2.606  11.182 -0.1045  0.0964  0.2967
 7934TIP3    H147997   0.744   2.673  11.208 -0.5384 -0.6747  1.3297
 7934TIP3    H247998   0.817   2.551  11.261  2.7228  0.8292  0.5283
 7935TIP3   OH247999   0.871   5.806  11.596 -0.1329  0.2675 -0.0933
 7935TIP3    H148000   0.825   5.722  11.595 -1.1556  0.7543 -2.6521
 7935TIP3    H248001   0.876   5.831  11.503  1.9192  2.0967  0.4299
 7936TIP3   OH248002   5.255   1.879  11.711 -0.1163  0.2438  0.3310
 7936TIP3    H148003   5.319   1.825  11.666 -0.0752  0.1643  0.4855
 7936TIP3    H248004   5.231   1.829  11.789 -0.3431  0.2866  0.2892
 7937TIP3   OH248005   6.213   6.925  11.623 -0.3671 -0.5556  0.2514
 7937TIP3    H148006   6.172   6.975  11.694 -2.5564 -0.9854 -0.6074
 7937TIP3    H248007   6.224   6.837  11.659 -0.6702 -0.5561  0.3456
 7938TIP3   OH248008   1.141   0.277  13.126  0.1422 -0.1717 -0.3261
 7938TIP3    H148009   1.058   0.234  13.106 -0.9832  0.9267  1.6673
 7938TIP3    H248010   1.201   0.245  13.059 -2.1092 -0.2446 -2.4270
 7939TIP3   OH248011   5.265   7.376  10.761 -0.4528  0.0426  0.1364
 7939TIP3    H148012   5.316   7.401  10.683 -0.7429 -1.2270 -0.4793
 7939TIP3    H248013   5.330   7.356  10.827 -0.0124 -3.0727 -1.1023
 7940TIP3   OH248014   4.048   3.087  11.753  0.4235  0.5750  0.0190
 7940TIP3    H148015   4.014   3.168  11.791  2.3310  1.0317  0.8715
 7940TIP3    H248016   4.029   3.020  11.818 -2.0089  0.0778 -1.0949
 7941TIP3   OH248017   5.229   2.121  11.203  0.2084  0.0268 -0.4110
 7941TIP3    H148018   5.164   2.079  11.146  1.1666 -0.1733 -1.3847
 7941TIP3    H248019   5.196   2.106  11.292 -1.1869  0.1339 -0.8871
 7942TIP3   OH248020   2.002   4.327  11.280  0.4752 -0.4316 -0.1358
 7942TIP3    H148021   2.080   4.344  11.333 -0.2006 -0.4994  0.9172
 7942TIP3    H248022   1.966   4.413  11.263  0.0241 -0.4705  0.5761
 7943TIP3   OH248023   6.665   6.425  12.933  0.2692  0.5647  0.3375
 7943TIP3    H148024   6.712   6.448  12.853 -0.4342 -1.8123 -0.8508
 7943TIP3    H248025   6.733   6.409  12.998  0.9448  0.5420 -0.3670
 7944TIP3   OH248026   3.953   5.562  11.786 -0.3125 -0.3045 -0.2210
 7944TIP3    H148027   3.987   5.504  11.854 -1.1594  0.2593  0.7159
 7944TIP3    H248028   4.029   5.584  11.733  0.3325 -0.9340  0.4176
 7945TIP3   OH248029   7.428   4.238  10.853  0.7023  0.1070 -0.0646
 7945TIP3    H148030   7.338   4.246  10.885  0.8940  0.8827  0.2829
 7945TIP3    H248031   7.476   4.198  10.926  0.8981  0.8315  0.2083
 7946TIP3   OH248032   4.147   2.640  13.196 -0.5060  0.1529 -0.3061
 7946TIP3    H148033   4.219   2.685  13.153 -0.3425 -0.6486 -0.8917
 7946TIP3    H248034   4.132   2.690  13.276  1.0839  0.0125  0.1178
 7947TIP3   OH248035   7.495   6.592  11.920 -0.3930 -0.1494  0.1663
 7947TIP3    H148036   7.505   6.545  11.837  0.6966 -1.2409  0.8787
 7947TIP3    H248037   7.581   6.585  11.961 -0.6808  1.1144  1.0190
 7948TIP3   OH248038   3.550   0.183  10.917  0.1155  0.1644 -0.6694
 7948TIP3    H148039   3.568   0.162  10.825 -1.6360  1.0391 -1.2748
 7948TIP3    H248040   3.456   0.204  10.918  0.3590  1.3458  1.0889
 7949TIP3   OH248041   4.804   4.483  12.383  0.0227 -0.1995  1.1528
 7949TIP3    H148042   4.867   4.541  12.426  0.9253  0.6353 -1.1426
 7949TIP3    H248043   4.857   4.411  12.348 -0.3280  0.2021 -0.2949
 7950TIP3   OH248044   3.712   5.351  11.603 -0.2588  0.1390  0.2326
 7950TIP3    H148045   3.674   5.263  11.600 -0.2962  0.1713 -0.6871
 7950TIP3    H248046   3.806   5.337  11.610 -0.1526 -0.0218 -1.1243
 7951TIP3   OH248047   0.513   2.687  12.089  0.3627  0.2286 -0.3100
 7951TIP3    H148048   0.608   2.678  12.078  0.0817 -2.6816 -1.3803
 7951TIP3    H248049   0.494   2.642  12.171 -0.1448  0.0910 -0.4985
 7952TIP3   OH248050   4.580   3.278  12.991 -0.1740  0.0869  0.2206
 7952TIP3    H148051   4.535   3.220  12.930  0.9787 -1.7785  1.0610
 7952TIP3    H248052   4.520   3.288  13.064 -1.5811  2.3673 -1.1373
 7953TIP3   OH248053   7.341   4.888  12.087 -0.1829  0.5074  0.3139
 7953TIP3    H148054   7.365   4.809  12.134  1.3899  0.6453 -0.2206
 7953TIP3    H248055   7.424   4.929  12.064 -0.9629  1.9658 -0.0146
 7954TIP3   OH248056   5.679   2.725  10.931 -0.3258  0.4881  0.4417
 7954TIP3    H148057   5.696   2.819  10.924  0.6478  0.3184  0.3933
 7954TIP3    H248058   5.589   2.720  10.963 -0.0264  1.4634  1.5457
 7955TIP3   OH248059   2.460   7.041  11.983 -0.4195  0.0593 -0.1157
 7955TIP3    H148060   2.518   6.987  12.037 -0.8197 -2.2372 -1.8141
 7955TIP3    H248061   2.513   7.117  11.959  1.3560 -1.1723 -0.2720
 7956TIP3   OH248062   7.660   7.310  12.963  0.1905 -0.7470  0.2721
 7956TIP3    H148063   7.645   7.403  12.980 -0.2383 -0.3508 -1.9910
 7956TIP3    H248064   7.577   7.268  12.986 -1.0072  0.0137 -2.3672
 7957TIP3   OH248065   3.960   7.019  11.067 -0.4493 -0.3239  0.1386
 7957TIP3    H148066   3.888   6.987  11.122  0.6243 -0.6785  1.3794
 7957TIP3    H248067   3.933   7.107  11.042 -1.4273 -0.5414  0.3815
 7958TIP3   OH248068   3.834   5.827  11.720 -1.1857  0.5233 -0.2403
 7958TIP3    H148069   3.895   5.879  11.771  1.1499  0.4910 -2.7773
 7958TIP3    H248070   3.849   5.737  11.748  0.6256  0.4209 -1.4024
 7959TIP3   OH248071   0.906   6.891  12.150  0.0553 -0.6360 -0.4606
 7959TIP3    H148072   0.847   6.928  12.085  0.6994 -1.3831 -1.4961
 7959TIP3    H248073   0.898   6.796  12.140 -0.3428 -0.7899  1.0239
 7960TIP3   OH248074   4.937   5.240  11.331 -0.0406 -0.3622 -0.7822
 7960TIP3    H148075   4.896   5.270  11.250 -0.2548 -0.0740 -0.5686
 7960TIP3    H248076   4.949   5.320  11.383 -1.2854 -0.7270  0.0950
 7961TIP3   OH248077   2.490   2.299  11.819  0.5591 -0.0280  0.1212
 7961TIP3    H148078   2.488   2.372  11.757 -0.0382  0.5935  0.8617
 7961TIP3    H248079   2.449   2.333  11.898 -1.9683 -1.8620 -0.2747
 7962TIP3   OH248080   3.369   1.713  13.476  0.0754 -0.4620 -0.0248
 7962TIP3    H148081   3.437   1.704  13.543 -0.8553 -1.7110  0.7940
 7962TIP3    H248082   3.313   1.784  13.507  0.3680 -0.1789 -0.1389
 7963TIP3   OH248083   2.132   6.735  12.207  0.1366  0.3001 -0.4047
 7963TIP3    H148084   2.173   6.772  12.129  2.6063 -1.5111 -0.0670
 7963TIP3    H248085   2.198   6.742  12.275 -0.6205 -1.4019  0.5758
 7964TIP3   OH248086   2.158   6.021  13.325 -0.9069  0.1207 -0.0463
 7964TIP3    H148087   2.205   5.937  13.324 -0.5392  0.3184  0.6371
 7964TIP3    H248088   2.104   6.017  13.404 -1.5939  0.1508 -0.5007
 7965TIP3   OH248089   3.617   6.884  12.390  0.5306 -1.1939 -1.0654
 7965TIP3    H148090   3.605   6.970  12.429 -1.2571 -1.8218 -0.1063
 7965TIP3    H248091   3.621   6.901  12.296 -2.6286 -0.2083 -1.1489
 7966TIP3   OH248092   5.196   3.571  11.442 -0.3539 -0.6474 -0.4057
 7966TIP3    H148093   5.163   3.491  11.483 -0.3491 -0.1120  0.6713
 7966TIP3    H248094   5.225   3.543  11.355 -1.4488 -1.5876 -0.4965
 7967TIP3   OH248095   0.245   0.967  11.614  0.1963 -0.6583  0.4797
 7967TIP3    H148096   0.211   1.041  11.564  1.9084 -0.1391  0.0174
 7967TIP3    H248097   0.174   0.943  11.673 -0.8699  0.4900 -0.2927
 7968TIP3   OH248098   6.552   1.960  11.397 -0.1049 -0.3931  1.0086
 7968TIP3    H148099   6.616   1.924  11.336 -0.0591 -1.2457  1.5450
 7968TIP3    H248100   6.525   2.042  11.357 -0.3938 -1.1338 -0.3776
 7969TIP3   OH248101   5.608   4.385  11.763 -0.8483  0.4862 -0.0711
 7969TIP3    H148102   5.665   4.314  11.733 -1.2236  0.5064 -0.8662
 7969TIP3    H248103   5.554   4.406  11.686 -0.9631  1.4113  0.2572
 7970TIP3   OH248104   3.980   7.541  13.303 -0.0711 -0.0857  0.2746
 7970TIP3    H148105   3.983   7.627  13.261  1.9896 -0.6529 -0.8648
 7970TIP3    H248106   4.040   7.549  13.377  1.2708 -0.9130 -0.6856
 7971TIP3   OH248107   1.973   6.454  12.303 -0.5489 -0.2651 -0.2677
 7971TIP3    H148108   2.040   6.390  12.329  2.5596  2.2910 -1.2866
 7971TIP3    H248109   1.970   6.516  12.376  0.4782  1.2410 -1.4383
 7972TIP3   OH248110   1.998   3.241  11.762  0.6050 -0.1021 -0.1524
 7972TIP3    H148111   2.012   3.332  11.737  2.2477  0.2138  1.6646
 7972TIP3    H248112   1.940   3.206  11.694  0.5401  2.0673 -1.3068
 7973TIP3   OH248113   4.421   4.451  12.946 -0.0276 -0.1952 -0.5867
 7973TIP3    H148114   4.353   4.517  12.931  0.0011  0.3002  1.3148
 7973TIP3    H248115   4.373   4.372  12.972  0.0399 -0.4516 -1.2048
 7974TIP3   OH248116   4.982   3.462  13.368  0.2977 -0.2003 -0.3040
 7974TIP3    H148117   4.930   3.451  13.288 -0.2331 -0.4521  0.0714
 7974TIP3    H248118   4.940   3.534  13.414  0.6641  0.0091 -0.3003
 7975TIP3   OH248119   0.243   0.369  12.992  0.0905  0.3289 -0.1982
 7975TIP3    H148120   0.190   0.422  13.051 -0.4147  0.4579 -0.7557
 7975TIP3    H248121   0.205   0.282  12.996  1.4559 -0.2500  1.3860
 7976TIP3   OH248122   2.682   4.875  13.172 -0.3016 -0.0148  0.3735
 7976TIP3    H148123   2.700   4.926  13.093 -1.1077 -0.7552 -0.3221
 7976TIP3    H248124   2.765   4.832  13.193 -0.0571  0.2571 -0.0224
 7977TIP3   OH248125   4.735   0.923  12.224 -0.2200  0.5412  0.3645
 7977TIP3    H148126   4.767   0.836  12.250  1.6925  0.8325 -0.7850
 7977TIP3    H248127   4.711   0.965  12.306  1.1172 -0.2473  1.2056
 7978TIP3   OH248128   1.052   2.484  12.498 -0.3948  0.1456  0.1406
 7978TIP3    H148129   1.006   2.405  12.468  0.3488  0.8921 -3.4258
 7978TIP3    H248130   1.137   2.452  12.527  0.2944 -0.3810 -2.2513
 7979TIP3   OH248131   1.222   1.680  13.180 -0.3098 -0.3485 -0.0103
 7979TIP3    H148132   1.204   1.587  13.173 -1.9775 -0.2592  2.1843
 7979TIP3    H248133   1.290   1.687  13.247 -0.0959  0.0230 -0.2579
 7980TIP3   OH248134   2.239   3.317  13.830  0.0296 -0.1065 -0.0387
 7980TIP3    H148135   2.145   3.325  13.813 -0.0333  0.2215  0.4204
 7980TIP3    H248136   2.270   3.254  13.765 -0.3047  0.6103 -0.9296
 7981TIP3   OH248137   1.672   6.422  12.904 -0.2127 -0.1821  0.4468
 7981TIP3    H148138   1.647   6.433  12.812  1.6324 -0.1427 -0.0882
 7981TIP3    H248139   1.767   6.430  12.904 -0.2133  0.3759  2.4595
 7982TIP3   OH248140   0.013   3.292  11.893  0.1271 -0.2485 -0.0509
 7982TIP3    H148141  -0.027   3.206  11.875  1.5932 -0.8070 -0.8960
 7982TIP3    H248142  -0.053   3.355  11.867 -0.6231 -1.1351 -0.3664
 7983TIP3   OH248143   4.588   6.840  11.356  0.4901 -0.6351 -0.0249
 7983TIP3    H148144   4.549   6.863  11.272  0.1715 -0.5497  0.1469
 7983TIP3    H248145   4.562   6.749  11.370  1.0125 -0.8325 -0.2829
 7984TIP3   OH248146   0.832   0.604  12.330 -0.2142 -0.7053 -0.3354
 7984TIP3    H148147   0.761   0.664  12.309 -0.9327 -2.0320 -1.9593
 7984TIP3    H248148   0.864   0.633  12.415 -0.6188  1.8391 -0.9820
 7985TIP3   OH248149   7.322   3.964  12.458  0.1763  0.0425 -0.3170
 7985TIP3    H148150   7.381   4.021  12.409 -0.3322 -0.4999 -1.6117
 7985TIP3    H248151   7.305   4.011  12.540 -0.0943  1.6833 -1.2684
 7986TIP3   OH248152   3.079   2.513  12.609 -0.1514 -0.0289  0.5244
 7986TIP3    H148153   3.101   2.427  12.572  0.3198  0.8115 -1.2286
 7986TIP3    H248154   3.077   2.572  12.533 -0.9837  1.4151  1.6272
 7987TIP3   OH248155   5.010   4.983  13.308  0.2866 -0.2712  0.4668
 7987TIP3    H148156   5.051   4.902  13.279 -0.3901 -0.2981 -0.4658
 7987TIP3    H248157   4.918   4.960  13.320  0.0951  0.3409  0.2409
 7988TIP3   OH248158   5.808   3.078  12.155 -0.3318 -0.1166 -0.4068
 7988TIP3    H148159   5.811   3.166  12.116  0.0476 -0.0052 -0.1326
 7988TIP3    H248160   5.876   3.029  12.108  0.5413  0.1867  0.5104
 7989TIP3   OH248161   6.265   7.315  12.318 -0.4649  0.7135 -0.5891
 7989TIP3    H148162   6.345   7.310  12.265 -0.2441  0.2388 -0.2105
 7989TIP3    H248163   6.252   7.409  12.331 -0.3377  0.8223 -1.2023
 7990TIP3   OH248164   3.335   1.789  13.154 -0.1957 -0.3643  0.7427
 7990TIP3    H148165   3.285   1.848  13.210 -1.1707 -1.8775  1.5505
 7990TIP3    H248166   3.333   1.705  13.200  0.4208 -1.2444 -0.7572
 7991TIP3   OH248167   6.682   6.296  11.008  0.0151 -0.2785  0.0167
 7991TIP3    H148168   6.700   6.257  10.922  2.2038 -0.0177  0.3036
 7991TIP3    H248169   6.676   6.221  11.068 -2.1010 -0.5028 -0.3956
 7992TIP3   OH248170   2.312   1.387  11.126 -0.1339  0.3770 -0.1932
 7992TIP3    H148171   2.375   1.447  11.165 -0.4433 -0.5469  1.8761
 7992TIP3    H248172   2.266   1.439  11.060  0.4983  2.0181  0.6055
 7993TIP3   OH248173   3.969   2.238  13.228  0.2188  0.1070 -0.5822
 7993TIP3    H148174   4.044   2.235  13.286 -0.7627  1.7048  0.8650
 7993TIP3    H248175   3.914   2.165  13.256 -1.1807  1.9718  1.9860
 7994TIP3   OH248176   0.620   3.210  13.201  0.2068  0.4704  0.0446
 7994TIP3    H148177   0.658   3.293  13.231  0.0909  1.0473 -1.3245
 7994TIP3    H248178   0.527   3.219  13.219 -0.1060  1.4869 -1.8855
 7995TIP3   OH248179   7.523   6.049  12.251 -0.3301 -0.3528  0.0197
 7995TIP3    H148180   7.539   6.094  12.333 -0.0358  0.5430 -0.5195
 7995TIP3    H248181   7.491   5.962  12.277 -0.3338 -0.0480  1.0660
 7996TIP3   OH248182   5.824   1.552  12.179 -0.4189 -0.1076 -0.2514
 7996TIP3    H148183   5.731   1.546  12.202 -0.5775  0.3680 -0.7424
 7996TIP3    H248184   5.865   1.592  12.256 -0.1411 -2.7726  1.0744
 7997TIP3   OH248185   2.216   7.606  12.889 -0.8421  0.5568  0.5357
 7997TIP3    H148186   2.311   7.614  12.897 -0.6045  1.1453 -1.9104
 7997TIP3    H248187   2.182   7.686  12.929 -0.3953  0.0210  2.0553
 7998TIP3   OH248188   3.736   4.976  11.370 -0.0125 -0.0851 -0.0745
 7998TIP3    H148189   3.728   5.000  11.278 -1.8398 -0.9435 -0.1832
 7998TIP3    H248190   3.827   4.995  11.392  0.4198  0.2775 -2.0063
 7999TIP3   OH248191   1.745   6.196  12.009 -0.2068  0.0370  0.5004
 7999TIP3    H148192   1.695   6.217  12.088 -0.5514 -2.0580  0.8900
 7999TIP3    H248193   1.715   6.109  11.984  0.4124  0.3709 -1.5566
 8000TIP3   OH248194   6.664   3.311  12.896 -0.0235  0.3392  0.3541
 8000TIP3    H148195   6.649   3.320  12.802 -1.9196  0.5945  0.6514
 8000TIP3    H248196   6.721   3.385  12.918  0.4073  0.3062 -0.5624
 8001TIP3   OH248197   1.323   5.952  12.021 -0.2348 -0.5718  0.2941
 8001TIP3    H148198   1.387   5.885  12.045 -1.3541 -1.5173  0.7602
 8001TIP3    H248199   1.353   6.031  12.064  1.9758 -0.3332 -1.5032
 8002TIP3   OH248200   0.783   3.682  11.007 -0.2397  0.1106 -0.2957
 8002TIP3    H148201   0.873   3.703  11.030  0.0561 -0.0998 -1.2539
 8002TIP3    H248202   0.766   3.731  10.927 -0.1094 -1.8683 -1.5940
 8003TIP3   OH248203   5.644   4.682  11.814  0.4168  0.1116  0.2815
 8003TIP3    H148204   5.637   4.735  11.735 -0.2724  2.1307  1.6216
 8003TIP3    H248205   5.663   4.594  11.782 -2.0495  0.3594 -2.2637
 8004TIP3   OH248206   2.028   1.545  12.600  0.6005  0.0744  0.0016
 8004TIP3    H148207   1.950   1.573  12.647 -0.5130 -0.9356 -1.1708
 8004TIP3    H248208   2.100   1.594  12.640 -0.4185 -0.0268  2.0778
 8005TIP3   OH248209   4.563   5.310  12.297  0.0326  0.1354  0.2275
 8005TIP3    H148210   4.546   5.219  12.321 -1.6455  0.0369 -1.1140
 8005TIP3    H248211   4.591   5.306  12.206 -1.2139  1.0196 -0.2224
 8006TIP3   OH248212   0.002   6.451  12.788  0.3938 -0.1041  0.1622
 8006TIP3    H148213   0.093   6.427  12.804 -0.3649 -3.8742 -0.0143
 8006TIP3    H248214  -0.048   6.401  12.854 -1.5839  1.0347 -0.3826
 8007TIP3   OH248215   7.441   6.809  11.779  0.1515  0.1055 -0.2498
 8007TIP3    H148216   7.481   6.797  11.692 -0.4983  0.7707 -0.6520
 8007TIP3    H248217   7.442   6.722  11.818  0.2785 -0.2416 -1.0038
 8008TIP3   OH248218   1.190   1.438  12.422 -0.0655 -0.1138 -0.0511
 8008TIP3    H148219   1.239   1.358  12.439 -0.1801 -0.1773 -0.0180
 8008TIP3    H248220   1.181   1.441  12.327  0.1851  0.0079 -0.0736
 8009TIP3   OH248221   5.813   0.675  13.181 -0.5229 -0.4499 -0.3048
 8009TIP3    H148222   5.798   0.653  13.089 -0.1122  0.3524 -0.5716
 8009TIP3    H248223   5.749   0.745  13.200  0.5309  0.5879 -0.4781
 8010TIP3   OH248224   2.470   2.112  12.788  0.0523 -0.3822  0.1041
 8010TIP3    H148225   2.420   2.162  12.724 -1.0307 -2.7335 -1.0303
 8010TIP3    H248226   2.561   2.118  12.759  0.0857  1.5869  0.5281
 8011TIP3   OH248227   1.243   1.756  12.882 -0.0080  0.4588 -0.1649
 8011TIP3    H148228   1.232   1.716  12.968 -0.3424 -1.5292 -1.0923
 8011TIP3    H248229   1.219   1.848  12.896  0.7806  0.3853  2.0329
 8012TIP3   OH248230   3.912   1.600  12.029  0.0856  0.1843  0.1522
 8012TIP3    H148231   3.952   1.515  12.008 -1.1336 -0.2639 -0.4585
 8012TIP3    H248232   3.902   1.599  12.124 -0.1839 -0.4906  0.1243
 8013TIP3   OH248233   7.185   6.632  12.394 -0.2343 -0.1621 -0.4089
 8013TIP3    H148234   7.236   6.654  12.316  2.3922 -1.2440  0.9147
 8013TIP3    H248235   7.154   6.543  12.377 -0.6797  0.0378 -0.6807
 8014TIP3   OH248236   3.396   6.538  11.576  0.0829  0.1384 -0.2867
 8014TIP3    H148237   3.391   6.562  11.668 -1.5274  1.1260 -0.5868
 8014TIP3    H248238   3.489   6.519  11.561  0.2066 -1.3229  1.8069
 8015TIP3   OH248239   6.412   3.815  11.347  0.2554 -0.0015  0.1182
 8015TIP3    H148240   6.367   3.732  11.365  0.0087 -0.1940 -1.2572
 8015TIP3    H248241   6.433   3.810  11.254  1.6334  0.8222  0.3665
 8016TIP3   OH248242   2.472   3.834  12.773 -0.3111  0.6881 -0.2206
 8016TIP3    H148243   2.559   3.840  12.811  0.6084 -1.2819 -1.8038
 8016TIP3    H248244   2.428   3.766  12.823  0.6868 -1.4688 -2.1097
 8017TIP3   OH248245   1.929   5.915  11.073 -0.2857 -0.1419  0.0621
 8017TIP3    H148246   1.883   5.898  11.155 -0.2343 -3.3007 -0.4124
 8017TIP3    H248247   1.860   5.924  11.008 -0.3254  2.3341  0.3687
 8018TIP3   OH248248   3.397   5.944  12.792 -0.3415 -0.3307  0.5141
 8018TIP3    H148249   3.452   6.020  12.810  0.9091 -0.6147 -1.6894
 8018TIP3    H248250   3.314   5.963  12.836  0.1118  2.0587  0.4615
 8019TIP3   OH248251   2.765   4.239  11.177 -0.0374 -0.4561  0.2623
 8019TIP3    H148252   2.728   4.152  11.167  0.3071 -0.4873 -0.8391
 8019TIP3    H248253   2.765   4.254  11.272  1.8636 -2.5017  0.6698
 8020TIP3   OH248254   5.548   3.001  12.750  0.3291 -0.4753 -0.2428
 8020TIP3    H148255   5.486   2.988  12.678 -0.5245 -2.3961  0.7462
 8020TIP3    H248256   5.578   2.913  12.772  2.7002  0.3160 -0.0182
 8021TIP3   OH248257   7.267   6.164  12.814 -0.5653 -0.2368 -0.1098
 8021TIP3    H148258   7.294   6.176  12.905  2.2529 -0.2015 -0.8699
 8021TIP3    H248259   7.333   6.210  12.763 -1.5581 -1.0413 -2.2416
 8022TIP3   OH248260   2.028   1.237  12.531 -0.0748  0.1091 -0.5852
 8022TIP3    H148261   2.048   1.329  12.512 -0.0821  0.4206  0.8012
 8022TIP3    H248262   1.945   1.240  12.578  0.1754 -0.5714 -0.0835
 8023TIP3   OH248263   3.636   5.060  12.699 -0.1848 -0.8757 -0.3446
 8023TIP3    H148264   3.642   4.978  12.747 -1.9567 -0.6022  0.4412
 8023TIP3    H248265   3.704   5.054  12.633  0.3315 -2.5750  0.2759
 8024TIP3   OH248266   3.212   6.936  13.146  0.0578 -0.6885 -0.4971
 8024TIP3    H148267   3.235   6.899  13.231 -1.4671 -0.6218 -0.0236
 8024TIP3    H248268   3.278   7.003  13.130  0.4824 -0.8451  0.5457
 8025TIP3   OH248269   4.625   6.289  11.970  0.0913 -0.2413  0.4455
 8025TIP3    H148270   4.583   6.213  12.010 -1.1050 -0.7120 -1.5961
 8025TIP3    H248271   4.692   6.251  11.913 -1.1262  0.1234 -1.2969
 8026TIP3   OH248272   2.170   0.866  12.178  0.5780 -0.0355  0.6530
 8026TIP3    H148273   2.229   0.921  12.125  0.6026  1.5703  2.2501
 8026TIP3    H248274   2.199   0.776  12.160  0.3493  0.3897 -2.2833
 8027TIP3   OH248275   6.858   1.250  12.286 -0.1758 -0.1414 -0.2199
 8027TIP3    H148276   6.838   1.220  12.375  0.9922 -0.3456 -0.0134
 8027TIP3    H248277   6.788   1.313  12.266  0.3095  0.9884  1.4057
 8028TIP3   OH248278   2.482   1.070  10.953 -0.1275 -0.0154  0.0165
 8028TIP3    H148279   2.504   0.981  10.924  1.0339  0.0969  0.5134
 8028TIP3    H248280   2.476   1.063  11.049  1.8037  0.8074  0.2291
 8029TIP3   OH248281   0.261   2.335  12.490 -0.4661 -0.5101  0.1061
 8029TIP3    H148282   0.297   2.247  12.480  0.5450 -0.2293  1.0471
 8029TIP3    H248283   0.283   2.379  12.409  0.8607 -0.5253  0.4313
 8030TIP3   OH248284   4.059   4.492  11.030 -0.0962  0.9379  0.0321
 8030TIP3    H148285   3.999   4.426  10.996  0.0059 -0.3600  2.1890
 8030TIP3    H248286   4.112   4.517  10.954  0.2539 -1.8964 -0.7822
 8031TIP3   OH248287   3.561   5.321  11.310 -0.3161  0.1218 -0.5494
 8031TIP3    H148288   3.476   5.354  11.281  0.1165  1.3951 -0.4190
 8031TIP3    H248289   3.624   5.356  11.247  0.2724  0.3406  0.1481
 8032TIP3   OH248290   1.843   6.487  13.764  0.3182 -0.4420 -0.2878
 8032TIP3    H148291   1.844   6.492  13.860  0.4134 -1.3020 -0.2403
 8032TIP3    H248292   1.915   6.544  13.737 -0.0432  0.2295  0.1251
 8033TIP3   OH248293   0.382   1.963  11.444  0.0564 -0.1285 -0.1036
 8033TIP3    H148294   0.419   1.900  11.383 -1.2936 -0.3796 -0.7007
 8033TIP3    H248295   0.288   1.963  11.425 -0.3253  0.2171  1.5747
 8034TIP3   OH248296   3.105   4.211  13.638 -0.1500 -1.0420 -0.5202
 8034TIP3    H148297   3.010   4.196  13.637 -0.3361  0.0189 -2.1632
 8034TIP3    H248298   3.115   4.293  13.686 -0.0663 -1.0654 -0.4975
 8035TIP3   OH248299   1.451   1.747  11.803  0.0914 -0.3625  0.1620
 8035TIP3    H148300   1.468   1.841  11.790 -1.3241 -0.2307 -0.9459
 8035TIP3    H248301   1.507   1.723  11.877  1.9817  0.9104 -0.7652
 8036TIP3   OH248302   0.607   6.388  11.984 -0.6177  0.2286 -0.1311
 8036TIP3    H148303   0.672   6.366  12.050 -1.9745 -0.3193  1.0819
 8036TIP3    H248304   0.640   6.469  11.944  0.6213  0.1437  0.6624
 8037TIP3   OH248305   6.434   6.734  13.264 -0.2632 -0.4877 -0.6521
 8037TIP3    H148306   6.434   6.681  13.184 -0.3477  2.7163 -2.9725
 8037TIP3    H248307   6.345   6.769  13.269  0.1758  0.5659 -0.0267
 8038TIP3   OH248308   1.654   2.341  11.026  0.4913  0.0682 -0.2770
 8038TIP3    H148309   1.750   2.335  11.030  0.5150  0.3112 -0.4998
 8038TIP3    H248310   1.628   2.264  10.975  0.5047 -0.4608  0.4795
 8039TIP3   OH248311   3.508   6.783  11.007  0.3246  0.1511  0.3949
 8039TIP3    H148312   3.462   6.806  11.088  1.0786  3.0147  0.1223
 8039TIP3    H248313   3.440   6.746  10.951 -1.0268  1.4319  1.0994
 8040TIP3   OH248314   3.640   0.661  12.827  0.2950  0.5235  0.4618
 8040TIP3    H148315   3.603   0.674  12.914 -0.4374 -0.4022  0.2995
 8040TIP3    H248316   3.613   0.573  12.802  0.0178  0.9742 -0.9377
 8041TIP3   OH248317   0.681   1.497  10.853 -0.2901  0.2744 -0.2978
 8041TIP3    H148318   0.699   1.473  10.762 -1.8919 -1.4425 -0.2115
 8041TIP3    H248319   0.693   1.416  10.902 -2.9236  0.2704  0.4648
 8042TIP3   OH248320   3.638   0.854  12.281 -0.6260 -0.1709  0.2089
 8042TIP3    H148321   3.732   0.874  12.284 -0.2372 -1.5678 -1.2912
 8042TIP3    H248322   3.600   0.909  12.349  1.0467  1.7001 -0.2543
 8043TIP3   OH248323   5.388   6.808  11.417  0.0893 -0.4089 -0.3177
 8043TIP3    H148324   5.365   6.758  11.496  0.4372  0.9562  0.6838
 8043TIP3    H248325   5.449   6.875  11.448 -0.0269  0.3626 -1.6957
 8044TIP3   OH248326   0.529   4.520  10.957  0.2786 -0.0558 -0.3137
 8044TIP3    H148327   0.549   4.492  10.867 -0.3438  0.8558 -0.7520
 8044TIP3    H248328   0.441   4.485  10.973 -0.3469  1.2536 -0.7264
 8045TIP3   OH248329   4.685   0.534  11.920  0.0081  0.3591  0.0162
 8045TIP3    H148330   4.659   0.537  12.012 -1.7414  1.1346 -0.4617
 8045TIP3    H248331   4.655   0.448  11.890  0.4962  0.1427  0.1517
 8046TIP3   OH248332   0.645   7.098  12.454  0.3654  0.6594  0.2315
 8046TIP3    H148333   0.605   7.041  12.519 -1.0766  0.2836 -0.9383
 8046TIP3    H248334   0.599   7.181  12.462 -0.4065  0.3499 -0.8561
 8047TIP3   OH248335   2.637   5.478  11.718  0.4307  0.1605 -0.5932
 8047TIP3    H148336   2.571   5.523  11.771 -2.0674 -1.7339 -1.8398
 8047TIP3    H248337   2.707   5.457  11.780 -1.4417 -0.2418  1.5362
 8048TIP3   OH248338   3.580   5.919  12.549 -0.5594 -0.2905  0.1191
 8048TIP3    H148339   3.496   5.939  12.591 -0.8906 -0.2196 -0.5631
 8048TIP3    H248340   3.563   5.842  12.495  0.0226 -0.7651  0.5912
 8049TIP3   OH248341   4.012   5.213  11.654 -0.4600  0.2284  0.0868
 8049TIP3    H148342   4.037   5.139  11.709  0.3762  0.9817  0.7388
 8049TIP3    H248343   4.072   5.284  11.679 -2.0554  1.5370  0.4150
 8050TIP3   OH248344   3.203   1.066  13.280  0.0458  0.1880 -0.0644
 8050TIP3    H148345   3.295   1.088  13.296  0.0305 -0.0440  0.3761
 8050TIP3    H248346   3.167   1.054  13.368 -0.4614  0.4969 -0.2267
 8051TIP3   OH248347   4.416   3.506  12.494  0.2021  0.6863  0.0936
 8051TIP3    H148348   4.433   3.601  12.499 -0.1397  0.8189 -1.0606
 8051TIP3    H248349   4.350   3.491  12.562 -1.1158  1.6218 -0.9131
 8052TIP3   OH248350   3.778   0.675  11.592  0.0462  0.1488 -0.7703
 8052TIP3    H148351   3.703   0.733  11.583 -0.2082 -0.1933 -0.8692
 8052TIP3    H248352   3.817   0.699  11.676 -0.2209  0.2743 -0.6826
 8053TIP3   OH248353   3.386   7.393  11.320 -0.3907  0.1048 -0.9291
 8053TIP3    H148354   3.415   7.398  11.229  1.3388  0.8073 -0.3783
 8053TIP3    H248355   3.309   7.450  11.324  1.2001  2.4434 -1.3865
 8054TIP3   OH248356   6.457   6.653  12.998  0.1399 -0.8121  0.4807
 8054TIP3    H148357   6.446   6.650  12.903  0.4040 -1.4930  0.4705
 8054TIP3    H248358   6.514   6.579  13.019  1.8199  0.5442  0.9352
 8055TIP3   OH248359   3.669   6.547  12.324  0.3829 -0.2969 -0.5824
 8055TIP3    H148360   3.649   6.454  12.335 -1.2042  0.1330  0.4741
 8055TIP3    H248361   3.616   6.591  12.390  0.3095  1.4558 -1.7446
 8056TIP3   OH248362   4.321   3.777  13.504 -0.3375  0.0132  0.0165
 8056TIP3    H148363   4.333   3.686  13.478  0.6615  0.3531 -0.7352
 8056TIP3    H248364   4.227   3.793  13.492 -0.8222 -1.3406  1.6131
 8057TIP3   OH248365   1.829   1.582  11.822  0.0616 -0.0788 -0.1189
 8057TIP3    H148366   1.869   1.533  11.894 -0.1749 -0.6774 -0.3936
 8057TIP3    H248367   1.892   1.651  11.802  0.0666  0.1860  0.7603
 8058TIP3   OH248368   6.421   4.202  11.392 -0.0219  0.5179  0.0361
 8058TIP3    H148369   6.343   4.151  11.418 -1.1011  2.3053  0.4850
 8058TIP3    H248370   6.485   4.184  11.461 -0.7831  0.6378  0.7878
 8059TIP3   OH248371   7.300   1.043  11.984 -0.2448  1.1028  0.0988
 8059TIP3    H148372   7.281   0.975  12.049 -1.7807  2.7614  1.5055
 8059TIP3    H248373   7.283   1.125  12.030 -0.1183  2.4051 -2.0486
 8060TIP3   OH248374   0.799   0.344  12.357 -0.0092  0.8345 -0.1644
 8060TIP3    H148375   0.815   0.436  12.336  0.8568  0.9428  0.9268
 8060TIP3    H248376   0.876   0.316  12.405 -2.2817  0.9988  4.1117
 8061TIP3   OH248377   0.373   3.359  13.290  0.4743  0.0963 -1.1036
 8061TIP3    H148378   0.403   3.341  13.379 -0.0573 -1.8006 -1.2486
 8061TIP3    H248379   0.306   3.292  13.274  0.4447  0.5058 -2.8659
 8062TIP3   OH248380   7.174   3.589  12.899  0.3565  0.0149  0.0238
 8062TIP3    H148381   7.102   3.627  12.949  1.2491  1.1520  0.5083
 8062TIP3    H248382   7.249   3.594  12.958  1.1736  0.3003 -1.0061
 8063TIP3   OH248383   3.798   4.301  11.985  0.2312 -0.3181  0.3739
 8063TIP3    H148384   3.871   4.290  12.046  0.3650 -1.5474  0.0231
 8063TIP3    H248385   3.808   4.390  11.951  0.2202  0.3630  2.0425
 8064TIP3   OH248386   1.211   2.535  10.778 -0.7781 -0.3331  0.2848
 8064TIP3    H148387   1.268   2.600  10.739 -1.4547 -0.6689 -1.3444
 8064TIP3    H248388   1.203   2.561  10.870  0.2683  0.9146  0.0385
 8065TIP3   OH248389   1.616   3.779  10.973  0.0311  0.1716 -0.7838
 8065TIP3    H148390   1.684   3.720  11.007  0.7727  1.6403  0.3813
 8065TIP3    H248391   1.607   3.846  11.041 -0.4587  1.6702 -2.2794
 8066TIP3   OH248392   3.471   1.237  12.327 -0.2233  0.1627 -0.2100
 8066TIP3    H148393   3.548   1.294  12.331  0.0802 -0.3136  1.1731
 8066TIP3    H248394   3.452   1.230  12.233  0.8606  1.0227 -0.5197
 8067TIP3   OH248395   5.161   4.473  11.855 -0.7069  0.4463 -0.0697
 8067TIP3    H148396   5.152   4.378  11.847  2.7883  0.0761 -1.3310
 8067TIP3    H248397   5.129   4.507  11.771 -0.7040  0.2617 -0.1456
 8068TIP3   OH248398   3.261   3.366  10.921  0.3449 -0.5199 -0.0858
 8068TIP3    H148399   3.340   3.313  10.933  1.1637  0.5673 -0.5756
 8068TIP3    H248400   3.286   3.434  10.859 -1.3465 -0.9323 -1.3142
 8069TIP3   OH248401   5.650   0.344  11.678  0.2472  0.2365  0.0290
 8069TIP3    H148402   5.660   0.251  11.658 -0.9783  0.0763  0.0910
 8069TIP3    H248403   5.556   0.355  11.694  0.5566  1.2362  1.2758
 8070TIP3   OH248404   2.638   5.130  12.417  0.5096 -0.4287  0.2711
 8070TIP3    H148405   2.645   5.181  12.337  2.1819  0.6009  1.0165
 8070TIP3    H248406   2.604   5.045  12.389  2.1988 -0.5283 -1.7102
 8071TIP3   OH248407   3.791   7.474  11.054 -0.5316  0.8486  0.5668
 8071TIP3    H148408   3.702   7.441  11.056 -0.8242  1.3853 -1.2662
 8071TIP3    H248409   3.781   7.569  11.047  0.1812  0.9327  0.5850
 8072TIP3   OH248410   5.813   5.577  12.096 -0.2447  0.2493 -0.1334
 8072TIP3    H148411   5.789   5.556  12.187  0.0061 -2.5337 -0.6247
 8072TIP3    H248412   5.903   5.610  12.102 -0.7217  1.4882  0.7233
 8073TIP3   OH248413   1.718   1.908  11.357  0.0437 -0.2187  0.2495
 8073TIP3    H148414   1.701   1.855  11.434 -1.8192 -0.5002 -0.2990
 8073TIP3    H248415   1.695   1.852  11.283 -3.2425  1.5980 -0.3289
 8074TIP3   OH248416   1.300   4.710  11.240  0.2964  0.2618 -0.4743
 8074TIP3    H148417   1.309   4.703  11.335  0.5178  1.0339 -0.4343
 8074TIP3    H248418   1.292   4.804  11.224 -0.6058  0.0781 -1.1411
 8075TIP3   OH248419   4.703   0.737  11.030  0.0838  0.0273 -0.0804
 8075TIP3    H148420   4.638   0.670  11.008 -0.4730 -0.1275  1.8935
 8075TIP3    H248421   4.651   0.816  11.045  0.5599  0.4299 -0.5221
 8076TIP3   OH248422   1.531   5.892  13.382 -0.4086 -0.2066  0.1524
 8076TIP3    H148423   1.467   5.827  13.352 -1.3652  0.1143  1.4024
 8076TIP3    H248424   1.479   5.970  13.400  0.6085  0.6426 -0.4853
 8077TIP3   OH248425   5.749   3.366  12.056 -0.3484  0.4494 -0.6456
 8077TIP3    H148426   5.667   3.335  12.096  1.5139 -2.5216  1.3121
 8077TIP3    H248427   5.732   3.364  11.962 -2.8570  1.0520 -0.2733
 8078TIP3   OH248428   3.740   7.312  11.376  0.2708 -0.1861 -0.2190
 8078TIP3    H148429   3.804   7.371  11.334 -0.1863 -1.2769 -2.5787
 8078TIP3    H248430   3.788   7.231  11.390 -0.4073 -0.8385 -1.5191
 8079TIP3   OH248431   2.254   2.161  12.204  0.3471  0.7274 -0.1304
 8079TIP3    H148432   2.265   2.162  12.109  0.5340  2.2160 -0.1182
 8079TIP3    H248433   2.162   2.185  12.218  0.2019  0.0806  0.0641
 8080TIP3   OH248434   6.725   6.942  12.201  0.1625  0.2570 -0.4711
 8080TIP3    H148435   6.711   7.035  12.183 -1.8489  0.0810 -0.0362
 8080TIP3    H248436   6.820   6.930  12.192  0.5519  2.4685  0.1175
 8081TIP3   OH248437   4.009   3.887  12.436 -0.1129  0.2062  0.5453
 8081TIP3    H148438   4.081   3.907  12.496  1.1765  1.3067 -1.2456
 8081TIP3    H248439   3.977   3.973  12.409 -0.4709 -0.2483 -0.5263
 8082TIP3   OH248440   5.261   6.088  11.514  0.0704 -0.1104 -0.2344
 8082TIP3    H148441   5.221   6.010  11.554  1.3317 -0.4108  0.4917
 8082TIP3    H248442   5.193   6.123  11.456 -0.5001 -1.7910 -0.6372
 8083TIP3   OH248443   3.460   2.127  11.069 -0.2204 -0.2338  0.2557
 8083TIP3    H148444   3.556   2.122  11.075 -0.3708 -2.3375  2.0315
 8083TIP3    H248445   3.436   2.057  11.007 -0.6584 -0.2472  0.4373
 8084TIP3   OH248446   6.190   0.921  12.703 -0.3049  0.6622 -0.0650
 8084TIP3    H148447   6.286   0.928  12.696 -0.3166  0.6441 -0.2430
 8084TIP3    H248448   6.162   1.009  12.727 -0.1236  0.3594  1.3611
 8085TIP3   OH248449   4.947   7.002  12.384  0.2258  0.3279 -0.2642
 8085TIP3    H148450   5.033   6.962  12.376 -0.0096 -0.2821  0.1155
 8085TIP3    H248451   4.960   7.076  12.443  0.5380  0.3980 -0.4209
 8086TIP3   OH248452   2.569   0.915  13.426 -0.1368  0.1512  0.0954
 8086TIP3    H148453   2.664   0.920  13.440 -0.1114  2.0263 -0.5207
 8086TIP3    H248454   2.542   1.005  13.411 -1.8442 -0.4919 -0.9677
 8087TIP3   OH248455   1.529   1.262  12.808  0.1752 -0.5823  0.0765
 8087TIP3    H148456   1.623   1.275  12.816  0.2539 -1.6647  1.1298
 8087TIP3    H248457   1.520   1.180  12.760 -0.2288 -0.6324  0.2319
 8088TIP3   OH248458   3.020   5.169  13.188  0.7602 -0.0286  0.1445
 8088TIP3    H148459   3.067   5.087  13.169  0.5776 -0.9091  3.0258
 8088TIP3    H248460   3.086   5.237  13.179  1.5615 -0.7862  0.1349
 8089TIP3   OH248461   7.537   1.791  12.846  0.1272 -0.5685  0.0890
 8089TIP3    H148462   7.590   1.713  12.831  0.3872 -0.5148  0.7023
 8089TIP3    H248463   7.447   1.759  12.844  0.0807 -0.4361 -2.3648
 8090TIP3   OH248464   1.205   0.195  11.235 -0.1141  0.1829 -0.4412
 8090TIP3    H148465   1.243   0.167  11.151  1.3814  0.4720  0.1029
 8090TIP3    H248466   1.208   0.117  11.290 -0.9219  0.0425 -0.5823
 8091TIP3   OH248467   3.388   0.764  12.387 -0.0576  0.1746  0.3654
 8091TIP3    H148468   3.312   0.822  12.391 -0.4231 -0.3339  0.9048
 8091TIP3    H248469   3.446   0.805  12.322 -0.5830  0.8080  0.2866
 8092TIP3   OH248470   4.743   4.714  12.700 -0.0543  0.1780  0.0838
 8092TIP3    H148471   4.681   4.690  12.631 -0.5118 -1.5695  1.0421
 8092TIP3    H248472   4.787   4.632  12.723  1.4835  1.0815  0.5564
 8093TIP3   OH248473   5.501   4.129  12.380  0.5122 -0.5775 -0.0907
 8093TIP3    H148474   5.537   4.216  12.363 -2.6919  1.3785  1.9847
 8093TIP3    H248475   5.473   4.098  12.294  0.9040  0.8606 -0.7827
 8094TIP3   OH248476   0.380   3.891  12.041  0.4994  0.6411 -0.2273
 8094TIP3    H148477   0.336   3.808  12.024 -1.6374  1.7354 -0.3910
 8094TIP3    H248478   0.401   3.889  12.134  0.2620  0.0239 -0.1830
 8095TIP3   OH248479   3.783   6.024  11.552 -0.3131 -0.4926  0.1185
 8095TIP3    H148480   3.758   5.997  11.464  0.2062  0.6769 -0.4050
 8095TIP3    H248481   3.783   5.943  11.603 -1.7801 -1.0172 -0.6585
 8096TIP3   OH248482   0.213   4.156  11.386  0.2131 -0.0622 -0.8874
 8096TIP3    H148483   0.255   4.240  11.367  0.2819  0.3857  1.1082
 8096TIP3    H248484   0.213   4.150  11.481 -2.7125 -0.8354 -0.8482
 8097TIP3   OH248485   0.106   4.658  12.461  0.1018 -0.4349 -0.8325
 8097TIP3    H148486   0.105   4.571  12.422 -0.4350 -0.3403 -1.0262
 8097TIP3    H248487   0.094   4.718  12.388  0.0612 -0.2118 -0.6464
 8098TIP3   OH248488   5.105   3.147  11.316  0.2121 -0.7848  0.9267
 8098TIP3    H148489   5.040   3.083  11.285  1.0232 -0.9196 -0.6150
 8098TIP3    H248490   5.091   3.152  11.410 -1.7580 -1.1111  0.6915
 8099TIP3   OH248491   6.874   5.384  11.996  0.4446  0.3354  0.4391
 8099TIP3    H148492   6.870   5.290  12.012  1.0956  0.3873  0.9104
 8099TIP3    H248493   6.834   5.424  12.073 -2.9690  0.3732 -1.1765
 8100TIP3   OH248494   2.675   3.743  12.086  0.0856 -0.0901 -0.4811
 8100TIP3    H148495   2.761   3.710  12.057  0.3480 -1.0732  1.2545
 8100TIP3    H248496   2.694   3.829  12.124  0.4124 -0.4816  0.2816
 8101TIP3   OH248497   1.131   7.447  11.469  0.4531 -0.2703  0.8943
 8101TIP3    H148498   1.118   7.501  11.547 -0.6461 -0.3843  0.8038
 8101TIP3    H248499   1.196   7.382  11.496  0.6410  0.1553  1.4844
 8102TIP3   OH248500   4.757   3.080  12.646  0.1504  0.5017 -0.1507
 8102TIP3    H148501   4.762   3.042  12.733  0.4654 -1.3175 -0.9282
 8102TIP3    H248502   4.666   3.109  12.637  0.1170  0.6928  0.7708
 8103TIP3   OH248503   0.300   2.151  10.829 -0.0759 -0.2012 -0.0227
 8103TIP3    H148504   0.263   2.113  10.908  0.3380  0.8958  0.7114
 8103TIP3    H248505   0.386   2.184  10.855  0.4850 -0.6678 -1.1650
 8104TIP3   OH248506   3.432   4.408  11.010  0.7513 -0.0494 -0.3733
 8104TIP3    H148507   3.348   4.452  11.023  0.9643  0.1383  0.4627
 8104TIP3    H248508   3.496   4.480  11.003  0.9200 -0.2016 -0.4124
 8105TIP3   OH248509   1.436   0.586  12.107  0.3957 -0.0556 -0.5755
 8105TIP3    H148510   1.419   0.673  12.143 -0.8001 -0.4405 -0.1500
 8105TIP3    H248511   1.480   0.602  12.024  0.2686  0.9524 -0.4608
 8106TIP3   OH248512   1.678   0.236  13.057 -0.1291  0.0080  0.0062
 8106TIP3    H148513   1.673   0.212  12.965  0.8468 -0.6904  0.1180
 8106TIP3    H248514   1.771   0.230  13.078 -0.5969 -2.7887  1.7823
 8107TIP3   OH248515   1.835   2.517  13.242 -0.7122 -0.1191 -0.4962
 8107TIP3    H148516   1.768   2.542  13.179 -0.3951  0.5584 -0.5777
 8107TIP3    H248517   1.837   2.589  13.305 -1.6253 -1.1851  0.7867
 8108TIP3   OH248518   4.519   6.648  13.203 -0.8171 -0.2776 -0.0813
 8108TIP3    H148519   4.587   6.712  13.183  0.2468 -1.9377 -2.3039
 8108TIP3    H248520   4.441   6.679  13.156 -0.7938  0.1923  0.1845
 8109TIP3   OH248521   1.965   1.108  10.950  0.7531 -0.1831 -0.0984
 8109TIP3    H148522   1.945   1.056  10.872  0.3945 -1.0796  0.5774
 8109TIP3    H248523   2.051   1.076  10.978  1.2402  0.6757 -0.5393
 8110TIP3   OH248524   6.480   2.106  13.539 -0.1463  0.2940 -0.1680
 8110TIP3    H148525   6.429   2.025  13.536  1.3983 -0.7308 -0.2290
 8110TIP3    H248526   6.418   2.173  13.568 -1.0567 -1.2480  1.6295
 8111TIP3   OH248527   5.462   5.916  11.908  0.2489 -0.2328 -0.0844
 8111TIP3    H148528   5.498   5.933  11.820 -0.3566 -1.0492 -0.5017
 8111TIP3    H248529   5.499   5.986  11.962 -1.2204  1.7595 -1.4743
 8112TIP3   OH248530   4.967   6.360  12.242 -1.2054  0.0685 -0.0183
 8112TIP3    H148531   4.966   6.284  12.300 -2.6385 -1.6064 -2.0989
 8112TIP3    H248532   4.874   6.379  12.226 -0.9306 -0.5207 -2.8920
 8113TIP3   OH248533   2.372   5.980  10.931 -0.0031 -0.2283 -0.5406
 8113TIP3    H148534   2.285   5.990  10.892  0.1242  1.0031 -0.5457
 8113TIP3    H248535   2.363   5.908  10.993 -1.2334  0.4185  0.0462
 8114TIP3   OH248536   5.612   1.044  11.505  0.3356 -0.2290 -0.4146
 8114TIP3    H148537   5.702   1.059  11.476  0.1693 -0.2180 -0.9326
 8114TIP3    H248538   5.619   1.036  11.600  1.1282 -1.9659 -0.5783
 8115TIP3   OH248539   6.806   3.560  11.575  0.2655 -0.0042 -0.0347
 8115TIP3    H148540   6.791   3.469  11.552  0.7758 -0.4605  1.3290
 8115TIP3    H248541   6.729   3.606  11.543 -0.1626 -0.9651 -0.4278
 8116TIP3   OH248542   0.186   2.990  12.208  0.0722 -0.1424 -0.3115
 8116TIP3    H148543   0.180   3.002  12.113  0.3000  1.9899 -0.1154
 8116TIP3    H248544   0.179   2.896  12.221 -2.0454 -0.3304 -2.2733
 8117TIP3   OH248545   5.085   4.195  12.694  0.3832  0.1297  0.4167
 8117TIP3    H148546   5.176   4.181  12.668  0.8724  3.2169  0.1060
 8117TIP3    H248547   5.090   4.210  12.789  0.1700  0.0591  0.4389
 8118TIP3   OH248548   2.240   0.205  12.905 -0.2986  0.0598  0.1767
 8118TIP3    H148549   2.178   0.274  12.881  1.3147  1.5661  0.1477
 8118TIP3    H248550   2.302   0.202  12.833 -1.3602 -2.7986 -0.7464
 8119TIP3   OH248551   4.995   1.480  11.968  0.4238 -0.7484  0.1761
 8119TIP3    H148552   5.070   1.530  12.001  1.7566 -1.5702 -1.4419
 8119TIP3    H248553   4.928   1.545  11.951  1.5786  0.3189 -0.4478
 8120TIP3   OH248554   0.725   7.348  12.998  0.0623  0.0635  0.1660
 8120TIP3    H148555   0.668   7.290  12.948 -0.1217  1.1002 -0.8921
 8120TIP3    H248556   0.693   7.342  13.088 -1.4510  0.2667 -0.3276
 8121TIP3   OH248557   0.033   5.285  13.688 -0.0839  0.4625 -0.4096
 8121TIP3    H148558   0.063   5.209  13.639  0.5499  0.1565  0.4365
 8121TIP3    H248559  -0.063   5.275  13.691 -0.1284  0.4453 -1.4928
 8122TIP3   OH248560   6.777   3.123  17.599  0.1908  0.5769 -0.3370
 8122TIP3    H148561   6.864   3.155  17.576  1.3459 -2.2788 -0.3545
 8122TIP3    H248562   6.750   3.070  17.524 -0.8094  0.1038  0.3337
 8123TIP3   OH248563   0.956   3.200  13.273  0.1419 -0.4441  0.1790
 8123TIP3    H148564   1.049   3.203  13.296  0.3694 -0.0281 -0.7620
 8123TIP3    H248565   0.927   3.114  13.302  0.7545 -0.4806  0.7146
 8124TIP3   OH248566   0.232   6.398  11.811  0.6465 -0.0419 -0.7254
 8124TIP3    H148567   0.236   6.367  11.721 -0.7195  1.4322 -1.3473
 8124TIP3    H248568   0.283   6.478  11.811  0.3337  0.1617 -0.2951
 8125TIP3   OH248569   0.693   4.691  11.525 -0.3385 -0.5460 -0.2218
 8125TIP3    H148570   0.688   4.596  11.533  0.0758 -0.6792 -1.3527
 8125TIP3    H248571   0.750   4.706  11.450  0.9849  0.6369  0.9715
 8126TIP3   OH248572   7.060   3.723  12.058 -0.3237 -0.0139  0.2886
 8126TIP3    H148573   7.152   3.745  12.069  0.1437 -1.2697 -0.9015
 8126TIP3    H248574   7.057   3.627  12.059 -1.5592 -0.0042 -0.0269
 8127TIP3   OH248575   1.968   5.667  13.041  0.0185  0.2890 -0.2867
 8127TIP3    H148576   1.969   5.742  12.982 -2.3683  1.1501  0.6701
 8127TIP3    H248577   1.949   5.705  13.127  0.3042 -1.2771  0.4968
 8128TIP3   OH248578   1.156   3.184  11.290  0.6316  0.3782 -0.0117
 8128TIP3    H148579   1.224   3.199  11.356  1.3866 -0.4922 -0.5614
 8128TIP3    H248580   1.074   3.188  11.339  1.2389 -3.0582  1.6398
 8129TIP3   OH248581   3.763   5.833  12.788 -0.4769  0.0452  0.0762
 8129TIP3    H148582   3.850   5.833  12.749 -0.8595  1.5520 -0.8831
 8129TIP3    H248583   3.706   5.869  12.719 -1.3713  1.7070  1.6008
 8130TIP3   OH248584   1.391   2.601  13.015  0.5339  0.2205  0.6398
 8130TIP3    H148585   1.339   2.641  13.084  2.4655  0.7902  1.8366
 8130TIP3    H248586   1.389   2.665  12.944 -1.1368 -0.2003  0.2506
 8131TIP3   OH248587   4.787   2.613  12.700  0.2581  0.4205 -0.3190
 8131TIP3    H148588   4.878   2.637  12.683 -0.1489  1.0235 -1.8794
 8131TIP3    H248589   4.740   2.696  12.699 -0.3043  0.1259  0.6070
 8132TIP3   OH248590   2.279   2.557  11.470 -0.1514  0.5644  0.0377
 8132TIP3    H148591   2.203   2.616  11.472  0.0327  0.8199 -0.3741
 8132TIP3    H248592   2.264   2.501  11.395 -1.3221 -1.2798  1.5613
 8133TIP3   OH248593   0.475   5.740  11.948  0.1082 -0.2037 -0.4457
 8133TIP3    H148594   0.448   5.648  11.952  0.0564 -0.1631  0.2562
 8133TIP3    H248595   0.561   5.742  11.991  0.8564 -0.1816 -1.8772
 8134TIP3   OH248596   5.389   7.251  19.677  0.4744 -0.0939  0.7212
 8134TIP3    H148597   5.388   7.338  19.639 -1.9028  0.6790  2.3175
 8134TIP3    H248598   5.394   7.191  19.602  1.4790  1.3773 -0.4260
 8135TIP3   OH248599   4.784   7.497  11.148 -0.2437 -0.4503  0.2612
 8135TIP3    H148600   4.870   7.521  11.183  0.0188 -0.0946 -0.6011
 8135TIP3    H248601   4.761   7.416  11.194 -0.4461  0.5983  2.1232
 8136TIP3   OH248602   4.368   4.339  12.449 -0.3460 -0.1068  0.0832
 8136TIP3    H148603   4.402   4.338  12.538 -0.4183  0.7815  0.1355
 8136TIP3    H248604   4.401   4.259  12.409 -0.0748 -0.3671  0.8174
 8137TIP3   OH248605   1.888   7.183  12.956  0.1878  0.0426  0.2262
 8137TIP3    H148606   1.944   7.223  13.022 -0.5667 -1.2913  1.7302
 8137TIP3    H248607   1.838   7.116  13.003  0.6786 -1.9983 -1.9629
 8138TIP3   OH248608   4.671   1.762  11.200  0.4260 -0.1815  0.1817
 8138TIP3    H148609   4.611   1.694  11.230 -0.1748 -0.2353 -1.0817
 8138TIP3    H248610   4.755   1.741  11.241  0.4877 -2.2019 -0.8628
 8139TIP3   OH248611   3.094   0.359  12.833  0.3210  0.1592 -0.2069
 8139TIP3    H148612   3.077   0.410  12.912  1.4524  1.1806 -0.6017
 8139TIP3    H248613   3.008   0.327  12.806 -0.0704 -0.2655  1.4691
 8140TIP3   OH248614   4.904   1.667  12.464 -0.2806  0.2563 -0.0428
 8140TIP3    H148615   4.825   1.671  12.411 -0.8044  0.0230  0.7007
 8140TIP3    H248616   4.885   1.601  12.532  0.4174  0.4435  0.3531
 8141TIP3   OH248617   0.025   3.160  12.382 -0.4681  0.1394 -0.3955
 8141TIP3    H148618   0.068   3.108  12.314  0.0503 -0.4732  0.3848
 8141TIP3    H248619   0.078   3.240  12.387 -0.1907 -0.0438 -0.3580
 8142TIP3   OH248620   6.267   2.817  11.216  0.2828 -0.2902 -0.4674
 8142TIP3    H148621   6.233   2.839  11.129  2.4651  0.1050 -1.2682
 8142TIP3    H248622   6.233   2.729  11.233 -1.1102  0.0778 -1.1897
 8143TIP3   OH248623   6.363   5.944  13.044 -0.0285 -0.3103  0.0835
 8143TIP3    H148624   6.343   6.016  13.104  0.2001  0.5345 -0.8345
 8143TIP3    H248625   6.424   5.889  13.093 -2.6124 -1.6448  2.0163
 8144TIP3   OH248626   6.906   6.215  12.184 -0.3818 -0.1198 -0.5344
 8144TIP3    H148627   6.827   6.248  12.226 -2.0807  0.0218 -3.5462
 8144TIP3    H248628   6.875   6.174  12.103  2.6381 -0.0552 -1.8583
 8145TIP3   OH248629   6.465   2.198  12.144  0.0761  0.3588  0.3141
 8145TIP3    H148630   6.546   2.151  12.163 -0.2897 -0.3508  0.1562
 8145TIP3    H248631   6.454   2.258  12.217  1.2039  1.1016 -0.0979
 8146TIP3   OH248632   5.133   0.824  13.541  0.0459  0.1278  0.4600
 8146TIP3    H148633   5.218   0.867  13.556  0.1670  0.5427 -1.2400
 8146TIP3    H248634   5.155   0.733  13.522  0.1294  0.2473 -0.0338
 8147TIP3   OH248635   4.172   0.256  11.852  0.3954  0.1593  0.5600
 8147TIP3    H148636   4.241   0.209  11.899  0.7915 -1.4600 -1.5264
 8147TIP3    H248637   4.216   0.294  11.776 -0.7854  0.0742 -0.1915
 8148TIP3   OH248638   1.222   0.407  12.186  0.1468 -0.8802  0.4589
 8148TIP3    H148639   1.176   0.419  12.103 -0.6977 -3.1861  0.5061
 8148TIP3    H248640   1.302   0.459  12.177  0.3538 -1.4833 -2.0311
 8149TIP3   OH248641   1.694   3.684  12.741 -0.0130  0.0099  0.1593
 8149TIP3    H148642   1.759   3.631  12.786 -0.5874  0.5423  1.6848
 8149TIP3    H248643   1.613   3.671  12.791 -0.6186  0.8391 -0.5632
 8150TIP3   OH248644   6.941   1.564  11.428 -0.2691 -0.2954  0.0536
 8150TIP3    H148645   6.944   1.654  11.460  0.0695  0.1850 -1.2949
 8150TIP3    H248646   6.923   1.512  11.507 -2.3057  1.0840  0.5676
 8151TIP3   OH248647   2.315   0.018  11.502  0.1174 -0.1997 -0.0045
 8151TIP3    H148648   2.401  -0.003  11.467  0.1681 -4.2597  1.9127
 8151TIP3    H248649   2.256   0.014  11.427  1.4730  3.0227 -1.4103
 8152TIP3   OH248650   3.090   1.391  12.919  0.1581 -0.5037 -0.1585
 8152TIP3    H148651   3.067   1.481  12.943  0.9150 -0.6177  1.0973
 8152TIP3    H248652   3.122   1.352  13.001 -0.2251 -1.9430 -0.6636
 8153TIP3   OH248653   1.734   5.859  12.856  0.1568 -0.2108  0.3103
 8153TIP3    H148654   1.719   5.821  12.770 -0.5013 -1.3932  0.9240
 8153TIP3    H248655   1.647   5.873  12.892  0.4316 -1.1251  1.3701
 8154TIP3   OH248656   3.692   0.264  11.244 -0.0511 -0.2864  0.8324
 8154TIP3    H148657   3.733   0.344  11.213  2.8446 -1.9559 -0.0392
 8154TIP3    H248658   3.710   0.262  11.338  0.3537 -0.1705  0.7574
 8155TIP3   OH248659   0.584   7.011  11.744 -0.1248 -0.0954 -0.1292
 8155TIP3    H148660   0.557   6.984  11.656 -0.3032 -0.5567  0.0643
 8155TIP3    H248661   0.521   6.969  11.802  0.2769 -0.1737  0.2536
 8156TIP3   OH248662   7.451   4.778  11.576  0.4838  0.3534 -0.2044
 8156TIP3    H148663   7.482   4.720  11.647  0.0713  2.0379  1.4234
 8156TIP3    H248664   7.431   4.718  11.504 -1.4020 -1.7745  1.8919
 8157TIP3   OH248665   7.629   1.604  10.821 -0.1501  0.4879  0.0571
 8157TIP3    H148666   7.674   1.522  10.799 -0.3488  0.4225 -0.1054
 8157TIP3    H248667   7.551   1.577  10.868 -0.3782  0.5676 -0.2726
 8158TIP3   OH248668   3.054   2.807  10.954  0.0180 -0.1703  0.6639
 8158TIP3    H148669   3.121   2.867  10.986 -1.1103  1.8754 -0.6201
 8158TIP3    H248670   3.098   2.722  10.952  2.2782  0.9195  0.7374
 8159TIP3   OH248671   7.205   5.895  11.948  0.6501  0.3932 -0.1566
 8159TIP3    H148672   7.188   5.815  11.998  1.1844  0.8475  0.7652
 8159TIP3    H248673   7.196   5.966  12.011  2.5118  0.8957 -0.3827
 8160TIP3   OH248674   5.589   7.489  12.719  0.3247 -0.1637 -0.1810
 8160TIP3    H148675   5.553   7.498  12.807 -1.6833 -1.1322 -0.8198
 8160TIP3    H248676   5.632   7.404  12.719 -0.2127 -0.4457 -0.2667
 8161TIP3   OH248677   0.029   3.435  11.111 -0.3373 -0.1199 -0.1062
 8161TIP3    H148678   0.047   3.499  11.181  1.5260  0.2748 -0.8756
 8161TIP3    H248679  -0.041   3.475  11.059 -0.8282  0.1842  0.7618
 8162TIP3   OH248680   0.242   6.204  11.260 -0.1103  0.0171  0.2487
 8162TIP3    H148681   0.224   6.127  11.207  2.1859 -0.5262  0.1348
 8162TIP3    H248682   0.178   6.200  11.331 -1.3749 -0.8182 -0.8967
 8163TIP3   OH248683   0.271   1.457  12.530 -0.2321 -0.2446  0.0434
 8163TIP3    H148684   0.210   1.385  12.546 -2.4283  1.6235  0.6159
 8163TIP3    H248685   0.255   1.482  12.439 -1.5129  1.2608  0.6538
 8164TIP3   OH248686   0.430   0.652  12.942  0.4590  0.8703 -0.1126
 8164TIP3    H148687   0.435   0.720  13.009  0.6961 -1.2698  2.1819
 8164TIP3    H248688   0.510   0.662  12.892 -0.2000  3.1693 -0.8373
 8165TIP3   OH248689   6.001   0.457  12.622 -0.3077 -0.4144 -0.1884
 8165TIP3    H148690   6.021   0.484  12.712 -0.5103 -3.1432  0.8018
 8165TIP3    H248691   5.912   0.423  12.627  0.2797 -2.2378 -0.9246
 8166TIP3   OH248692   3.144   7.539  11.366 -0.1466 -0.5998  0.4326
 8166TIP3    H148693   3.067   7.583  11.402 -0.6932 -1.4352  0.3113
 8166TIP3    H248694   3.141   7.558  11.272  0.6866  0.6886  0.6492
 8167TIP3   OH248695   1.424   5.322  12.382  0.3603 -0.1060  0.4185
 8167TIP3    H148696   1.437   5.268  12.304  1.5006 -1.0162  1.1895
 8167TIP3    H248697   1.487   5.393  12.373  0.3537 -0.1003  0.4168
 8168TIP3   OH248698   0.176   4.988  13.862  0.2260 -0.2942 -0.2847
 8168TIP3    H148699   0.138   5.038  13.789 -0.4012  0.3081  0.4345
 8168TIP3    H248700   0.260   4.957  13.828  0.5313  1.0543 -0.8412
 8169TIP3   OH248701   3.870   5.240  11.307  0.4958 -0.1102 -0.1946
 8169TIP3    H148702   3.890   5.333  11.319  0.9496 -0.2858  0.5132
 8169TIP3    H248703   3.788   5.226  11.354 -0.1263  0.1343 -1.1701
 8170TIP3   OH248704   2.925   0.963  12.501  0.4335  0.8704 -0.3162
 8170TIP3    H148705   2.943   1.023  12.573  0.1733  1.4072 -0.6956
 8170TIP3    H248706   2.970   0.882  12.526  1.0465  1.3185  0.0528
 8171TIP3   OH248707   3.747   1.795  12.899 -0.2352 -0.0500 -0.1204
 8171TIP3    H148708   3.772   1.719  12.951  0.7521  0.2360 -0.1591
 8171TIP3    H248709   3.662   1.822  12.935 -0.6737 -1.2520 -0.2167
 8172TIP3   OH248710   3.513   3.257  10.976 -0.1061 -0.6146  0.3590
 8172TIP3    H148711   3.579   3.322  11.001  0.8939 -1.7095  0.6354
 8172TIP3    H248712   3.533   3.181  11.030 -0.9825 -1.3151 -0.2866
 8173TIP3   OH248713   3.934   0.546  12.185  0.4039 -0.3195 -0.6584
 8173TIP3    H148714   3.945   0.509  12.098  0.8331  1.6060 -1.4712
 8173TIP3    H248715   4.023   0.571  12.212  0.0322  1.1618 -0.6801
 8174TIP3   OH248716   4.385   1.149  11.041 -0.0219 -0.5226 -0.7619
 8174TIP3    H148717   4.310   1.143  10.981 -0.7778  1.3511 -0.0673
 8174TIP3    H248718   4.353   1.113  11.123  0.3091 -1.0379 -0.8535
 8175TIP3   OH248719   6.745   4.624  12.683 -0.1762 -0.2661 -0.2263
 8175TIP3    H148720   6.821   4.587  12.638  0.3927 -0.2719  0.7232
 8175TIP3    H248721   6.768   4.622  12.776 -0.8735  0.7965 -0.0085
 8176TIP3   OH248722   0.596   3.564  11.993  0.4555  0.4236 -0.4832
 8176TIP3    H148723   0.624   3.629  12.058 -1.2570  0.7202 -0.0027
 8176TIP3    H248724   0.648   3.486  12.013 -0.2924  0.3847  1.5059
 8177TIP3   OH248725   7.398   5.279  11.688  0.0470  0.3898  0.2700
 8177TIP3    H148726   7.429   5.188  11.690 -3.2128 -0.9026 -1.2619
 8177TIP3    H248727   7.403   5.304  11.596  0.0753  1.4605  0.5575
 8178TIP3   OH248728   0.637   0.222  12.846 -0.5674  0.1924  0.4191
 8178TIP3    H148729   0.666   0.310  12.822 -0.8418  0.0358 -0.5016
 8178TIP3    H248730   0.717   0.179  12.876 -0.0958  0.2018 -0.8031
 8179TIP3   OH248731   3.652   1.995  12.436 -0.0813 -0.1679 -0.6370
 8179TIP3    H148732   3.600   1.941  12.376  0.7204  1.5403 -3.0506
 8179TIP3    H248733   3.740   1.996  12.397  0.6240  0.6059  0.8826
 8180TIP3   OH248734   5.081   4.779  12.200  0.1490 -0.0258 -0.3734
 8180TIP3    H148735   5.069   4.704  12.258 -0.0255  0.8788  0.8001
 8180TIP3    H248736   5.173   4.804  12.210  0.3302 -0.3669 -1.1287
 8181TIP3   OH248737   0.361   5.275  11.694  1.2428  0.3819 -0.1968
 8181TIP3    H148738   0.420   5.336  11.650  3.1608  0.1391  1.8203
 8181TIP3    H248739   0.377   5.191  11.650  1.3909  0.6014 -0.5643
 8182TIP3   OH248740   7.467   2.719  11.532 -0.0602 -0.3873 -0.0901
 8182TIP3    H148741   7.451   2.687  11.443 -0.7951  0.4902 -0.2883
 8182TIP3    H248742   7.438   2.810  11.530  2.0320  0.3523  0.4406
 8183TIP3   OH248743   5.136   7.612  11.661 -0.1068  0.1458  0.2441
 8183TIP3    H148744   5.081   7.581  11.589  1.4011 -1.8766 -0.1346
 8183TIP3    H248745   5.119   7.550  11.732 -0.0766  0.9285  0.9480
 8184TIP3   OH248746   0.331   0.624  11.110 -0.4236  0.1732 -0.3911
 8184TIP3    H148747   0.401   0.559  11.098  0.0661  0.4358  0.8581
 8184TIP3    H248748   0.274   0.611  11.035  0.7904 -0.2721 -1.2750
 8185TIP3   OH248749   1.202   7.342  12.982 -0.3988  0.1352  0.5740
 8185TIP3    H148750   1.133   7.400  13.015 -0.8863  0.9338 -1.6868
 8185TIP3    H248751   1.160   7.289  12.915  0.5140 -1.5432  1.2459
 8186TIP3   OH248752   0.509   3.587  13.738 -0.0791  0.0303 -0.4073
 8186TIP3    H148753   0.604   3.601  13.732  0.0341 -0.5709 -0.0698
 8186TIP3    H248754   0.499   3.514  13.799 -0.7095 -0.5012 -1.1255
 8187TIP3   OH248755   7.282   5.308  12.247  0.6102  0.6730  0.1544
 8187TIP3    H148756   7.212   5.370  12.225  0.8045  1.1250  0.7924
 8187TIP3    H248757   7.317   5.340  12.330  2.5683  1.3024 -0.8622
 8188TIP3   OH248758   0.046   5.050  13.263  0.5835  0.0548 -0.5844
 8188TIP3    H148759   0.112   5.106  13.304  0.7687 -0.8663  0.4333
 8188TIP3    H248760  -0.026   5.109  13.243 -0.1252  0.3806  2.4281
 8189TIP3   OH248761   5.118   6.556  11.506 -0.2784  1.0181  0.2026
 8189TIP3    H148762   5.061   6.633  11.504 -1.0273  0.5090  0.8296
 8189TIP3    H248763   5.094   6.512  11.588  1.5346  1.1570  0.8477
 8190TIP3   OH248764   3.685   4.375  11.617  0.2621 -0.2966 -0.3445
 8190TIP3    H148765   3.686   4.374  11.521  0.7532 -0.0397 -0.3498
 8190TIP3    H248766   3.594   4.388  11.641  0.0284 -1.0599 -0.7653
 8191TIP3   OH248767   4.119   7.667  12.386 -0.0715  0.4424  0.1367
 8191TIP3    H148768   4.173   7.616  12.326 -0.1524 -1.5101  1.6234
 8191TIP3    H248769   4.029   7.646  12.360 -0.1215  1.4021 -0.4913
 8192TIP3   OH248770   7.174   6.624  13.313  0.0513  0.8081  0.1534
 8192TIP3    H148771   7.095   6.678  13.315 -0.6699 -0.2148  0.0172
 8192TIP3    H248772   7.205   6.623  13.403 -0.1788  1.0986  0.2364
 8193TIP3   OH248773   1.154   5.577  10.686  0.3001  0.1542  0.3070
 8193TIP3    H148774   1.128   5.506  10.745  1.3157 -0.7474 -0.3060
 8193TIP3    H248775   1.093   5.572  10.613  0.8794 -0.6381 -0.1358
 8194TIP3   OH248776   4.140   1.759  12.074 -0.0290 -0.1430  0.1682
 8194TIP3    H148777   4.211   1.698  12.057 -0.7088 -1.1554  0.8531
 8194TIP3    H248778   4.060   1.709  12.055 -0.5790  0.7657  0.0203
 8195TIP3   OH248779   6.841   2.871  12.941 -0.1153 -0.2729  0.4399
 8195TIP3    H148780   6.896   2.947  12.922 -0.1708 -0.5988 -1.1052
 8195TIP3    H248781   6.752   2.902  12.931 -0.1358 -0.5628 -0.2965
 8196TIP3   OH248782   4.506   4.687  13.845 -0.3375  0.2072  0.0912
 8196TIP3    H148783   4.563   4.615  13.870 -1.3769 -1.1399 -1.2687
 8196TIP3    H248784   4.429   4.645  13.807 -0.4999  2.0397 -1.7620
 8197TIP3   OH248785   4.013   3.588  12.973 -1.0017 -0.5507 -0.3555
 8197TIP3    H148786   3.933   3.558  13.017 -1.8936  1.5510 -0.4264
 8197TIP3    H248787   3.981   3.637  12.898  0.2861  1.3182  0.2592
 8198TIP3   OH248788   1.682   2.615  13.011 -0.0858 -0.5569 -0.4360
 8198TIP3    H148789   1.681   2.653  12.923 -0.0688  0.6648  0.0685
 8198TIP3    H248790   1.591   2.592  13.029 -0.7728  2.4929  0.5516
 8199TIP3   OH248791   2.874   0.082  11.912 -0.4261  0.5978  0.9344
 8199TIP3    H148792   2.805   0.054  11.851  0.6255  0.5694 -0.2924
 8199TIP3    H248793   2.830   0.088  11.996 -1.7381 -0.2507  0.3520
 8200TIP3   OH248794   5.544   6.829  11.833 -0.9018 -0.2352 -0.3246
 8200TIP3    H148795   5.455   6.805  11.807 -1.1927 -0.5345  0.9085
 8200TIP3    H248796   5.566   6.768  11.903 -1.0775  2.0779  1.8677
 8201TIP3   OH248797   3.988   0.895  13.414 -0.3442 -0.3744 -0.2730
 8201TIP3    H148798   4.067   0.853  13.449 -0.2857 -0.5459 -0.6106
 8201TIP3    H248799   4.005   0.989  13.421 -0.3032 -0.4084  0.0926
 8202TIP3   OH248800   6.736   1.480  12.041  0.1063  0.2373  0.0104
 8202TIP3    H148801   6.702   1.481  11.952 -0.5990 -0.7412  0.2501
 8202TIP3    H248802   6.683   1.414  12.086  0.9393  0.1939  0.9577
 8203TIP3   OH248803   4.190   3.888  10.950 -0.3061  0.2983  0.0278
 8203TIP3    H148804   4.102   3.851  10.962 -0.4167  0.1182 -1.1528
 8203TIP3    H248805   4.174   3.976  10.916 -0.0261  0.2965 -0.1081
 8204TIP3   OH248806   0.343   3.568  10.909  0.2085 -0.2252 -0.6872
 8204TIP3    H148807   0.434   3.547  10.892  0.2863  0.1197 -0.6943
 8204TIP3    H248808   0.342   3.604  10.998  0.1929  0.4960 -0.9770
 8205TIP3   OH248809   2.505   2.417  10.928 -0.0417  0.5189  0.4631
 8205TIP3    H148810   2.582   2.422  10.872  1.8924 -0.4926  2.8115
 8205TIP3    H248811   2.464   2.334  10.906 -1.6407  1.8480 -2.0518
 8206TIP3   OH248812   4.158   1.350  12.590  0.0870 -0.0469  0.7336
 8206TIP3    H148813   4.186   1.268  12.631 -2.2582 -1.5284 -0.4152
 8206TIP3    H248814   4.231   1.410  12.604  2.0638 -2.4298  1.2825
 8207TIP3   OH248815   3.753   0.065  11.064 -0.5910 -0.1730 -0.4072
 8207TIP3    H148816   3.784   0.139  11.117  1.6869  0.3823 -2.3230
 8207TIP3    H248817   3.701   0.106  10.994 -1.7737 -0.6967  0.1385
 8208TIP3   OH248818   7.194   5.465  13.539  0.4295  0.8704 -0.7343
 8208TIP3    H148819   7.100   5.461  13.520  0.0156  1.7443  0.9917
 8208TIP3    H248820   7.206   5.546  13.588  1.7310 -0.2384  0.9024
 8209TIP3   OH248821   4.580   7.204  13.204  0.0988 -0.2050 -0.0179
 8209TIP3    H148822   4.490   7.176  13.220  0.4174 -1.0292  0.3333
 8209TIP3    H248823   4.602   7.258  13.280  0.2817 -0.9215  0.4394
 8210TIP3   OH248824   2.358   7.451  13.421  0.4607  0.0029  0.2832
 8210TIP3    H148825   2.428   7.428  13.483  0.4342  2.1093  1.1969
 8210TIP3    H248826   2.404   7.494  13.348  0.2473  0.2687  0.3024
 8211TIP3   OH248827   1.431   5.026  13.678 -0.4188 -0.1419  0.0470
 8211TIP3    H148828   1.348   5.071  13.696  0.5382  1.5223  0.5484
 8211TIP3    H248829   1.494   5.068  13.737  0.6490 -1.8603  0.1863
 8212TIP3   OH248830   2.700   5.611  12.179  0.0157  0.0483 -0.1167
 8212TIP3    H148831   2.748   5.672  12.235 -0.9308  0.2162  0.5252
 8212TIP3    H248832   2.769   5.563  12.133  0.7916  0.9107  0.1006
 8213TIP3   OH248833   4.555   0.088  10.909 -0.1260 -0.3799  0.1920
 8213TIP3    H148834   4.519  -0.000  10.921  0.6662 -0.9686 -1.4788
 8213TIP3    H248835   4.649   0.077  10.917  0.1354 -0.0742 -1.9029
 8214TIP3   OH248836   2.460   3.314  12.717 -0.1421  0.0221  0.5552
 8214TIP3    H148837   2.484   3.400  12.683  3.1910 -0.0319  2.3715
 8214TIP3    H248838   2.464   3.257  12.640  0.5149  1.0048 -0.1732
 8215TIP3   OH248839   4.468   2.745  12.226  0.1462 -0.5226 -0.2305
 8215TIP3    H148840   4.467   2.652  12.203 -1.2120 -0.2796 -1.2785
 8215TIP3    H248841   4.468   2.791  12.143 -0.5576  0.4204  0.2715
 8216TIP3   OH248842   2.593   4.978  11.634  0.3655 -0.4647 -0.0991
 8216TIP3    H148843   2.593   4.989  11.539  1.1296  0.5037  0.0011
 8216TIP3    H248844   2.591   4.883  11.646 -0.3346 -0.5934 -1.0692
 8217TIP3   OH248845   0.121   3.686  12.549  0.5060 -0.4646 -0.0970
 8217TIP3    H148846   0.181   3.750  12.510  0.6932  0.0399  0.9816
 8217TIP3    H248847   0.051   3.739  12.587  1.3383 -0.7472  1.9801
 8218TIP3   OH248848   5.054   0.888  13.276  0.0308 -0.1929  0.8835
 8218TIP3    H148849   5.149   0.900  13.267  0.4732 -3.8022 -1.7307
 8218TIP3    H248850   5.044   0.826  13.348 -0.4797  0.7555  1.6567
 8219TIP3   OH248851   4.236   4.839  11.375 -0.7660 -0.1031 -0.2527
 8219TIP3    H148852   4.191   4.888  11.444  1.3317 -0.4233  1.4591
 8219TIP3    H248853   4.224   4.748  11.399  0.8689 -0.1919  0.3456
 8220TIP3   OH248854   7.407   2.005  13.144  0.1956  0.5817  0.2429
 8220TIP3    H148855   7.362   2.055  13.212  2.3198  1.5655  1.0272
 8220TIP3    H248856   7.444   1.929  13.190  0.8935  0.7751  0.0147
 8221TIP3   OH248857   6.938   0.008  12.739 -0.3198  0.0296 -0.3811
 8221TIP3    H148858   7.014  -0.047  12.756  0.1523  0.9553  0.6397
 8221TIP3    H248859   6.953   0.086  12.792 -0.5196  1.5611 -2.4900
 8222TIP3   OH248860   6.739   1.209  11.908 -0.2668 -0.4617 -0.1271
 8222TIP3    H148861   6.707   1.292  11.872  0.4984  0.4525  1.2057
 8222TIP3    H248862   6.664   1.172  11.954 -0.9766 -1.1638 -1.7933
 8223TIP3   OH248863   0.558   7.008  12.702  0.0874 -0.2867 -0.4307
 8223TIP3    H148864   0.576   7.053  12.784  1.7035 -0.8772 -0.4308
 8223TIP3    H248865   0.536   6.918  12.728 -0.2680 -0.2510 -0.5973
 8224TIP3   OH248866   0.842   6.090  13.146 -0.2037  0.1254 -0.2726
 8224TIP3    H148867   0.809   6.067  13.232 -0.2868  1.8096  0.1836
 8224TIP3    H248868   0.938   6.089  13.156 -0.1575 -1.2745 -0.6330
 8225TIP3   OH248869   3.547   4.696  12.679  0.0941 -0.3846  0.1998
 8225TIP3    H148870   3.457   4.704  12.646  0.0533 -1.9240 -0.1291
 8225TIP3    H248871   3.548   4.750  12.758 -1.4455 -1.1834  0.8148
 8226TIP3   OH248872   1.491   0.782  13.684  0.7754 -0.2593  0.2639
 8226TIP3    H148873   1.585   0.783  13.667  0.5593  0.5387 -1.0380
 8226TIP3    H248874   1.458   0.707  13.633  0.6680 -0.4165  0.5568
 8227TIP3   OH248875   5.900   4.658  12.202  0.1930  0.5443  0.1908
 8227TIP3    H148876   5.846   4.635  12.278 -2.0475 -0.5090 -1.5878
 8227TIP3    H248877   5.899   4.579  12.147  1.2953  1.4392 -1.1978
 8228TIP3   OH248878   5.394   6.597  12.065 -0.3158 -0.5882  0.9105
 8228TIP3    H148879   5.408   6.517  12.115  1.8938 -1.6190 -1.1401
 8228TIP3    H248880   5.299   6.603  12.054 -0.5136 -3.3212  0.5596
 8229TIP3   OH248881   4.078   6.411  11.540  0.1883 -0.4926 -0.2574
 8229TIP3    H148882   4.117   6.494  11.514  1.1904  0.5263  3.7968
 8229TIP3    H248883   4.000   6.436  11.590  1.6053 -1.7343  2.8095
 8230TIP3   OH248884   1.525   2.643  12.540 -0.1726 -0.2006  0.0372
 8230TIP3    H148885   1.570   2.642  12.624  1.1357  2.5880 -0.5256
 8230TIP3    H248886   1.432   2.652  12.563  0.2119  1.0846  1.1870
 8231TIP3   OH248887   4.774   4.533  10.671 -0.1655 -0.3270 -0.0939
 8231TIP3    H148888   4.861   4.544  10.631 -0.2574  0.3532 -0.1277
 8231TIP3    H248889   4.764   4.610  10.727 -0.3426 -0.9055  0.6882
 8232TIP3   OH248890   0.115   2.023  11.399  0.3079 -0.1554 -0.2730
 8232TIP3    H148891   0.028   2.007  11.361  0.9152 -2.4742 -0.8929
 8232TIP3    H248892   0.099   2.032  11.493 -0.6216 -0.4962 -0.3872
 8233TIP3   OH248893   5.070   0.019  12.470 -0.3796  0.3141  0.3623
 8233TIP3    H148894   5.109  -0.038  12.536 -0.4794  1.4239  1.4101
 8233TIP3    H248895   4.997   0.063  12.515  1.0081  2.9065  0.2991
 8234TIP3   OH248896   1.666   0.071  11.826  0.3158 -0.0253  0.1130
 8234TIP3    H148897   1.620   0.125  11.761 -0.6154  1.1508  1.6938
 8234TIP3    H248898   1.611  -0.007  11.835  1.0609 -0.7526 -1.3299
 8235TIP3   OH248899   6.009   3.173  12.462  0.5086  0.0499 -0.1528
 8235TIP3    H148900   6.066   3.126  12.523  0.6568  0.8036  0.3054
 8235TIP3    H248901   5.920   3.147  12.488  0.5940 -0.1312 -0.0353
 8236TIP3   OH248902   0.149   4.169  13.059 -0.2206 -0.5403  0.0080
 8236TIP3    H148903   0.146   4.117  13.139 -0.1634  0.3662  0.6103
 8236TIP3    H248904   0.067   4.148  13.014 -1.0669  0.2361  1.1331
 8237TIP3   OH248905   4.646   0.827  12.986 -0.4063  0.0940 -0.3670
 8237TIP3    H148906   4.726   0.875  13.005  0.2783 -1.1267 -0.1084
 8237TIP3    H248907   4.576   0.884  13.019  0.4218  0.5950  0.5659
 8238TIP3   OH248908   2.414   4.970  11.189 -0.1218 -0.0761  0.1340
 8238TIP3    H148909   2.425   5.011  11.104  3.8875 -0.0693  0.4284
 8238TIP3    H248910   2.423   4.876  11.172  1.8057 -0.0210  0.5242
 8239TIP3   OH248911   6.343   7.023  11.294  0.0251  0.0694 -0.2887
 8239TIP3    H148912   6.285   6.960  11.250  0.2244 -0.3123 -0.0076
 8239TIP3    H248913   6.326   7.011  11.387  1.3849 -0.8716 -0.1339
 8240TIP3   OH248914   2.768   7.679  11.122  0.0460  0.0256  0.4523
 8240TIP3    H148915   2.802   7.666  11.033  2.5373  2.1881  0.9815
 8240TIP3    H248916   2.808   7.608  11.173  1.1037  0.5386  0.3794
 8241TIP3   OH248917   1.736   2.012  12.901 -0.1987  0.1060 -0.4467
 8241TIP3    H148918   1.707   2.096  12.864 -2.5291 -0.4842 -0.1229
 8241TIP3    H248919   1.785   2.036  12.980 -1.8918  1.1622  0.3315
 8242TIP3   OH248920   2.687   2.120  10.878 -0.0949  0.0139  0.0639
 8242TIP3    H148921   2.661   2.083  10.963  0.2013 -0.0520  0.1251
 8242TIP3    H248922   2.778   2.148  10.891  0.2964 -0.9409 -0.5504
 8243TIP3   OH248923   2.591   0.244  10.808  0.0520  0.5813  0.1826
 8243TIP3    H148924   2.542   0.189  10.870 -2.3106  0.6630 -1.4685
 8243TIP3    H248925   2.659   0.187  10.773  0.2040 -0.0301  1.4141
 8244TIP3   OH248926   5.500   0.151  12.503  0.0034  0.0568 -0.1185
 8244TIP3    H148927   5.440   0.135  12.576 -1.0001  0.0543 -0.9195
 8244TIP3    H248928   5.443   0.171  12.429  0.9727 -0.4968 -1.0468
 8245TIP3   OH248929   1.524   2.870  11.968 -0.2146 -0.2510  0.4037
 8245TIP3    H148930   1.614   2.873  11.937  0.2824 -1.9453  1.5076
 8245TIP3    H248931   1.510   2.954  12.011  0.2659  0.6716 -1.1694
 8246TIP3   OH248932   3.196   1.967  12.424 -0.2897 -0.5724 -0.7729
 8246TIP3    H148933   3.279   1.990  12.466 -1.4858  2.1562  0.3139
 8246TIP3    H248934   3.156   1.903  12.482 -0.3677  0.5670  0.4648
 8247TIP3   OH248935   3.840   3.083  11.976  0.2060  0.1939 -0.0305
 8247TIP3    H148936   3.877   3.161  11.935 -0.1159 -0.4422 -1.6117
 8247TIP3    H248937   3.768   3.116  12.031  0.5481  1.0585 -0.0929
 8248TIP3   OH248938   3.570   7.107  11.075  0.4438 -0.4310 -0.5406
 8248TIP3    H148939   3.500   7.081  11.136  0.4201 -1.4560 -0.9836
 8248TIP3    H248940   3.644   7.050  11.098  0.7013 -0.2535 -0.9286
 8249TIP3   OH248941   0.989   1.663  11.532  0.5504  0.7072 -0.1839
 8249TIP3    H148942   1.031   1.582  11.558 -1.2730  0.1873  1.3699
 8249TIP3    H248943   0.938   1.640  11.454 -1.0599 -0.0539  1.0401
 8250TIP3   OH248944   7.531   4.754  12.633  0.4602 -0.0097 -0.8335
 8250TIP3    H148945   7.598   4.697  12.597  1.5956  0.3587  0.5730
 8250TIP3    H248946   7.514   4.818  12.565 -0.0366 -1.3458 -2.0091
 8251TIP3   OH248947   1.977   1.528  12.062  0.2464 -0.3146 -0.5768
 8251TIP3    H148948   1.940   1.606  12.103  0.2368 -0.3486 -0.5201
 8251TIP3    H248949   2.038   1.493  12.128 -2.4948 -2.4955  1.0568
 8252TIP3   OH248950   4.786   1.143  11.072 -0.5603  0.0715 -0.5807
 8252TIP3    H148951   4.771   1.237  11.080  0.8049  0.1838  1.1827
 8252TIP3    H248952   4.699   1.106  11.059 -1.5084  1.3239  1.6920
 8253TIP3   OH248953   5.863   3.998  12.868 -0.7293  0.7240  0.6721
 8253TIP3    H148954   5.793   4.031  12.811 -2.1375 -0.9748  1.3060
 8253TIP3    H248955   5.834   3.910  12.892  1.9472 -0.2504  0.5388
 8254TIP3   OH248956   5.146   1.826  11.981  0.1241  0.4515  0.4246
 8254TIP3    H148957   5.203   1.750  11.989  1.1084  1.2327  1.0649
 8254TIP3    H248958   5.177   1.886  12.049 -1.4582  0.9059  0.8040
 8255TIP3   OH248959   7.256   5.298  12.731  0.1079  0.1580  0.1239
 8255TIP3    H148960   7.315   5.347  12.675  1.0583 -1.5341 -0.4309
 8255TIP3    H248961   7.221   5.362  12.792  2.7738  1.1727  0.6892
 8256TIP3   OH248962   3.281   0.169  12.890  0.7675  0.2900  0.5922
 8256TIP3    H148963   3.230   0.121  12.955  1.1184  0.4783  1.0145
 8256TIP3    H248964   3.224   0.240  12.861  0.1155 -0.5627 -0.2887
 8257TIP3   OH248965   0.644   4.058  12.232 -0.2855 -0.5587  0.3293
 8257TIP3    H148966   0.681   4.147  12.231 -0.5111 -0.4506  1.3477
 8257TIP3    H248967   0.597   4.052  12.315 -0.1437 -1.6862  0.3370
 8258TIP3   OH248968   1.578   4.286  10.618  0.1240 -0.0062  0.0483
 8258TIP3    H148969   1.635   4.235  10.676  2.2353  1.2525 -0.7984
 8258TIP3    H248970   1.636   4.315  10.548 -2.0849 -0.4793 -2.0943
 8259TIP3   OH248971   4.492   5.903  12.952  0.5273  0.1866 -0.1749
 8259TIP3    H148972   4.555   5.884  13.022 -2.5639 -1.7275  2.3785
 8259TIP3    H248973   4.453   5.987  12.977  0.2424  0.0705 -0.2194
 8260TIP3   OH248974   1.746   4.868  11.716  0.1661  1.0018  0.0249
 8260TIP3    H148975   1.801   4.945  11.731 -0.6653  1.5576  0.3228
 8260TIP3    H248976   1.762   4.812  11.793  0.3895  1.1057  0.0556
 8261TIP3   OH248977   0.292   3.159  13.731  0.4176  0.4662  0.0422
 8261TIP3    H148978   0.261   3.070  13.749 -0.4965  1.1646  2.1352
 8261TIP3    H248979   0.320   3.155  13.639 -0.7237 -1.6533 -0.2976
 8262TIP3   OH248980   4.656   7.340  12.334 -0.2518  0.2177 -0.3898
 8262TIP3    H148981   4.692   7.304  12.253 -1.8980  0.0716 -1.1016
 8262TIP3    H248982   4.600   7.270  12.369  0.6839  0.1562  1.0720
 8263TIP3   OH248983   7.365   5.285  11.418 -0.1395  0.1555  0.0888
 8263TIP3    H148984   7.451   5.286  11.376  0.4957 -1.3440  1.2300
 8263TIP3    H248985   7.343   5.191  11.424 -0.4704  0.3302  2.4822
 8264TIP3   OH248986   5.352   3.435  12.819  0.3653  0.1558  0.1224
 8264TIP3    H148987   5.346   3.376  12.744  0.5723 -1.1121  1.0600
 8264TIP3    H248988   5.283   3.405  12.878  0.8799  0.4387  0.8868
 8265TIP3   OH248989   5.543   7.248  11.246 -0.4339 -0.0801 -0.0569
 8265TIP3    H148990   5.613   7.299  11.287 -0.5879  0.2139 -0.1541
 8265TIP3    H248991   5.586   7.168  11.215  0.4361  1.2042 -2.4166
 8266TIP3   OH248992   4.795   3.209  11.581 -0.2876  0.5915 -0.4247
 8266TIP3    H148993   4.761   3.169  11.501 -1.8162  1.3881 -0.2106
 8266TIP3    H248994   4.731   3.186  11.648  0.9093  0.0425  0.5782
 8267TIP3   OH248995   5.576   0.023  11.333 -0.2004 -0.6068  0.5784
 8267TIP3    H148996   5.495   0.002  11.379  0.3925  0.3761  2.1444
 8267TIP3    H248997   5.584   0.118  11.342  1.5882 -0.7972  1.2714
 8268TIP3   OH248998   2.899   2.825  12.032 -0.5436 -0.0153 -0.3407
 8268TIP3    H148999   2.914   2.918  12.016 -0.9614  0.4155  1.4923
 8268TIP3    H249000   2.987   2.787  12.034 -0.3209  0.4963 -0.2761
 8269TIP3   OH249001   3.553   2.873  12.008  0.7236 -0.2800 -0.0988
 8269TIP3    H149002   3.528   2.923  12.086  4.2015  0.1900  0.8928
 8269TIP3    H249003   3.531   2.929  11.934 -1.0128  0.0227  0.6018
 8270TIP3   OH249004   1.705   1.967  12.286 -0.2336 -0.0231 -0.1472
 8270TIP3    H149005   1.685   1.939  12.375 -1.8455  0.1306 -0.4222
 8270TIP3    H249006   1.720   2.061  12.292 -0.0372 -0.0652  0.0070
 8271TIP3   OH249007   1.811   0.969  11.571 -0.3801 -0.0811  0.0126
 8271TIP3    H149008   1.878   1.037  11.564 -1.3873  0.9093 -0.3615
 8271TIP3    H249009   1.782   0.973  11.663 -0.9118  0.4766 -0.1736
 8272TIP3   OH249010   0.748   2.945  12.569 -0.4769  0.4538  0.1591
 8272TIP3    H149011   0.799   3.004  12.512 -0.9488  1.8100  1.0857
 8272TIP3    H249012   0.786   2.957  12.656 -0.4562 -0.7953  0.3417
 8273TIP3   OH249013   1.592   2.068  11.587 -0.1894  0.3659  0.1529
 8273TIP3    H149014   1.652   2.043  11.517 -0.8994  0.1175 -0.3864
 8273TIP3    H249015   1.543   2.142  11.551 -0.3353  0.4456  0.5149
 8274TIP3   OH249016   6.946   6.734  12.463 -0.0586  0.1066  0.1913
 8274TIP3    H149017   6.974   6.804  12.522 -0.5254  1.2969 -0.9449
 8274TIP3    H249018   7.026   6.711  12.414 -0.4825  2.0115 -1.5482
 8275TIP3   OH249019   3.654   6.238  12.566 -0.4071 -0.0377  0.0281
 8275TIP3    H149020   3.662   6.143  12.574  0.4583  0.1170  1.1185
 8275TIP3    H249021   3.574   6.251  12.514 -0.2547 -1.3597 -0.5692
 8276TIP3   OH249022   7.475   0.801  11.255 -0.3308  0.1470  0.2117
 8276TIP3    H149023   7.450   0.843  11.338 -0.8428 -0.7524  0.5267
 8276TIP3    H249024   7.421   0.723  11.251  0.4212 -0.3460 -0.4950
 8277TIP3   OH249025   5.174   2.708  11.552 -0.2962 -0.0681 -0.0015
 8277TIP3    H149026   5.181   2.654  11.630  2.4831  0.0732 -0.0627
 8277TIP3    H249027   5.167   2.798  11.585  1.1476  0.0153  0.1259
 8278TIP3   OH249028   0.553   3.153  11.344 -0.5551 -0.1036 -0.0402
 8278TIP3    H149029   0.514   3.129  11.260 -0.1588  2.2386 -0.9674
 8278TIP3    H249030   0.536   3.247  11.352  0.4214 -0.0522  1.9743
 8279TIP3   OH249031   0.939   0.498  12.972  0.4190 -0.1699 -0.4616
 8279TIP3    H149032   0.917   0.409  12.998  0.7308 -0.3930 -0.9366
 8279TIP3    H249033   0.996   0.531  13.042 -0.7174  0.1161  0.3536
 8280TIP3   OH249034   6.267   2.238  11.850 -0.0486  0.8157 -0.2087
 8280TIP3    H149035   6.348   2.288  11.863 -0.4288  1.4851 -0.3857
 8280TIP3    H249036   6.229   2.273  11.770 -0.3228  0.2334 -0.3409
 8281TIP3   OH249037   4.091   4.574  12.451  0.6543 -0.6494 -0.1219
 8281TIP3    H149038   4.168   4.565  12.507  0.6563 -0.0135 -0.0124
 8281TIP3    H249039   4.031   4.628  12.503  1.8568  2.6761 -1.8957
 8282TIP3   OH249040   6.807   7.623  11.909 -0.2619 -0.1852  0.0343
 8282TIP3    H149041   6.796   7.711  11.874  3.1203  0.8879  1.2575
 8282TIP3    H249042   6.745   7.569  11.860 -0.2840  2.3276 -2.9487
 8283TIP3   OH249043   0.628   3.739  11.762  0.4737 -0.5403 -0.3514
 8283TIP3    H149044   0.630   3.672  11.830  2.2059  0.5605  0.7307
 8283TIP3    H249045   0.714   3.735  11.722  0.8691  1.4832  0.2055
 8284TIP3   OH249046   0.691   1.374  12.786  0.4449  0.4213 -1.0317
 8284TIP3    H149047   0.709   1.467  12.793  1.2204  0.3164 -1.5077
 8284TIP3    H249048   0.598   1.366  12.809 -0.0464  1.5107 -2.4739
 8285TIP3   OH249049   4.045   5.434  13.300 -0.6263 -0.3520  0.0036
 8285TIP3    H149050   3.964   5.476  13.326  0.3710  2.7234 -1.4500
 8285TIP3    H249051   4.097   5.430  13.381 -1.1333  0.2712  0.3666
 8286TIP3   OH249052   2.565   6.101  11.229  0.2503  0.0689 -0.0783
 8286TIP3    H149053   2.472   6.121  11.232  0.6720  2.3921 -0.5527
 8286TIP3    H249054   2.608   6.185  11.244  2.2683 -0.6229 -1.5210
 8287TIP3   OH249055   4.306   5.452  13.147 -0.4554 -0.2658  0.1408
 8287TIP3    H149056   4.250   5.429  13.221 -0.8230 -2.5134 -0.7478
 8287TIP3    H249057   4.381   5.496  13.186 -1.1439 -0.4656  1.7391
 8288TIP3   OH249058   0.225   4.275  12.576  0.3565 -0.0837  0.4895
 8288TIP3    H149059   0.170   4.315  12.644 -1.0504 -1.4830  0.2277
 8288TIP3    H249060   0.164   4.221  12.525  1.6950 -0.3902 -0.8504
 8289TIP3   OH249061   3.573   7.296  13.435  0.2674 -0.0805 -0.7102
 8289TIP3    H149062   3.558   7.211  13.394 -1.1693  0.4442 -1.3866
 8289TIP3    H249063   3.493   7.312  13.486  1.3983 -0.0425  1.1091
 8290TIP3   OH249064   0.826   5.658  11.179 -0.2414  0.5778 -0.2258
 8290TIP3    H149065   0.875   5.733  11.211  1.2993 -0.2329 -0.5926
 8290TIP3    H249066   0.807   5.606  11.257 -0.1473  0.6898 -0.1277
 8291TIP3   OH249067   1.143   3.879  10.805 -0.1569  0.2565 -0.0034
 8291TIP3    H149068   1.207   3.814  10.777  1.1617  0.8189  1.5191
 8291TIP3    H249069   1.189   3.963  10.799 -0.8880  0.7269  0.6705
 8292TIP3   OH249070   5.761   0.592  12.294  0.4342  0.6242  0.1090
 8292TIP3    H149071   5.705   0.531  12.341  0.7689  0.8332  0.7833
 8292TIP3    H249072   5.810   0.537  12.233 -0.0269  0.3591 -0.0272
 8293TIP3   OH249073   6.771   5.848  12.377 -0.2383 -0.6562  0.3674
 8293TIP3    H149074   6.847   5.890  12.418  0.5119 -1.9156  0.3033
 8293TIP3    H249075   6.772   5.758  12.409 -2.3730 -0.4301  1.2450
 8294TIP3   OH249076   5.560   6.442  11.609  0.2959 -0.0124  0.8378
 8294TIP3    H149077   5.507   6.410  11.682 -1.3351 -4.0234 -1.6946
 8294TIP3    H249078   5.503   6.433  11.532  2.5761  1.8337 -1.2491
 8295TIP3   OH249079   7.303   5.782  12.612 -0.3756  0.1127  0.4880
 8295TIP3    H149080   7.317   5.687  12.614 -0.1560  0.1473  1.8474
 8295TIP3    H249081   7.258   5.798  12.529  0.6631 -1.0179 -0.3359
 8296TIP3   OH249082   1.263   7.112  12.028  0.3500 -0.1841  0.2493
 8296TIP3    H149083   1.355   7.086  12.034  0.5173  0.2183 -0.4120
 8296TIP3    H249084   1.232   7.068  11.949 -0.0245 -0.3071  0.4638
 8297TIP3   OH249085   3.386   1.528  13.282  0.1218  0.9969  0.1404
 8297TIP3    H149086   3.363   1.593  13.347  1.6577  2.1858 -0.4279
 8297TIP3    H249087   3.437   1.462  13.330 -1.9091 -0.1493  0.8269
 8298TIP3   OH249088   1.643   6.400  12.406  0.2389 -0.4649  0.2664
 8298TIP3    H149089   1.684   6.323  12.366 -0.9030 -0.0153 -1.9450
 8298TIP3    H249090   1.649   6.384  12.500  1.2602 -2.5865 -0.0870
 8299TIP3   OH249091   2.296   0.928  11.404  0.1337 -1.1915  0.0575
 8299TIP3    H149092   2.328   0.852  11.455  0.1473 -0.7591  0.7061
 8299TIP3    H249093   2.201   0.925  11.414  0.1170 -1.2639 -0.1227
 8300TIP3   OH249094   2.533   5.906  11.507  0.1747 -0.1349  0.2226
 8300TIP3    H149095   2.570   5.858  11.432 -2.8815 -0.7237 -1.0434
 8300TIP3    H249096   2.536   5.843  11.579  0.4710 -0.6108 -0.1960
 8301TIP3   OH249097   2.057   5.586  12.309 -0.4311  0.1978 -0.0352
 8301TIP3    H149098   1.993   5.517  12.293 -0.8919  0.4226  0.7830
 8301TIP3    H249099   2.013   5.648  12.367  1.2843 -0.8546  2.5600
 8302TIP3   OH249100   1.084   0.601  13.520  0.1764  0.5461  0.8605
 8302TIP3    H149101   1.101   0.552  13.439 -0.6462 -1.4686  1.8225
 8302TIP3    H249102   1.126   0.549  13.588  1.1781  2.4051  1.7344
 8303TIP3   OH249103   4.322   0.884  11.645  0.3574  0.6665  0.1137
 8303TIP3    H149104   4.385   0.941  11.689 -0.5100  1.2608  0.6137
 8303TIP3    H249105   4.244   0.939  11.634 -0.1812 -0.1491 -0.2144
 8304TIP3   OH249106   0.671   0.680  11.064  0.4547  0.3881  0.2928
 8304TIP3    H149107   0.756   0.644  11.038 -0.0431 -0.1366 -0.6828
 8304TIP3    H249108   0.692   0.758  11.115  1.5170  0.9269 -0.9111
 8305TIP3   OH249109   3.114   0.044  13.085 -0.2392  0.1742  0.4036
 8305TIP3    H149110   3.031   0.055  13.038  0.1175 -2.3221 -1.0179
 8305TIP3    H249111   3.104  -0.038  13.133  1.5895 -0.5994 -0.4062
 8306TIP3   OH249112   5.368   6.176  11.752 -0.0163  0.0802  0.0119
 8306TIP3    H149113   5.335   6.174  11.662 -0.0852  1.9302 -0.0412
 8306TIP3    H249114   5.332   6.097  11.792 -1.8200  0.3341 -0.9799
 8307TIP3   OH249115   2.420   1.181  11.691  0.3018  0.2542  0.0547
 8307TIP3    H149116   2.406   1.195  11.597  0.2841  0.1234  0.0372
 8307TIP3    H249117   2.399   1.265  11.732  2.9460  1.2168 -0.3324
 8308TIP3   OH249118   2.016   2.311  13.251 -0.4517 -0.3370 -0.1647
 8308TIP3    H149119   2.087   2.358  13.294 -0.8195  0.0405  0.0352
 8308TIP3    H249120   1.939   2.367  13.263 -0.8327 -0.8498 -0.1822
 8309TIP3   OH249121   2.519   1.324  12.100 -0.1556 -0.2536  0.2519
 8309TIP3    H149122   2.453   1.332  12.031 -0.4725 -1.3043  0.4166
 8309TIP3    H249123   2.477   1.269  12.166  0.5468 -0.1499  0.7909
 8310TIP3   OH249124   4.534   1.573  11.700 -0.0999  0.0368  0.4387
 8310TIP3    H149125   4.517   1.667  11.693  0.3078  0.1514  0.9420
 8310TIP3    H249126   4.602   1.556  11.635 -3.5203 -0.8639 -3.3998
 8311TIP3   OH249127   0.022   5.406  13.381 -0.2376  0.5455  0.1369
 8311TIP3    H149128  -0.048   5.355  13.423  0.9274 -1.1568  0.1176
 8311TIP3    H249129   0.092   5.407  13.446  0.4692  0.4628 -0.6092
 8312TIP3   OH249130   3.276   7.499  12.964  0.0662 -0.2021 -0.2300
 8312TIP3    H149131   3.181   7.507  12.955 -0.1527 -1.2376  0.9071
 8312TIP3    H249132   3.311   7.576  12.920 -1.2585 -0.2223 -1.3961
 8313TIP3   OH249133   0.030   3.629  10.581  0.0298  0.4036  0.3242
 8313TIP3    H149134   0.094   3.691  10.545 -0.1036  0.6931  0.5783
 8313TIP3    H249135  -0.054   3.672  10.568 -0.2731 -0.5929 -1.3208
 8314TIP3   OH249136   1.401   3.807  12.772 -0.2312 -0.0008  0.5369
 8314TIP3    H149137   1.357   3.744  12.828  0.4321 -0.1539  0.9014
 8314TIP3    H249138   1.356   3.890  12.788 -0.8801 -0.3071  0.3155
 8315TIP3   OH249139   1.914   5.798  13.263 -0.1724  0.3279  0.0275
 8315TIP3    H149140   1.847   5.762  13.321  0.3554  0.9193  1.0284
 8315TIP3    H249141   1.995   5.792  13.314  0.3597  0.5776 -0.7734
 8316TIP3   OH249142   1.479   5.632  11.903  0.6412 -0.9451  0.5071
 8316TIP3    H149143   1.387   5.657  11.915  1.0828  1.1178  0.0313
 8316TIP3    H249144   1.504   5.672  11.819  1.9461 -1.5481  0.5826
 8317TIP3   OH249145   5.952   2.015  13.040 -0.0773  0.1282 -0.0676
 8317TIP3    H149146   6.013   1.984  13.107 -0.8891 -1.3077  0.0295
 8317TIP3    H249147   6.005   2.020  12.961  0.8189  1.5556  0.5772
 8318TIP3   OH249148   2.545   1.787  12.343 -0.0998  0.5524  0.0918
 8318TIP3    H149149   2.537   1.868  12.292  0.1617  0.7660  0.3871
 8318TIP3    H249150   2.579   1.723  12.281  1.8075  1.2171  0.3625
 8319TIP3   OH249151   6.789   5.990  11.912  0.1194  0.3872 -0.4807
 8319TIP3    H149152   6.712   5.943  11.945  0.5902 -0.0541 -0.0119
 8319TIP3    H249153   6.841   5.923  11.869 -0.0159  0.7857 -1.2906
 8320TIP3   OH249154   0.819   5.650  12.412 -0.0396  0.1934 -0.0287
 8320TIP3    H149155   0.825   5.737  12.452  0.6723  0.9667 -1.7120
 8320TIP3    H249156   0.849   5.591  12.481 -0.9296  1.2148  1.2937
 8321TIP3   OH249157   0.211   5.097  11.109 -0.3337 -0.2455 -0.0156
 8321TIP3    H149158   0.282   5.089  11.045  0.2782  0.9851  0.4770
 8321TIP3    H249159   0.133   5.115  11.056 -0.2252 -1.2387 -0.5339
 8322TIP3   OH249160   1.823   3.331  11.396 -0.0595 -0.6028 -0.3525
 8322TIP3    H149161   1.916   3.345  11.413 -0.2770  1.2976 -0.5327
 8322TIP3    H249162   1.818   3.320  11.301 -0.2696  2.1248 -0.7301
 8323TIP3   OH249163   2.557   4.376  12.616  0.1342  0.2946  0.1127
 8323TIP3    H149164   2.572   4.326  12.697 -1.5222 -0.0528  0.2255
 8323TIP3    H249165   2.581   4.315  12.546 -1.7823 -0.6786  0.2532
 8324TIP3   OH249166   0.580   5.598  12.270 -0.1202 -0.4011 -0.2239
 8324TIP3    H149167   0.572   5.507  12.241  0.9877 -0.8925  0.8900
 8324TIP3    H249168   0.670   5.604  12.302 -0.5451  0.7728  0.8043
 8325TIP3   OH249169   2.938   5.713  12.668  0.2015 -0.5794 -0.0344
 8325TIP3    H149170   2.929   5.623  12.697  2.1206 -1.1152 -0.9660
 8325TIP3    H249171   2.962   5.707  12.576 -1.4985  0.9621 -0.6503
 8326TIP3   OH249172   1.590   0.638  13.231 -0.5353  0.0099  0.2516
 8326TIP3    H149173   1.679   0.603  13.235 -0.0100  0.7590 -2.4146
 8326TIP3    H249174   1.535   0.562  13.214 -0.0038 -0.1470 -0.8853
 8327TIP3   OH249175   1.701   5.934  13.158  0.0462 -0.0292  0.0243
 8327TIP3    H149176   1.786   5.893  13.175  1.0110  1.4645 -0.8763
 8327TIP3    H249177   1.647   5.910  13.233  1.0551 -1.5322  0.3192
 8328TIP3   OH249178   6.893   7.183  11.747 -0.0808 -0.3737  0.3261
 8328TIP3    H149179   6.829   7.215  11.684  0.0923  0.4218  0.5379
 8328TIP3    H249180   6.857   7.100  11.779 -1.2057  0.2517  0.7472
 8329TIP3   OH249181   0.042   1.706  11.318  0.1315  0.0546 -0.4748
 8329TIP3    H149182   0.120   1.666  11.356 -1.9986 -2.1092  2.0629
 8329TIP3    H249183   0.036   1.669  11.230  1.9097  0.2748 -0.7249
 8330TIP3   OH249184   0.825   7.637  12.548  0.1299 -0.5627 -0.3105
 8330TIP3    H149185   0.820   7.574  12.476 -1.0539 -0.6417 -0.1741
 8330TIP3    H249186   0.878   7.593  12.615  1.2290 -0.4933 -1.1097
 8331TIP3   OH249187   7.235   4.601  12.080  0.4490  0.2343  0.3738
 8331TIP3    H149188   7.301   4.558  12.025 -0.0203 -0.3966  0.2918
 8331TIP3    H249189   7.165   4.625  12.019 -0.6698 -1.6255  0.8255
 8332TIP3   OH249190   3.683   1.299  11.429 -0.1465  0.3920  0.0507
 8332TIP3    H149191   3.649   1.279  11.516 -1.7449  3.2636  0.1932
 8332TIP3    H249192   3.645   1.384  11.406  1.7551  0.6686 -2.6562
 8333TIP3   OH249193   2.960   0.160  11.176 -0.2797  0.4353  0.2178
 8333TIP3    H149194   3.035   0.101  11.167 -0.1104  0.0882  3.1003
 8333TIP3    H249195   2.884   0.103  11.172 -0.1693  0.1574  1.7073
 8334TIP3   OH249196   3.416   1.646  12.326 -0.5761  0.0058 -0.4251
 8334TIP3    H149197   3.450   1.632  12.414  2.6585 -0.0186 -1.5382
 8334TIP3    H249198   3.444   1.734  12.303  1.4906 -1.0517 -2.4591
 8335TIP3   OH249199   2.284   1.602  13.164 -0.0851  0.3709 -0.4219
 8335TIP3    H149200   2.272   1.653  13.084 -2.1918  0.0469 -0.3703
 8335TIP3    H249201   2.328   1.522  13.136 -0.6768  0.3266 -1.2529
 8336TIP3   OH249202   2.947   4.046  19.887  0.6611 -0.2175 -0.0060
 8336TIP3    H149203   2.986   4.115  19.833  2.4590  0.2250  1.7482
 8336TIP3    H249204   2.854   4.067  19.889  0.7618  0.5744 -1.6824
 8337TIP3   OH249205   2.407   2.969  12.987  0.2629  0.2329 -0.5800
 8337TIP3    H149206   2.427   3.055  13.025 -1.1655 -0.0003  0.8147
 8337TIP3    H249207   2.473   2.911  13.024  0.3744  0.4766 -0.3917
 8338TIP3   OH249208   2.077   3.163  12.863 -0.0251  0.2495 -0.2813
 8338TIP3    H149209   2.125   3.239  12.830  0.4531 -0.3626 -1.0450
 8338TIP3    H249210   2.001   3.200  12.908 -0.0318  1.1669 -1.0104
 8339TIP3   OH249211   6.233   6.536  12.043  0.1775  0.4552  0.1056
 8339TIP3    H149212   6.181   6.583  12.109 -0.3789 -0.3159  0.2249
 8339TIP3    H249213   6.309   6.592  12.028  0.0830  0.8546  1.0739
 8340TIP3   OH249214   6.444   1.156  12.505  0.0472  0.4740  0.2343
 8340TIP3    H149215   6.425   1.173  12.597 -0.0090 -2.2586  0.8057
 8340TIP3    H249216   6.368   1.191  12.458 -0.8683  0.1496  1.4296
 8341TIP3   OH249217   0.169   4.609  11.862 -0.1423 -0.1411 -0.2432
 8341TIP3    H149218   0.117   4.605  11.942  0.2423  0.6827  0.0646
 8341TIP3    H249219   0.169   4.520  11.829  0.1918 -0.6325  1.0075
 8342TIP3   OH249220   5.116   6.006  13.171 -0.3987  0.6491  0.0672
 8342TIP3    H149221   5.100   5.956  13.251  1.7365  0.3879  0.3918
 8342TIP3    H249222   5.169   6.080  13.199 -1.6016  1.8750 -0.7787
 8343TIP3   OH249223   4.057   4.312  12.104 -0.0574 -0.1092  0.2601
 8343TIP3    H149224   4.138   4.269  12.132 -0.9489 -2.7810 -0.9318
 8343TIP3    H249225   4.025   4.356  12.182  1.0885 -1.4130  1.5322
 8344TIP3   OH249226   2.314   4.701  13.492  0.2671 -0.2965  0.3372
 8344TIP3    H149227   2.247   4.769  13.503  0.1590 -0.7359  3.0462
 8344TIP3    H249228   2.265   4.622  13.472  0.0895 -0.3003  0.7754
 8345TIP3   OH249229   6.425   4.123  12.035 -0.0672  0.2309 -0.1673
 8345TIP3    H149230   6.496   4.064  12.060  1.4716  1.6522 -0.9572
 8345TIP3    H249231   6.399   4.165  12.117  1.9067  1.6499 -0.1878
 8346TIP3   OH249232   4.093   6.792  13.594  0.5933 -0.3029 -0.5562
 8346TIP3    H149233   4.016   6.846  13.607  1.7668  1.0335  1.4512
 8346TIP3    H249234   4.156   6.849  13.550  1.5208 -0.2668  0.7417
 8347TIP3   OH249235   2.305   5.468  11.455  0.3948 -0.1210  0.2207
 8347TIP3    H149236   2.341   5.388  11.418  0.5501  0.4778 -0.9559
 8347TIP3    H249237   2.218   5.444  11.487 -0.5343 -0.2580 -2.2190
 8348TIP3   OH249238   4.519   3.731  18.736 -0.3625 -0.3955  0.3212
 8348TIP3    H149239   4.579   3.660  18.762 -0.8644 -0.5936  0.9588
 8348TIP3    H249240   4.489   3.706  18.649  1.3018  0.2468 -0.4859
 8349TIP3   OH249241   3.398   4.389  11.699  0.3299 -0.2991 -0.2497
 8349TIP3    H149242   3.357   4.338  11.629  0.1409 -0.2794 -0.1557
 8349TIP3    H249243   3.324   4.421  11.751  0.5068 -0.9410  0.3980
 8350TIP3   OH249244   4.369   6.701  11.267  0.3677  0.3470 -0.4260
 8350TIP3    H149245   4.314   6.692  11.345 -0.5960 -0.2413 -1.1394
 8350TIP3    H249246   4.349   6.789  11.234 -1.2395 -0.3541 -1.4422
 8351TIP3   OH249247   3.278   7.330  10.919 -0.1644 -0.4588  0.2266
 8351TIP3    H149248   3.313   7.270  10.852 -2.2311 -0.8892 -0.5457
 8351TIP3    H249249   3.187   7.304  10.929 -1.2535  2.6951 -0.3020
 8352TIP3   OH249250   3.199   0.888  11.662 -0.1380  0.0189 -0.2523
 8352TIP3    H149251   3.119   0.837  11.672  0.1964 -0.4624 -0.0272
 8352TIP3    H249252   3.170   0.968  11.617 -0.5906 -0.5596 -1.0144
 8353TIP3   OH249253   0.783   7.004  11.920 -0.1767  0.5120 -0.3118
 8353TIP3    H149254   0.715   7.023  11.856 -0.0715  1.3805 -0.1815
 8353TIP3    H249255   0.861   6.987  11.867 -0.6632 -1.3431 -0.4949
 8354TIP3   OH249256   0.145   7.246  11.759  0.7112 -0.0403  0.0025
 8354TIP3    H149257   0.135   7.159  11.798  0.6363 -0.7107 -1.4561
 8354TIP3    H249258   0.240   7.262  11.761  0.9937 -1.2472 -1.9430
 8355TIP3   OH249259   6.441   7.508  11.907  0.1815 -0.3863 -0.0639
 8355TIP3    H149260   6.349   7.482  11.911 -0.4184  1.3222 -1.5863
 8355TIP3    H249261   6.439   7.597  11.873  2.4146 -0.2805 -0.0271
 8356TIP3   OH249262   0.573   3.710  13.375  0.3652  0.1043  0.4367
 8356TIP3    H149263   0.607   3.713  13.286 -0.0743 -2.1827  0.1470
 8356TIP3    H249264   0.532   3.796  13.387 -1.0737 -0.1015 -2.1833
 8357TIP3   OH249265   2.764   3.839  12.507  0.1702 -0.0066 -0.2484
 8357TIP3    H149266   2.790   3.873  12.593 -0.8306  0.8028 -0.2457
 8357TIP3    H249267   2.764   3.744  12.518  1.5054  0.0302  0.2062
 8358TIP3   OH249268   3.513   7.445  12.562  0.4786 -0.2172  0.4574
 8358TIP3    H149269   3.433   7.410  12.523  0.3389  0.9838 -0.4142
 8358TIP3    H249270   3.575   7.450  12.490  0.8146  0.3382  0.7710
 8359TIP3   OH249271   3.936   4.565  11.443 -0.2139  0.0208  0.7325
 8359TIP3    H149272   3.886   4.621  11.503  2.0525  1.2601  1.5787
 8359TIP3    H249273   4.026   4.570  11.475  1.1110  0.6804 -2.7165
 8360TIP3   OH249274   0.322   3.613  11.974 -0.2186  0.0943  0.4143
 8360TIP3    H149275   0.413   3.598  11.997 -0.0440  0.4935  0.0012
 8360TIP3    H249276   0.301   3.544  11.911  0.5584  1.4301 -1.4170
 8361TIP3   OH249277   6.574   4.000  13.384 -0.0985  0.3050  0.3713
 8361TIP3    H149278   6.651   4.041  13.344 -0.1259  0.1149  0.1183
 8361TIP3    H249279   6.575   4.030  13.475  0.0738  0.5884  0.2769
 8362TIP3   OH249280   0.967   7.391  12.549  0.0621  0.0739 -0.3753
 8362TIP3    H149281   0.929   7.323  12.606  0.7785  0.8175  1.0564
 8362TIP3    H249282   1.060   7.370  12.547  0.1703  0.5638 -0.5577
 8363TIP3   OH249283   0.706   3.335  12.105 -0.2222  0.4160  0.1990
 8363TIP3    H149284   0.684   3.318  12.196  0.7874  0.0179  0.3757
 8363TIP3    H249285   0.801   3.347  12.104 -0.4323  2.6634 -0.4566
 8364TIP3   OH249286   7.097   7.201  11.258 -0.3230 -0.1531 -0.2706
 8364TIP3    H149287   7.058   7.195  11.346 -0.2308  0.0234 -0.2174
 8364TIP3    H249288   7.190   7.180  11.271 -0.6570 -2.0800 -0.6221
 8365TIP3   OH249289   6.612   4.483  12.176  0.1270 -0.5149 -0.6696
 8365TIP3    H149290   6.605   4.565  12.226  1.4382  0.3595 -1.8387
 8365TIP3    H249291   6.525   4.470  12.139  0.0368  0.6353 -0.8897
 8366TIP3   OH249292   0.041   5.701  13.664  0.0463  0.0438  0.3038
 8366TIP3    H149293   0.097   5.628  13.640  0.4232 -0.1667  1.7357
 8366TIP3    H249294  -0.045   5.661  13.677  0.0857 -0.0183  0.3727
 8367TIP3   OH249295   0.340   4.170  12.105 -0.5091  0.7257 -0.0798
 8367TIP3    H149296   0.343   4.081  12.069 -0.0516  1.5753 -2.2786
 8367TIP3    H249297   0.335   4.157  12.199  2.3017 -1.6634 -0.1008
 8368TIP3   OH249298   1.336   3.142  12.370  0.2513  0.2028 -0.1426
 8368TIP3    H149299   1.366   3.216  12.424 -1.8552  0.4093  0.8502
 8368TIP3    H249300   1.397   3.072  12.390  0.1405  0.5926  1.8070
 8369TIP3   OH249301   0.305   0.806  12.743  0.3362 -0.1601 -0.1191
 8369TIP3    H149302   0.318   0.744  12.815  1.3771 -1.2846 -1.2196
 8369TIP3    H249303   0.211   0.811  12.732  0.2044 -0.8210  0.6045
 8370TIP3   OH249304   5.647   2.420  11.345 -0.1979 -0.3252 -0.2889
 8370TIP3    H149305   5.690   2.504  11.363  0.8854 -0.6737 -1.1282
 8370TIP3    H249306   5.629   2.421  11.251 -3.3139  0.3398  0.2028
 8371TIP3   OH249307   2.746   4.300  11.473  0.2556 -0.4120  0.5695
 8371TIP3    H149308   2.791   4.220  11.502  0.0958 -0.9155 -0.5497
 8371TIP3    H249309   2.800   4.371  11.508  2.5484 -0.9754 -1.5330
 8372TIP3   OH249310   0.446   4.412  13.713 -0.4922 -0.1176 -0.2800
 8372TIP3    H149311   0.534   4.384  13.688  0.7749  0.9175  2.5567
 8372TIP3    H249312   0.445   4.506  13.700 -1.4513 -0.1963 -0.9211
 8373TIP3   OH249313   0.177   4.394  11.628  0.0458 -0.0558  0.3754
 8373TIP3    H149314   0.230   4.315  11.623  0.2433  0.1630 -1.4381
 8373TIP3    H249315   0.088   4.362  11.643 -0.0929 -0.7347 -1.6245
 8374TIP3   OH249316   0.022   3.846  11.123  0.7941 -0.0683  0.0447
 8374TIP3    H149317   0.042   3.806  11.039  0.2019 -2.5234  1.0080
 8374TIP3    H249318   0.104   3.885  11.152  1.5560 -1.1404 -0.6398
 8375TIP3   OH249319   2.412   6.157  11.512  0.3894 -0.1186 -0.2972
 8375TIP3    H149320   2.453   6.074  11.489  1.3805  0.8823 -2.4781
 8375TIP3    H249321   2.325   6.153  11.472  0.0927 -0.4331  0.3652
 8376TIP3   OH249322   7.589   0.587  11.803  0.1790 -0.4345  0.5002
 8376TIP3    H149323   7.630   0.573  11.889 -0.6055 -0.0239  0.9534
 8376TIP3    H249324   7.600   0.504  11.758 -0.3543 -1.0319  1.4228
 8377TIP3   OH249325   3.721   7.394  12.031 -0.1506 -0.3970  0.3118
 8377TIP3    H149326   3.728   7.323  12.095  1.2537  0.6918  1.4594
 8377TIP3    H249327   3.651   7.450  12.066  0.7400  0.2939  1.0482
 8378TIP3   OH249328   2.196   1.811  12.096  0.1636 -0.2492 -0.3945
 8378TIP3    H149329   2.100   1.815  12.096  0.1739  0.6824 -2.2267
 8378TIP3    H249330   2.223   1.898  12.124  0.4905 -0.3814 -0.2976
 8379TIP3   OH249331   0.719   4.722  12.070 -0.4041  0.1642  0.1037
 8379TIP3    H149332   0.681   4.713  12.158 -1.7252 -1.2128 -0.5728
 8379TIP3    H249333   0.795   4.779  12.083 -1.9185  1.9553  1.7287
 8380TIP3   OH249334   3.143   2.246  10.955 -0.5920  0.2292 -0.2405
 8380TIP3    H149335   3.195   2.228  11.033  0.7612 -0.2889 -1.2375
 8380TIP3    H249336   3.159   2.172  10.897 -2.2803  0.1650 -0.6862
 8381TIP3   OH249337   3.838   5.293  12.029  0.1479 -0.1982 -0.2104
 8381TIP3    H149338   3.773   5.335  11.973  0.1786 -0.2224 -0.2652
 8381TIP3    H249339   3.905   5.361  12.043 -0.3181  0.1090  0.5653
 8382TIP3   OH249340   6.227   5.625  11.975  0.1086  0.2766 -0.1534
 8382TIP3    H149341   6.159   5.654  11.914  1.6403  2.2159 -1.0519
 8382TIP3    H249342   6.254   5.705  12.020  0.2059 -0.8377  1.9016
 8383TIP3   OH249343   2.040   6.735  11.719  0.3561 -0.2336  0.0971
 8383TIP3    H149344   2.047   6.695  11.806  1.5589 -0.1341  0.0561
 8383TIP3    H249345   2.126   6.725  11.681  0.9654  2.9839  0.3455
 8384TIP3   OH249346   4.536   6.158  12.283  0.3507 -0.2618  0.6406
 8384TIP3    H149347   4.482   6.109  12.221  0.8296 -1.4378  1.1248
 8384TIP3    H249348   4.587   6.091  12.328  0.9905  0.6922  1.3622
 8385TIP3   OH249349   3.395   1.032  12.959 -0.0464  0.2140  0.1719
 8385TIP3    H149350   3.374   0.949  13.002 -0.6714  0.7116  0.8731
 8385TIP3    H249351   3.422   1.008  12.871 -0.6565 -0.7063  0.2205
 8386TIP3   OH249352   5.855   5.593  12.648  0.0198  0.7967  0.6126
 8386TIP3    H149353   5.918   5.531  12.611  0.0085  1.0766  0.1033
 8386TIP3    H249354   5.874   5.675  12.602 -0.5902  0.9317  0.5984
 8387TIP3   OH249355   0.989   1.845  10.826  0.1284 -0.2819  0.4577
 8387TIP3    H149356   1.066   1.796  10.853  0.5839  0.0503 -0.2229
 8387TIP3    H249357   1.024   1.927  10.790 -0.4626 -0.6237 -0.9489
 8388TIP3   OH249358   4.514   0.545  11.011 -0.1870  0.2995 -0.1545
 8388TIP3    H149359   4.541   0.490  10.938  1.2515 -0.5186  0.9348
 8388TIP3    H249360   4.419   0.552  11.002  0.1393  3.0075 -3.9660
 8389TIP3   OH249361   4.467   3.616  11.119  0.2671  0.1747  0.5904
 8389TIP3    H149362   4.400   3.557  11.085  0.9613  1.0286 -2.6160
 8389TIP3    H249363   4.542   3.560  11.138  0.1010 -0.2790 -0.0526
 8390TIP3   OH249364   4.783   2.719  12.076 -0.0170 -0.0343  0.1782
 8390TIP3    H149365   4.696   2.683  12.058 -0.3042  0.9301 -0.4095
 8390TIP3    H249366   4.844   2.651  12.047 -0.5416  0.0661 -1.2091
 8391TIP3   OH249367   3.512   7.189  11.524 -0.6492 -0.3044  0.3356
 8391TIP3    H149368   3.550   7.262  11.473 -1.0774  0.5494  1.2063
 8391TIP3    H249369   3.573   7.117  11.511  0.5885  0.6440  0.6191
 8392TIP3   OH249370   0.179   5.867  13.516 -0.4052 -0.3315  0.2524
 8392TIP3    H149371   0.185   5.958  13.544 -3.6945  0.2120 -0.4734
 8392TIP3    H249372   0.132   5.823  13.588  1.0690 -1.4930  0.5574
 8393TIP3   OH249373   4.666   3.092  11.350  0.2246  0.8097 -0.1391
 8393TIP3    H149374   4.574   3.070  11.366  0.1878  0.5314 -0.7390
 8393TIP3    H249375   4.665   3.146  11.271  0.5922  0.6662 -0.2455
 8394TIP3   OH249376   3.519   1.500  12.121  0.1080 -0.3035  0.3074
 8394TIP3    H149377   3.507   1.550  12.202 -2.1491  0.5099 -0.4678
 8394TIP3    H249378   3.553   1.563  12.058 -0.7173 -0.2492 -0.0953
 8395TIP3   OH249379   4.768   0.793  13.322  0.7717  0.1211  0.0462
 8395TIP3    H149380   4.730   0.881  13.327 -0.6586 -0.3611 -1.3630
 8395TIP3    H249381   4.821   0.786  13.401 -3.2965  0.3403  3.1701
 8396TIP3   OH249382   3.712   4.208  12.892  0.0100  0.0347  0.1369
 8396TIP3    H149383   3.710   4.303  12.879 -1.0185 -0.1651 -1.4190
 8396TIP3    H249384   3.688   4.172  12.807  0.3550 -1.6352  0.7142
 8397TIP3   OH249385   7.480   3.165  10.857 -0.2786 -0.1547 -0.0758
 8397TIP3    H149386   7.568   3.140  10.887  0.2495  1.9362  0.2358
 8397TIP3    H249387   7.496   3.216  10.778 -1.3040 -0.6862 -0.6388
 8398TIP3   OH249388   5.322   5.400  13.741 -0.0466  0.6197 -0.7832
 8398TIP3    H149389   5.369   5.481  13.720 -0.7114  0.5146 -2.9467
 8398TIP3    H249390   5.369   5.332  13.692  0.4529 -0.3478  0.9393
 8399TIP3   OH249391   0.036   4.088  13.732  0.5336  0.1213 -0.3233
 8399TIP3    H149392   0.100   4.071  13.662 -0.8545  3.6633 -2.7029
 8399TIP3    H249393   0.073   4.161  13.782 -0.6496  0.8055 -0.4041
 8400TIP3   OH249394   5.087   4.222  11.100  0.0442 -1.0115 -0.3070
 8400TIP3    H149395   5.114   4.140  11.142  0.6971 -0.3498  0.6073
 8400TIP3    H249396   4.991   4.220  11.103  0.0401 -1.8599 -0.5592
 8401TIP3   OH249397   0.259   4.761  11.396  0.0113  0.0914 -0.4584
 8401TIP3    H149398   0.247   4.705  11.473  0.4065 -0.0340 -0.4865
 8401TIP3    H249399   0.213   4.842  11.418  1.3190  0.6141  0.5062
 8402TIP3   OH249400   4.883   1.134  12.107  0.0792  0.8943  0.3149
 8402TIP3    H149401   4.807   1.175  12.150 -1.5421 -0.9845 -0.6255
 8402TIP3    H249402   4.891   1.049  12.149  0.9383  0.5978 -0.4293
 8403TIP3   OH249403   3.497   1.907  12.970 -0.3591  0.3952  0.5051
 8403TIP3    H149404   3.461   1.842  13.031 -2.6722  2.5954  1.6646
 8403TIP3    H249405   3.513   1.984  13.025  2.9382  0.7369 -0.6823
 8404TIP3   OH249406   4.773   1.437  12.377  0.0365  0.4864  0.1152
 8404TIP3    H149407   4.834   1.382  12.426 -2.5563 -1.4332  1.4079
 8404TIP3    H249408   4.745   1.382  12.304 -2.8649 -0.2546  1.6195
 8405TIP3   OH249409   3.520   7.368  11.055 -0.0269  0.2136  0.4110
 8405TIP3    H149410   3.541   7.275  11.062 -0.3544  0.0344 -0.7673
 8405TIP3    H249411   3.450   7.372  10.989  0.4642  1.3437 -0.0743
 8406TIP3   OH249412   5.229   2.687  13.374 -0.4778  0.2697  0.5819
 8406TIP3    H149413   5.234   2.714  13.465  0.6687  2.5042 -0.0823
 8406TIP3    H249414   5.285   2.748  13.327 -1.7267 -0.2516 -1.7622
 8407TIP3   OH249415   7.590   2.302  11.605  0.2143 -0.0664  0.0087
 8407TIP3    H149416   7.585   2.207  11.606 -1.7638 -0.0135 -0.9094
 8407TIP3    H249417   7.618   2.323  11.516 -1.0802  0.2291 -0.3507
 8408TIP3   OH249418   1.949   5.855  12.476  0.2151 -0.6269 -0.1710
 8408TIP3    H149419   2.026   5.873  12.531  0.2872 -1.9367  0.1734
 8408TIP3    H249420   1.875   5.879  12.530  0.3464  0.5080 -0.4538
 8409TIP3   OH249421   7.407   3.321  11.703  0.1863 -0.2925 -0.4127
 8409TIP3    H149422   7.428   3.325  11.610 -0.3763 -2.6431 -0.7125
 8409TIP3    H249423   7.339   3.387  11.715 -0.3133 -0.5062 -1.8577
 8410TIP3   OH249424   0.743   2.842  12.304 -0.7274 -0.1790  0.1081
 8410TIP3    H149425   0.800   2.844  12.381 -0.0487  0.4217 -0.3945
 8410TIP3    H249426   0.722   2.749  12.293  0.9141 -0.5481 -0.2225
 8411TIP3   OH249427   5.950   2.787  11.161  1.1654  0.0239  0.3311
 8411TIP3    H149428   5.863   2.751  11.182  0.1895  1.6438 -0.7600
 8411TIP3    H249429   5.975   2.835  11.240  0.5647  0.4735  0.2543
 8412TIP3   OH249430   2.351   2.707  12.423  0.6099 -0.0639  0.0604
 8412TIP3    H149431   2.295   2.691  12.347  0.5092 -0.7380  0.2729
 8412TIP3    H249432   2.296   2.688  12.498  1.4503 -2.0012  0.2624
 8413TIP3   OH249433   1.322   1.112  13.009  0.6368  0.2303 -0.5633
 8413TIP3    H149434   1.398   1.154  13.049  0.3622  0.9467 -0.7946
 8413TIP3    H249435   1.277   1.070  13.082  0.7891  0.5237 -0.2997
 8414TIP3   OH249436   5.492   3.867  11.664  0.4325 -0.0521  0.0178
 8414TIP3    H149437   5.471   3.821  11.583 -2.4620 -0.2382  0.7670
 8414TIP3    H249438   5.495   3.959  11.640 -1.6006  0.0105 -0.1639
 8415TIP3   OH249439   7.455   5.770  12.350  0.5959  0.1994 -0.5225
 8415TIP3    H149440   7.361   5.765  12.363  0.5211  0.2587 -1.0264
 8415TIP3    H249441   7.480   5.684  12.317  0.3786  0.8433 -2.4741
 8416TIP3   OH249442   2.573   6.628  12.707 -0.3068 -0.6574  0.6300
 8416TIP3    H149443   2.661   6.610  12.740 -0.2743  1.6900  2.0058
 8416TIP3    H249444   2.517   6.624  12.784 -0.9772  0.4411  0.2288
 8417TIP3   OH249445   3.803   1.835  11.286  0.0228  1.2943 -0.3094
 8417TIP3    H149446   3.826   1.858  11.376 -0.1224  2.6171 -0.5815
 8417TIP3    H249447   3.725   1.889  11.267  0.1855  1.2084 -1.2913
 8418TIP3   OH249448   4.014   7.370  13.605  0.3982  0.1443 -0.4325
 8418TIP3    H149449   3.957   7.444  13.628  1.2860  0.9020 -0.6230
 8418TIP3    H249450   3.982   7.297  13.659  1.1632  1.3340  1.7541
 8419TIP3   OH249451   2.751   2.365  12.897  0.0187  0.9730 -0.0986
 8419TIP3    H149452   2.659   2.359  12.923  0.0735  0.4271 -0.0138
 8419TIP3    H249453   2.763   2.294  12.834  0.6071  0.4537  0.5878
 8420TIP3   OH249454   0.207   5.901  12.001 -0.0529 -0.8345 -0.0070
 8420TIP3    H149455   0.151   5.826  11.979  1.4052 -1.8472 -0.4102
 8420TIP3    H249456   0.145   5.970  12.027 -1.4143 -2.6313  1.9019
 8421TIP3   OH249457   0.534   6.106  13.485 -0.2393  0.1117  0.0387
 8421TIP3    H149458   0.524   6.069  13.397  1.0414 -0.2333  0.0227
 8421TIP3    H249459   0.537   6.030  13.543 -0.1350  0.2994  0.2800
 8422TIP3   OH249460   2.389   5.695  11.338 -1.0764 -0.0649 -0.1127
 8422TIP3    H149461   2.313   5.752  11.347 -0.7267  0.3166  0.4972
 8422TIP3    H249462   2.362   5.613  11.380 -1.7996 -0.5872 -1.5318
 8423TIP3   OH249463   0.950   3.531  10.687  0.4658 -0.1641  0.2489
 8423TIP3    H149464   0.885   3.460  10.689 -0.3014  0.4000 -1.9963
 8423TIP3    H249465   1.032   3.489  10.712 -0.4796 -1.1838  1.8466
 8424TIP3   OH249466   6.016   3.658  12.406 -0.3552 -0.2897 -0.4836
 8424TIP3    H149467   6.069   3.731  12.371  1.4206 -0.9370  0.7160
 8424TIP3    H249468   5.968   3.626  12.330 -0.3152  1.4074 -1.2784
 8425TIP3   OH249469   7.384   2.968  13.245 -0.3459 -0.0316  0.6357
 8425TIP3    H149470   7.429   3.044  13.208 -0.7741  0.7466  1.6542
 8425TIP3    H249471   7.371   2.991  13.337 -1.8484 -0.6934  0.6161
 8426TIP3   OH249472   2.387   5.615  11.660  0.7743  0.0874 -0.5757
 8426TIP3    H149473   2.312   5.579  11.707  1.3098  1.0927  1.1652
 8426TIP3    H249474   2.402   5.554  11.588  1.5703 -3.2222  2.1221
 8427TIP3   OH249475   1.684   6.642  10.844 -0.2911  0.0836  0.1911
 8427TIP3    H149476   1.645   6.566  10.887 -4.9827  1.4536 -1.0189
 8427TIP3    H249477   1.663   6.630  10.751  0.1905  2.1094 -0.2298
 8428TIP3   OH249478   5.598   1.054  11.788  0.2674 -0.3967 -0.1329
 8428TIP3    H149479   5.671   1.115  11.785 -0.9834  1.2045  0.6004
 8428TIP3    H249480   5.522   1.107  11.812 -0.7745 -2.3332  1.2429
 8429TIP3   OH249481   4.971   7.493  11.483 -0.0273 -0.0297 -0.1581
 8429TIP3    H149482   4.942   7.402  11.480 -1.5544  0.3589  1.0987
 8429TIP3    H249483   4.987   7.517  11.392  0.2597 -1.5010 -0.5137
 8430TIP3   OH249484   0.277   5.904  11.729  0.4083  0.5050  0.3319
 8430TIP3    H149485   0.228   5.838  11.778 -0.2955  0.3441 -0.5389
 8430TIP3    H249486   0.348   5.856  11.687  1.7499  0.8420  2.0946
 8431TIP3   OH249487   0.018   0.730  11.511 -0.2297  0.4848  0.0612
 8431TIP3    H149488   0.103   0.744  11.554 -0.1077  0.0641 -0.0403
 8431TIP3    H249489   0.040   0.689  11.428 -0.5478  0.1939  0.1207
 8432TIP3   OH249490   3.770   0.671  12.584 -0.5980  0.6993 -0.0458
 8432TIP3    H149491   3.752   0.650  12.675  1.2432 -1.7813 -0.1425
 8432TIP3    H249492   3.809   0.758  12.586 -2.3501  1.5111  1.2509
 8433TIP3   OH249493   2.009   1.181  11.524  0.3391  0.2209  0.6328
 8433TIP3    H149494   1.960   1.253  11.563  0.9794  1.2536 -0.3687
 8433TIP3    H249495   2.056   1.222  11.451 -1.8224 -1.7798 -2.1123
 8434TIP3   OH249496   7.163   6.629  11.030 -0.2147 -0.1197  0.2398
 8434TIP3    H149497   7.077   6.670  11.026 -1.0508 -1.8027  0.4340
 8434TIP3    H249498   7.207   6.673  11.103 -0.1824  2.0079 -0.9720
 8435TIP3   OH249499   5.935   0.079  12.453  0.0272  0.5039  0.0288
 8435TIP3    H149500   5.985   0.059  12.532  0.1604  2.3175  0.4478
 8435TIP3    H249501   5.851   0.035  12.466  0.9930 -1.4957 -0.0980
 8436TIP3   OH249502   5.257   4.522  12.207  0.7518  0.2152  0.4151
 8436TIP3    H149503   5.281   4.509  12.115  2.2898 -1.1428  0.9789
 8436TIP3    H249504   5.233   4.435  12.238  1.6861  0.3993  1.6963
 8437TIP3   OH249505   3.065   4.888  13.144  0.7717  0.0987  0.2274
 8437TIP3    H149506   2.994   4.865  13.205  0.6872  2.0011  0.9372
 8437TIP3    H249507   3.145   4.861  13.189  0.5683 -1.2285 -0.1720
 8438TIP3   OH249508   2.818   0.970  12.240 -0.1786  0.0423  0.3796
 8438TIP3    H149509   2.841   0.942  12.329  1.7189 -4.0075 -1.1425
 8438TIP3    H249510   2.884   1.035  12.218 -0.1505  0.4658  1.6402
 8439TIP3   OH249511   4.978   6.096  12.371  0.0055  0.2357 -0.1585
 8439TIP3    H149512   4.895   6.066  12.408 -0.0521 -0.2866 -0.7062
 8439TIP3    H249513   5.044   6.040  12.412  0.0500  0.3605 -0.0560
 8440TIP3   OH249514   4.567   1.850  11.721 -0.1600  0.0995  0.7338
 8440TIP3    H149515   4.641   1.902  11.690  0.7900 -1.7230 -0.2230
 8440TIP3    H249516   4.569   1.859  11.816  3.6461 -2.7568  1.1397
 8441TIP3   OH249517   1.166   1.439  11.600  0.1375  0.2605  0.0970
 8441TIP3    H149518   1.242   1.389  11.630 -0.3470 -0.3827  0.2770
 8441TIP3    H249519   1.102   1.429  11.670  0.5637  2.4521  0.8916
 8442TIP3   OH249520   6.794   5.823  11.019 -0.2810 -0.1304 -0.1543
 8442TIP3    H149521   6.713   5.829  11.068  0.0665 -1.9378  0.7253
 8442TIP3    H249522   6.770   5.777  10.938 -0.8072  2.6354 -1.7237
 8443TIP3   OH249523   6.511   6.914  11.898  0.2047 -0.0434 -0.1939
 8443TIP3    H149524   6.473   6.934  11.812 -1.1317 -1.4185  0.0366
 8443TIP3    H249525   6.474   6.981  11.956 -2.6144 -1.7489  0.1706
 8444TIP3   OH249526   6.390   2.159  12.739 -0.2960 -1.1021  0.5341
 8444TIP3    H149527   6.467   2.209  12.765 -0.2451 -0.3836 -0.9320
 8444TIP3    H249528   6.330   2.166  12.813 -0.0678  0.6672  0.5739
 8445TIP3   OH249529   4.407   4.209  10.794 -0.0430 -0.2146  0.6434
 8445TIP3    H149530   4.343   4.218  10.724 -0.0266  1.9316  0.8188
 8445TIP3    H249531   4.415   4.115  10.809 -0.5171 -0.6910 -1.7708
 8446TIP3   OH249532   6.808   4.103  13.277 -0.3604 -0.4882 -0.3886
 8446TIP3    H149533   6.813   4.198  13.264  1.6274 -0.5584 -0.4426
 8446TIP3    H249534   6.843   4.066  13.196 -1.6088 -1.2980 -0.5750
 8447TIP3   OH249535   3.144   4.431  11.803 -0.2854  0.1333 -0.1761
 8447TIP3    H149536   3.085   4.423  11.728  0.6734 -1.6601 -0.8068
 8447TIP3    H249537   3.089   4.413  11.879 -0.3943 -2.9963 -0.8401
 8448TIP3   OH249538   3.605   5.274  13.942 -0.0766  0.1488 -0.0797
 8448TIP3    H149539   3.624   5.191  13.986 -1.5213  0.3332  0.9877
 8448TIP3    H249540   3.569   5.249  13.858 -2.0069 -0.4039  0.8582
 8449TIP3   OH249541   4.814   5.121  12.517  0.5372 -0.0508 -0.0205
 8449TIP3    H149542   4.864   5.184  12.465  0.4096 -0.1210 -0.2291
 8449TIP3    H249543   4.724   5.155  12.515  0.0254 -1.3367 -1.8953
 8450TIP3   OH249544   1.783   7.293  11.914  0.0644 -0.9029 -0.3732
 8450TIP3    H149545   1.786   7.344  11.834  0.6141 -2.2319 -1.2380
 8450TIP3    H249546   1.814   7.206  11.889  1.9990 -0.9065  1.6270
 8451TIP3   OH249547   5.654   3.585  10.865 -0.1556 -0.3183 -0.7852
 8451TIP3    H149548   5.617   3.628  10.788 -2.0573  1.8928  1.1890
 8451TIP3    H249549   5.593   3.606  10.936  1.3255 -2.4971  1.3110
 8452TIP3   OH249550   6.297   0.334  12.158 -0.2598 -0.1680  0.6690
 8452TIP3    H149551   6.242   0.257  12.145 -1.0530  0.1743  1.8616
 8452TIP3    H249552   6.236   0.402  12.187  0.4218  0.9242 -0.3872
 8453TIP3   OH249553   6.342   2.561  11.604 -0.4084  0.0723 -0.0899
 8453TIP3    H149554   6.356   2.642  11.653 -1.5906  1.2640 -1.5726
 8453TIP3    H249555   6.429   2.523  11.595 -0.0358  0.3017  2.0364
 8454TIP3   OH249556   1.622   5.307  12.764 -0.2338 -0.1413 -0.1482
 8454TIP3    H149557   1.537   5.349  12.753  0.2252  0.3306 -2.3360
 8454TIP3    H249558   1.602   5.223  12.807 -1.5004  0.9196  1.4594
 8455TIP3   OH249559   1.779   5.232  11.847  0.1079 -0.5740  0.0328
 8455TIP3    H149560   1.806   5.296  11.781  1.1689 -1.4800 -0.4256
 8455TIP3    H249561   1.859   5.184  11.868 -0.5328 -1.2841  0.8912
 8456TIP3   OH249562   1.697   6.352  13.587 -0.3620  0.1777  0.5864
 8456TIP3    H149563   1.760   6.387  13.650 -0.6451  0.4755  0.7058
 8456TIP3    H249564   1.674   6.266  13.621  0.6470 -0.3187  0.0762
 8457TIP3   OH249565   6.079   6.656  12.636 -0.1782 -0.2909  0.3690
 8457TIP3    H149566   6.000   6.680  12.684 -0.2239  0.0768  0.1190
 8457TIP3    H249567   6.047   6.634  12.548 -0.1340 -1.2555  0.5836
 8458TIP3   OH249568   1.426   3.462  11.639  0.1489  0.1866  0.0379
 8458TIP3    H149569   1.358   3.526  11.616 -0.2271  0.1642  1.0337
 8458TIP3    H249570   1.405   3.437  11.729  1.9373  0.7564  0.6531
 8459TIP3   OH249571   2.955   7.459  10.869 -0.4081 -0.0490  0.1910
 8459TIP3    H149572   3.017   7.510  10.817  0.8811 -1.3831  0.3455
 8459TIP3    H249573   2.873   7.463  10.819  0.1081  0.7892 -0.6194
 8460TIP3   OH249574   0.836   1.330  11.439 -0.3109 -0.2477 -0.0080
 8460TIP3    H149575   0.758   1.363  11.394 -0.3325 -0.4539 -0.1193
 8460TIP3    H249576   0.835   1.376  11.523  0.6840  1.4804 -0.8856
 8461TIP3   OH249577   2.114   7.097  12.835  0.5544 -0.1342 -0.0436
 8461TIP3    H149578   2.032   7.132  12.869  0.2700 -1.6442  0.9184
 8461TIP3    H249579   2.152   7.169  12.785 -0.9485  0.8613  0.1854
 8462TIP3   OH249580   7.067   4.367  11.595 -0.5959 -0.2664 -0.3689
 8462TIP3    H149581   7.025   4.403  11.673 -0.5702 -0.0468 -0.4559
 8462TIP3    H249582   7.159   4.395  11.603 -0.6656  0.0365 -0.6482
 8463TIP3   OH249583   0.845   6.792  12.625  0.2474  0.4264 -0.0032
 8463TIP3    H149584   0.890   6.847  12.561 -0.0023  0.9278  0.2435
 8463TIP3    H249585   0.779   6.745  12.574  1.4832 -0.8622 -0.5010
 8464TIP3   OH249586   6.081   3.859  10.946  0.2227  0.6353  0.2064
 8464TIP3    H149587   6.132   3.898  11.016 -1.0998  1.7530  0.5885
 8464TIP3    H249588   6.048   3.933  10.895  0.9967 -0.1471 -1.5096
 8465TIP3   OH249589   3.975   3.275  13.429  0.4497  0.6206 -0.5667
 8465TIP3    H149590   3.964   3.186  13.463  1.4267  0.1153 -1.5034
 8465TIP3    H249591   4.066   3.298  13.449  0.1174  1.5589 -0.0411
 8466TIP3   OH249592   3.055   2.512  13.611 -0.3904 -0.3224  0.3043
 8466TIP3    H149593   3.082   2.421  13.628  0.3022 -0.1453  0.1704
 8466TIP3    H249594   3.130   2.552  13.567 -1.3360 -0.1569 -1.2296
 8467TIP3   OH249595   2.701   6.900  11.732 -0.6282 -0.2808 -0.6459
 8467TIP3    H149596   2.757   6.823  11.726 -0.1323 -0.2940  2.5515
 8467TIP3    H249597   2.733   6.948  11.809 -1.7899  2.4290 -1.6960
 8468TIP3   OH249598   7.186   6.327  11.929  0.0066  0.8936 -0.0393
 8468TIP3    H149599   7.272   6.293  11.904  0.6450 -0.4838  3.4617
 8468TIP3    H249600   7.194   6.422  11.921  1.7787  0.7664 -0.1132
 8469TIP3   OH249601   5.621   6.113  12.527 -0.3907  0.0915  0.6160
 8469TIP3    H149602   5.615   6.139  12.619  1.9367 -0.3463  0.9750
 8469TIP3    H249603   5.702   6.155  12.496 -0.8555 -0.1914 -1.0866
 8470TIP3   OH249604   6.878   1.521  12.827 -0.9483  0.2328  0.2124
 8470TIP3    H149605   6.866   1.478  12.912 -1.5090  0.6787  0.3644
 8470TIP3    H249606   6.886   1.614  12.847 -0.3274  0.2631 -0.1659
 8471TIP3   OH249607   6.866   3.977  10.749  0.2138  0.4614  0.2546
 8471TIP3    H149608   6.900   4.061  10.720  0.7624  0.6079  1.2786
 8471TIP3    H249609   6.791   3.999  10.804 -0.0948  0.2464 -0.0773
 8472TIP3   OH249610   7.224   4.081  12.125 -0.8463  0.2877 -0.6379
 8472TIP3    H149611   7.197   4.172  12.120  2.6563  1.5601  0.4995
 8472TIP3    H249612   7.301   4.076  12.068  1.3669 -0.8542  2.2107
 8473TIP3   OH249613   2.475   3.611  11.333 -0.4026 -0.3247 -0.6395
 8473TIP3    H149614   2.485   3.693  11.286  1.2781 -0.6560 -0.9062
 8473TIP3    H249615   2.395   3.572  11.297 -2.1567  1.8573  0.5948
 8474TIP3   OH249616   5.054   3.350  12.050  0.2544 -0.3718  0.1885
 8474TIP3    H149617   4.975   3.367  12.100 -0.2404  2.1842 -1.2649
 8474TIP3    H249618   5.035   3.270  12.000 -1.0605 -0.2735  0.5144
 8475TIP3   OH249619   6.330   6.650  12.753 -0.0465  0.0475 -0.3110
 8475TIP3    H149620   6.354   6.582  12.691  1.2727  1.5443 -1.5170
 8475TIP3    H249621   6.236   6.662  12.740  0.1844  0.2572 -1.9759
 8476TIP3   OH249622   6.228   1.822  11.547  0.1925  0.6415  0.1299
 8476TIP3    H149623   6.171   1.899  11.551 -0.9234 -0.0597 -1.2929
 8476TIP3    H249624   6.313   1.857  11.519 -0.1242  1.4328  0.1318
 8477TIP3   OH249625   7.301   0.097  12.092  0.1059 -0.3853 -0.0156
 8477TIP3    H149626   7.241   0.162  12.127  1.3099  1.3918 -1.1101
 8477TIP3    H249627   7.250   0.051  12.025 -0.5290 -0.0915  0.2615
 8478TIP3   OH249628   5.912   5.084  11.910  0.2137  0.2788 -0.4902
 8478TIP3    H149629   5.835   5.096  11.855 -0.6040 -0.8422  0.3476
 8478TIP3    H249630   5.890   5.009  11.966  1.5087  0.5758  0.4756
 8479TIP3   OH249631   0.046   2.031  11.685  0.3920 -0.5113 -0.1106
 8479TIP3    H149632   0.100   2.075  11.751  0.3041  0.8053 -0.8808
 8479TIP3    H249633  -0.043   2.038  11.717  0.1991  1.2312 -0.9083
 8480TIP3   OH249634   6.413   2.476  11.164  0.5751  0.3063  0.2899
 8480TIP3    H149635   6.339   2.519  11.208 -0.2931 -1.2857  0.4528
 8480TIP3    H249636   6.395   2.486  11.071  0.0240 -0.2667  0.3292
 8481TIP3   OH249637   2.905   3.872  13.187  0.1680  0.2713 -0.9128
 8481TIP3    H149638   2.916   3.927  13.264  0.4829 -1.5877  0.4219
 8481TIP3    H249639   2.976   3.898  13.128  1.4901  0.0015  0.5111
 8482TIP3   OH249640   6.703   1.639  13.020  0.1546  0.0216 -0.0807
 8482TIP3    H149641   6.664   1.691  13.090  2.1624  0.2570  0.9241
 8482TIP3    H249642   6.767   1.697  12.978 -0.0422 -0.5553 -1.2338
 8483TIP3   OH249643   0.793   6.268  12.682 -0.1776  0.3430  0.1458
 8483TIP3    H149644   0.854   6.329  12.722  0.5183  0.1610 -0.6068
 8483TIP3    H249645   0.758   6.216  12.755 -0.6101  1.4762  0.7617
 8484TIP3   OH249646   2.608   1.239  12.451 -0.4893  0.0127 -0.5041
 8484TIP3    H149647   2.639   1.176  12.516  1.9144  0.3544 -1.1991
 8484TIP3    H249648   2.545   1.190  12.399  0.5669 -1.5553 -0.4080
 8485TIP3   OH249649   6.259   4.004  11.112 -0.0347 -0.4354 -0.2576
 8485TIP3    H149650   6.280   4.065  11.041  0.3439 -0.2293  0.0268
 8485TIP3    H249651   6.339   3.952  11.122 -0.2366 -0.7490 -0.2654
 8486TIP3   OH249652   2.584   4.604  12.855 -0.6159 -0.0857 -0.4627
 8486TIP3    H149653   2.532   4.684  12.850 -0.5633 -0.0716 -0.7923
 8486TIP3    H249654   2.556   4.552  12.780 -1.8171 -1.0894  0.6371
 8487TIP3   OH249655   5.405   1.454  12.243  0.2537  0.7027  0.4868
 8487TIP3    H149656   5.471   1.433  12.176  0.9943  0.2131  1.3454
 8487TIP3    H249657   5.402   1.376  12.298 -2.2706  0.0224 -0.4770
 8488TIP3   OH249658   4.949   2.132  11.368 -0.2613  0.2078 -0.8216
 8488TIP3    H149659   4.873   2.183  11.395 -0.2741 -0.0876 -0.2845
 8488TIP3    H249660   4.927   2.100  11.281 -0.6023  0.4205 -0.8140
 8489TIP3   OH249661   4.322   1.206  11.348 -0.1285 -0.4022  0.0674
 8489TIP3    H149662   4.294   1.288  11.307 -1.1834 -0.1254  1.2601
 8489TIP3    H249663   4.372   1.233  11.425 -0.1622 -0.8740  0.2588
 8490TIP3   OH249664   2.925   5.560  13.097 -0.4369 -0.0301  0.2228
 8490TIP3    H149665   2.987   5.622  13.058  0.6251  0.4695  2.5382
 8490TIP3    H249666   2.843   5.577  13.052  0.8155  0.0694 -2.1609
 8491TIP3   OH249667   6.019   5.748  11.833  0.3964 -0.0742  0.9333
 8491TIP3    H149668   6.059   5.815  11.778  0.9171 -0.5504  0.7292
 8491TIP3    H249669   5.925   5.762  11.821  0.4987  0.3223  0.5252
 8492TIP3   OH249670   7.363   0.359  11.402 -0.1682 -0.1367 -0.3052
 8492TIP3    H149671   7.400   0.349  11.490 -2.3946 -0.9961  0.5963
 8492TIP3    H249672   7.432   0.327  11.344  0.8194 -0.9101  1.2125
 8493TIP3   OH249673   4.573   1.414  11.964 -0.0088  0.1460 -0.7202
 8493TIP3    H149674   4.664   1.432  11.941  0.5405 -1.7137 -0.1952
 8493TIP3    H249675   4.523   1.486  11.924  1.7051  1.4023 -0.6856
 8494TIP3   OH249676   6.319   3.643  10.942 -0.2814  0.0562  0.0142
 8494TIP3    H149677   6.360   3.616  10.860  0.2844 -0.6918  0.5266
 8494TIP3    H249678   6.225   3.633  10.926 -0.1262 -1.6970 -0.0377
 8495TIP3   OH249679   3.834   3.670  12.457 -0.4342  0.1684 -0.3408
 8495TIP3    H149680   3.859   3.586  12.418 -1.4964  0.9166 -2.8637
 8495TIP3    H249681   3.902   3.731  12.429 -0.2251  0.4004  0.6146
 8496TIP3   OH249682   7.083   5.435  12.455  0.3061  0.5677  0.3304
 8496TIP3    H149683   7.089   5.499  12.384  0.5853  0.6120  0.3951
 8496TIP3    H249684   7.173   5.421  12.482  0.3403 -0.5144 -0.2752
 8497TIP3   OH249685   6.637   2.319  13.291  0.0780 -0.4475  0.5589
 8497TIP3    H149686   6.543   2.337  13.296  0.0406 -0.6355  0.5215
 8497TIP3    H249687   6.667   2.320  13.382  0.2362  0.6596  0.5061
 8498TIP3   OH249688   1.328   4.068  12.787  0.1385 -1.1681 -0.5368
 8498TIP3    H149689   1.256   4.129  12.804  1.2221 -0.2880  1.2246
 8498TIP3    H249690   1.395   4.093  12.850  1.9925 -1.9814 -2.0829
 8499TIP3   OH249691   4.720   5.667  12.325  0.1837  0.0305  0.3509
 8499TIP3    H149692   4.685   5.676  12.237  0.7458 -0.2937  0.0882
 8499TIP3    H249693   4.702   5.752  12.367 -0.5587  0.0055  0.1080
 8500TIP3   OH249694   3.597   2.548  12.842  0.2846  0.1891 -0.1276
 8500TIP3    H149695   3.525   2.533  12.904 -0.5424  1.0559 -0.8406
 8500TIP3    H249696   3.608   2.464  12.797 -0.6312  0.1738 -0.3494
 8501TIP3   OH249697   3.715   3.369  13.384 -0.2877  0.4245 -0.1996
 8501TIP3    H149698   3.808   3.347  13.378  0.2609  2.3936  0.3821
 8501TIP3    H249699   3.703   3.396  13.475 -0.8635  2.4232 -0.8272
 8502TIP3   OH249700   3.684   5.006  13.970  0.4238 -0.5413 -0.4570
 8502TIP3    H149701   3.749   4.960  13.916  1.6486  0.6087 -0.0238
 8502TIP3    H249702   3.685   4.960  14.053  0.2837 -0.8633 -0.6331
 8503TIP3   OH249703   4.665   5.044  11.383 -0.2984  1.0152 -0.1729
 8503TIP3    H149704   4.598   5.005  11.438  0.7754  1.4172  1.4974
 8503TIP3    H249705   4.687   5.127  11.426  1.1867  0.9337 -0.7061
 8504TIP3   OH249706   1.873   6.651  12.473  0.1502 -0.1795  0.0145
 8504TIP3    H149707   1.904   6.739  12.493  1.4172 -0.4511 -0.6201
 8504TIP3    H249708   1.825   6.624  12.551 -0.0166  0.9554  0.3233
 8505TIP3   OH249709   5.944   5.281  11.394  0.2363 -0.2999 -0.1729
 8505TIP3    H149710   6.032   5.291  11.431  0.2332 -0.7733 -0.0363
 8505TIP3    H249711   5.942   5.193  11.358 -0.3274 -0.4621  0.2276
 8506TIP3   OH249712   3.976   6.865  13.023 -0.0721  0.1921 -0.0456
 8506TIP3    H149713   3.962   6.866  13.118 -1.7282  1.4463 -0.2749
 8506TIP3    H249714   3.890   6.882  12.986  1.0518  2.7798 -1.7193
 8507TIP3   OH249715   4.519   2.149  12.085  0.1777 -0.3624 -0.4705
 8507TIP3    H149716   4.495   2.187  12.000  0.8092  0.1329 -0.4404
 8507TIP3    H249717   4.579   2.213  12.123 -0.0920 -0.5867  0.3488
 8508TIP3   OH249718   1.329   7.260  11.291  0.0183 -0.4482  0.1048
 8508TIP3    H149719   1.396   7.194  11.306  1.0437  0.4277 -0.4773
 8508TIP3    H249720   1.344   7.290  11.201 -3.3318 -2.6469 -1.3744
 8509TIP3   OH249721   7.458   4.304  12.576  0.0043  0.0914 -0.0624
 8509TIP3    H149722   7.461   4.241  12.505  0.0055  1.0055 -0.8998
 8509TIP3    H249723   7.545   4.345  12.575  0.3947 -0.6633  1.2002
 8510TIP3   OH249724   5.788   5.250  11.641  0.0458  0.5144 -0.3056
 8510TIP3    H149725   5.823   5.259  11.552  0.7232 -1.2287 -0.2679
 8510TIP3    H249726   5.846   5.303  11.695 -0.9570  2.3951 -0.9852
 8511TIP3   OH249727   7.398   6.716  10.858  0.1993  0.7435 -0.0301
 8511TIP3    H149728   7.324   6.671  10.899  1.2852  0.3485  1.6100
 8511TIP3    H249729   7.375   6.809  10.862 -0.3051  0.6095  0.2830
 8512TIP3   OH249730   3.354   6.080  12.334  0.0223  0.1540  0.1202
 8512TIP3    H149731   3.424   6.018  12.313 -0.3646 -0.6239  1.0455
 8512TIP3    H249732   3.333   6.122  12.250 -1.1021 -2.4294 -0.9979
 8513TIP3   OH249733   2.733   2.403  11.151  0.1827 -0.1663  0.3380
 8513TIP3    H149734   2.643   2.418  11.120  0.3456 -2.2021 -1.3334
 8513TIP3    H249735   2.787   2.459  11.094  0.0612  0.2440  0.6237
 8514TIP3   OH249736   6.332   3.776  12.937 -0.2555 -0.2985  0.5575
 8514TIP3    H149737   6.292   3.785  13.023  3.4251  1.3979  2.3052
 8514TIP3    H249738   6.311   3.858  12.892  0.9906  0.5028  1.3893
 8515TIP3   OH249739   1.991   1.475  13.023 -0.0424 -0.0360 -0.0885
 8515TIP3    H149740   2.054   1.428  12.969 -0.5709 -1.1796  0.2611
 8515TIP3    H249741   2.010   1.446  13.112  0.8746  1.8921  0.3987
 8516TIP3   OH249742   6.114   1.099  12.194 -0.0972  0.3113  0.2233
 8516TIP3    H149743   6.021   1.122  12.195 -0.5640 -1.2163 -1.6021
 8516TIP3    H249744   6.127   1.048  12.274 -1.6237 -2.0151 -0.8954
 8517TIP3   OH249745   5.434   2.795  12.249 -0.2404  0.0425  0.2494
 8517TIP3    H149746   5.373   2.820  12.180 -0.8416  0.2561  0.8362
 8517TIP3    H249747   5.378   2.763  12.320  0.3404  0.1181  0.7563
 8518TIP3   OH249748   3.773   0.893  13.236  0.3256 -0.4134  0.3100
 8518TIP3    H149749   3.847   0.918  13.291  1.7784 -2.2765 -0.6532
 8518TIP3    H249750   3.753   0.803  13.263  1.5671 -1.6989 -2.5095
 8519TIP3   OH249751   3.966   0.068  11.355  0.4598 -0.0540  0.5753
 8519TIP3    H149752   3.901   0.052  11.423 -0.6618  1.9404  0.0275
 8519TIP3    H249753   3.955  -0.006  11.294 -0.3049 -0.4762  1.2041
 8520TIP3   OH249754   2.207   6.525  12.573 -0.1414  0.0566 -0.0195
 8520TIP3    H149755   2.262   6.577  12.515 -0.5784  1.3328  0.6435
 8520TIP3    H249756   2.185   6.585  12.645 -0.4559 -1.1467  0.9298
 8521TIP3   OH249757   0.817   2.975  13.340 -0.5712 -0.0452 -0.3778
 8521TIP3    H149758   0.733   2.956  13.382 -1.5579 -0.1467 -2.3045
 8521TIP3    H249759   0.872   2.900  13.362 -0.6998  0.3388  1.4802
 8522TIP3   OH249760   5.970   7.492  13.129  0.2149  0.2647 -0.3431
 8522TIP3    H149761   5.905   7.466  13.065 -1.1631  2.2184  0.1671
 8522TIP3    H249762   6.052   7.457  13.096 -0.8701 -1.0712 -1.7446
 8523TIP3   OH249763   0.417   4.222  10.587  0.2281 -0.1091 -0.0802
 8523TIP3    H149764   0.436   4.131  10.562  1.5147  0.5157 -1.6239
 8523TIP3    H249765   0.322   4.230  10.580  0.2006 -1.0594 -1.0197
 8524TIP3   OH249766   3.821   3.044  11.165 -0.1032 -0.2159 -0.0594
 8524TIP3    H149767   3.893   3.016  11.222 -0.1516 -0.5985 -0.1837
 8524TIP3    H249768   3.849   3.130  11.132  0.2548 -0.3201 -0.0352
 8525TIP3   OH249769   1.435   3.811  11.685  1.0201  0.0725  0.0630
 8525TIP3    H149770   1.349   3.778  11.711  0.6298 -0.7895 -2.0981
 8525TIP3    H249771   1.437   3.901  11.716 -0.6456  0.0949  0.1780
 8526TIP3   OH249772   2.010   2.257  12.274  0.2169  0.1802  0.3204
 8526TIP3    H149773   2.038   2.344  12.248 -1.5263 -0.1654 -3.3282
 8526TIP3    H249774   1.954   2.271  12.350  2.3264  1.7902  1.7081
 8527TIP3   OH249775   5.409   5.143  13.618 -0.1749 -0.0038 -0.0946
 8527TIP3    H149776   5.495   5.164  13.582  0.9256 -1.9459  1.2340
 8527TIP3    H249777   5.410   5.048  13.628 -3.0666 -0.2894 -1.4117
 8528TIP3   OH249778   3.694   4.690  11.213 -0.2897  0.5431  0.5160
 8528TIP3    H149779   3.778   4.732  11.198  0.0999 -0.2000  0.5734
 8528TIP3    H249780   3.631   4.741  11.161  0.0918  1.4524  0.9327
 8529TIP3   OH249781   2.989   6.550  11.478  0.1009 -0.5698 -0.1005
 8529TIP3    H149782   3.074   6.593  11.488  0.3523 -0.3969 -2.4418
 8529TIP3    H249783   3.004   6.460  11.508  1.3726 -0.7762 -1.2338
 8530TIP3   OH249784   4.887   5.997  11.504 -0.6313  0.5252 -0.2445
 8530TIP3    H149785   4.872   5.979  11.411  0.1015 -3.3521  0.2277
 8530TIP3    H249786   4.976   5.965  11.521 -1.6383 -1.2963  2.2282
 8531TIP3   OH249787   1.924   6.832  12.950 -0.0741 -0.0746  0.5702
 8531TIP3    H149788   1.865   6.899  12.984 -2.4320 -0.8179 -1.7259
 8531TIP3    H249789   1.904   6.754  13.002 -0.2812 -0.0247  0.5663
 8532TIP3   OH249790   4.191   5.671  11.772 -0.0555 -0.1870  0.0102
 8532TIP3    H149791   4.218   5.762  11.759 -0.7508 -0.1522 -1.2891
 8532TIP3    H249792   4.234   5.645  11.854  1.2525  0.8699 -0.3142
 8533TIP3   OH249793   4.188   5.100  12.997 -0.1206 -0.3172 -0.0857
 8533TIP3    H149794   4.108   5.151  13.010  1.1029  1.5876  0.4107
 8533TIP3    H249795   4.249   5.134  13.062  0.7473 -2.5859  0.3722
 8534TIP3   OH249796   7.630   6.730  11.066  0.3546 -0.2546 -0.0832
 8534TIP3    H149797   7.674   6.652  11.098 -1.3453 -1.0157  0.5184
 8534TIP3    H249798   7.578   6.699  10.991 -0.0710  0.3565 -0.0467
 8535TIP3   OH249799   3.731   3.382  12.762 -0.6622 -0.3418  0.5566
 8535TIP3    H149800   3.738   3.307  12.822  0.1185 -0.2415  0.6104
 8535TIP3    H249801   3.703   3.455  12.818  0.9451 -0.0301  1.0207
 8536TIP3   OH249802   0.854   3.309  10.844 -0.0237 -0.0605  0.2094
 8536TIP3    H149803   0.851   3.219  10.811  3.2375  0.3937 -1.7363
 8536TIP3    H249804   0.886   3.300  10.934 -1.1512 -0.9050  0.5392
 8537TIP3   OH249805   3.359   1.168  11.455 -0.1873 -0.2763  0.0660
 8537TIP3    H149806   3.270   1.151  11.486 -0.3602 -2.6736 -1.5210
 8537TIP3    H249807   3.350   1.240  11.393 -0.7995  0.3051  0.8053
 8538TIP3   OH249808   2.381   0.209  12.636  0.1256 -0.0598 -0.5063
 8538TIP3    H149809   2.436   0.185  12.561  0.7137 -0.2156 -0.0311
 8538TIP3    H249810   2.292   0.211  12.600  0.1740 -1.8272 -0.8532
 8539TIP3   OH249811   1.765   6.020  12.565  0.0032 -0.0797 -0.0884
 8539TIP3    H149812   1.781   6.114  12.579  0.4891 -0.2380  0.4458
 8539TIP3    H249813   1.712   6.017  12.485 -0.5327  0.6908  0.2197
 8540TIP3   OH249814   4.025   0.547  13.115 -0.0486 -0.0072 -0.2582
 8540TIP3    H149815   4.054   0.463  13.151  0.5629  0.5581  0.6053
 8540TIP3    H249816   4.008   0.601  13.192 -0.7988  0.5466 -0.8020
 8541TIP3   OH249817   4.281   4.832  12.387  0.2680  0.3609  0.3111
 8541TIP3    H149818   4.298   4.788  12.471 -0.6416 -0.1002  0.2633
 8541TIP3    H249819   4.222   4.904  12.409 -0.0895  0.1499  0.0385
 8542TIP3   OH249820   1.561   4.643  11.267  0.3708  0.1957  0.6931
 8542TIP3    H149821   1.469   4.621  11.254  0.5278  0.4819 -1.0785
 8542TIP3    H249822   1.574   4.722  11.214  0.9095  2.0189  3.3196
 8543TIP3   OH249823   6.040   4.370  12.401  0.5380  0.3143 -0.2106
 8543TIP3    H149824   5.974   4.379  12.470 -0.4686 -0.8074 -1.0048
 8543TIP3    H249825   6.105   4.309  12.438  0.1210 -0.1004 -0.1529
 8544TIP3   OH249826   6.579   2.101  11.852  0.6864 -0.4342  0.1391
 8544TIP3    H149827   6.527   2.162  11.798  0.3588  0.7764  1.7442
 8544TIP3    H249828   6.655   2.080  11.798  0.0120  0.1593 -1.0754
 8545TIP3   OH249829   7.016   1.925  11.397  0.4974  0.8070 -0.0072
 8545TIP3    H149830   6.977   1.871  11.466  4.4106  0.1853  2.0280
 8545TIP3    H249831   6.952   1.924  11.326 -2.1907 -1.5639  2.2136
 8546TIP3   OH249832   2.656   6.709  13.661 -0.4967 -0.1845 -0.0962
 8546TIP3    H149833   2.643   6.796  13.625  1.7137  0.4649  0.5139
 8546TIP3    H249834   2.610   6.711  13.745 -0.6132  0.3228 -0.1692
 8547TIP3   OH249835   6.610   5.215  11.871 -0.4003  0.1662 -0.1374
 8547TIP3    H149836   6.598   5.284  11.805  1.0076  1.1786  0.6008
 8547TIP3    H249837   6.522   5.182  11.888 -1.1262  1.8197 -0.4929
 8548TIP3   OH249838   5.082   6.867  11.032 -0.7959  0.1235  0.2100
 8548TIP3    H149839   5.086   6.773  11.017 -1.3032  0.1259  0.0604
 8548TIP3    H249840   5.121   6.879  11.119  0.2320 -0.1054 -0.2132
 8549TIP3   OH249841   2.774   2.498  11.412 -0.7531 -0.0440  0.1613
 8549TIP3    H149842   2.766   2.483  11.318 -0.0784  0.2562  0.0492
 8549TIP3    H249843   2.689   2.532  11.439 -1.4979 -1.6491 -0.0285
 8550TIP3   OH249844   2.340   0.831  17.814 -0.1836  0.7326  0.0999
 8550TIP3    H149845   2.408   0.898  17.820 -0.0129  0.4359  2.2299
 8550TIP3    H249846   2.273   0.859  17.877  1.1493 -2.3642  3.2672
 8551TIP3   OH249847   0.325   5.912  11.410  0.7487 -0.2095  0.3471
 8551TIP3    H149848   0.238   5.885  11.439  0.7555 -1.1099 -0.4049
 8551TIP3    H249849   0.384   5.882  11.480  0.5262 -0.1966  0.5410
 8552TIP3   OH249850   0.067   6.495  11.234  0.3417 -0.0012 -0.6069
 8552TIP3    H149851  -0.002   6.429  11.222 -1.9296  2.2801 -1.0788
 8552TIP3    H249852   0.131   6.476  11.165 -0.6042 -1.2672 -1.1802
 8553TIP3   OH249853   1.737   2.729  11.433 -0.5425  0.2624  0.2368
 8553TIP3    H149854   1.790   2.807  11.416 -0.7400  0.5757  0.9844
 8553TIP3    H249855   1.662   2.762  11.484 -0.2391 -0.5202  1.2234
 8554TIP3   OH249856   1.986   4.957  12.876 -0.0312 -0.1299  0.0461
 8554TIP3    H149857   2.056   5.023  12.868 -0.8274  0.6624 -0.5220
 8554TIP3    H249858   2.029   4.883  12.919  1.6924 -0.4112 -1.9367
 8555TIP3   OH249859   6.296   5.846  12.161  0.2431 -1.1512 -0.2062
 8555TIP3    H149860   6.380   5.885  12.182  0.6478 -1.2034 -1.6152
 8555TIP3    H249861   6.233   5.895  12.213  0.7902  1.1206 -1.5418
 8556TIP3   OH249862   4.823   1.447  11.320 -0.2275 -0.3400  0.7526
 8556TIP3    H149863   4.899   1.390  11.305  1.6680  2.4867 -1.2541
 8556TIP3    H249864   4.755   1.412  11.261 -0.0164 -1.9188  1.3797
 8557TIP3   OH249865   2.217   1.458  12.221 -0.1295  1.0717  0.2075
 8557TIP3    H149866   2.273   1.479  12.146 -3.9860  3.7252 -2.3280
 8557TIP3    H249867   2.229   1.532  12.281 -0.3782  1.2758  0.0068
 8558TIP3   OH249868   3.362   3.626  10.834 -0.0314  0.1601 -0.8148
 8558TIP3    H149869   3.410   3.708  10.828  0.0427  0.3956  1.8655
 8558TIP3    H249870   3.270   3.652  10.839 -0.2495 -0.1203 -2.7061
 8559TIP3   OH249871   4.034   0.054  10.977  0.0146 -0.0206 -0.0676
 8559TIP3    H149872   3.941   0.033  10.970 -0.0579  0.1215  0.4110
 8559TIP3    H249873   4.040   0.146  10.954 -0.0038  0.0430  0.1808
 8560TIP3   OH249874   3.357   4.078  13.145 -0.2818 -0.6337 -0.1229
 8560TIP3    H149875   3.369   4.116  13.058  1.1081 -0.2740  0.2051
 8560TIP3    H249876   3.446   4.070  13.181 -0.7333 -1.8477  0.8175
 8561TIP3   OH249877   7.031   3.391  12.771  0.2960 -0.1920 -0.6080
 8561TIP3    H149878   7.094   3.463  12.774  1.0928 -0.8361 -1.3013
 8561TIP3    H249879   6.953   3.429  12.731  1.9257 -0.5025 -4.5823
 8562TIP3   OH249880   5.999   5.373  17.704  0.0472 -0.3010  0.0041
 8562TIP3    H149881   6.044   5.450  17.739  0.1659 -0.0440 -0.7163
 8562TIP3    H249882   6.058   5.338  17.638 -1.1519  0.5377 -1.5686
 8563TIP3   OH249883   0.009   1.584  12.767  0.1048  0.1763  0.4835
 8563TIP3    H149884   0.072   1.539  12.823  1.2349  0.9510 -0.1247
 8563TIP3    H249885   0.006   1.530  12.688 -1.0110 -0.5732  1.0178
 8564TIP3   OH249886   2.167   7.641  13.437  0.0778  0.0470  0.1767
 8564TIP3    H149887   2.090   7.587  13.420 -0.3782  1.2682 -2.0194
 8564TIP3    H249888   2.234   7.579  13.466 -0.9684 -1.3968 -0.4067
 8565TIP3   OH249889   2.201   5.151  12.906  0.0509  0.5139  0.2936
 8565TIP3    H149890   2.152   5.203  12.842 -2.3644 -2.3597 -0.4338
 8565TIP3    H249891   2.209   5.208  12.983 -2.5958  1.9380 -0.3648
 8566TIP3   OH249892   1.824   2.332  11.796 -0.3534 -0.1472  0.3810
 8566TIP3    H149893   1.893   2.337  11.730  2.8014  0.1803  3.4286
 8566TIP3    H249894   1.749   2.376  11.756  1.4660  0.3341 -2.7832
 8567TIP3   OH249895   3.591   4.592  13.127 -0.0262  0.2468  0.2681
 8567TIP3    H149896   3.633   4.518  13.084 -0.2258  0.2468  0.0702
 8567TIP3    H249897   3.506   4.559  13.154 -0.0871  0.3835  0.2438
 8568TIP3   OH249898   3.363   4.147  10.846 -0.1654  0.4977  0.0400
 8568TIP3    H149899   3.271   4.156  10.870 -0.5301  0.8943 -1.4111
 8568TIP3    H249900   3.400   4.234  10.858 -0.3093  0.6569 -0.6052
 8569TIP3   OH249901   1.343   6.534  12.821 -0.0395  0.2626 -0.2489
 8569TIP3    H149902   1.351   6.568  12.731  0.9619 -0.7063 -0.5570
 8569TIP3    H249903   1.331   6.439  12.809 -0.9493  0.2568  0.6286
 8570TIP3   OH249904   2.888   5.476  11.999 -0.0858  0.1558  0.3492
 8570TIP3    H149905   2.950   5.421  12.046 -1.1897 -1.8929 -0.4404
 8570TIP3    H249906   2.892   5.444  11.909 -1.8727  0.3119  0.1789
 8571TIP3   OH249907   3.548   5.867  12.212  0.1259  0.3930 -0.3746
 8571TIP3    H149908   3.495   5.819  12.148  2.7803 -0.7963 -1.8369
 8571TIP3    H249909   3.626   5.894  12.163  1.1954  1.4832  1.8011
 8572TIP3   OH249910   5.800   2.094  12.121  0.0218 -0.1888 -0.5651
 8572TIP3    H149911   5.752   2.031  12.175  0.6435 -1.9753 -1.9987
 8572TIP3    H249912   5.733   2.154  12.089 -0.6202 -0.2155  0.6439
 8573TIP3   OH249913   4.255   6.743  11.759  0.1208  0.0040 -0.0127
 8573TIP3    H149914   4.204   6.667  11.787 -0.5487  0.2086 -0.6231
 8573TIP3    H249915   4.269   6.793  11.839 -0.0771 -0.3929  0.2741
 8574TIP3   OH249916   5.112   0.561  13.460  0.1858  0.0109  0.0921
 8574TIP3    H149917   5.170   0.487  13.481 -0.2159 -0.2742  0.2033
 8574TIP3    H249918   5.029   0.539  13.501  0.5912  1.4411  1.7817
 8575TIP3   OH249919   3.477   5.807  13.075  0.1688 -0.2576  0.0502
 8575TIP3    H149920   3.564   5.847  13.084  0.3318 -0.0633 -1.9500
 8575TIP3    H249921   3.437   5.853  13.002 -1.3238 -0.8950  0.4340
 8576TIP3   OH249922   7.109   1.298  12.786  0.0079  0.3595 -0.6955
 8576TIP3    H149923   7.101   1.277  12.693  1.0137 -1.3305 -0.4325
 8576TIP3    H249924   7.019   1.315  12.815 -0.5019 -0.7055 -1.6209
 8577TIP3   OH249925   2.587   6.076  12.107 -0.5986 -0.3070  0.4834
 8577TIP3    H149926   2.514   6.135  12.125 -0.1843  0.0876  0.8892
 8577TIP3    H249927   2.548   5.988  12.113 -1.2071 -0.0841 -0.0917
 8578TIP3   OH249928   7.556   0.203  12.626 -0.4209  0.3487  1.1501
 8578TIP3    H149929   7.521   0.237  12.708 -1.5860 -1.5296  1.4892
 8578TIP3    H249930   7.627   0.145  12.652 -1.2023 -0.7506  0.9060
 8579TIP3   OH249931   1.197   5.787  13.646 -0.2269  0.0960  0.2567
 8579TIP3    H149932   1.259   5.847  13.688  0.8259 -0.2602 -0.7481
 8579TIP3    H249933   1.165   5.836  13.570 -0.6646  0.0145  0.3856
 8580TIP3   OH249934   5.859   5.601  11.014 -0.7020 -0.4580  0.0989
 8580TIP3    H149935   5.899   5.634  11.094 -0.6986 -1.7460  0.6456
 8580TIP3    H249936   5.911   5.639  10.943 -0.2258  0.0626  0.7215
 8581TIP3   OH249937   1.999   4.827  11.432  0.4511 -0.7434  0.2514
 8581TIP3    H149938   1.911   4.864  11.431  0.7806  0.1419  1.3501
 8581TIP3    H249939   1.985   4.734  11.452 -0.2498 -0.6819  0.0720
 8582TIP3   OH249940   5.592   5.939  13.388 -0.4291  0.1013 -0.4163
 8582TIP3    H149941   5.558   5.855  13.359  1.6395 -1.6152  1.6489
 8582TIP3    H249942   5.687   5.931  13.376  0.0432  1.1463  1.9921
 8583TIP3   OH249943   7.300   2.241  11.015  0.0806 -0.5889  0.5464
 8583TIP3    H149944   7.301   2.197  11.100 -0.9751 -2.8950 -0.5415
 8583TIP3    H249945   7.368   2.196  10.964  0.0593  0.1085 -0.1156
 8584TIP3   OH249946   5.812   6.088  11.559 -0.6514  0.3457 -0.0033
 8584TIP3    H149947   5.890   6.038  11.583 -0.3743  0.3845 -0.7744
 8584TIP3    H249948   5.744   6.057  11.618 -0.6289 -1.3489 -0.8099
 8585TIP3   OH249949   0.190   5.591  13.245  0.1354 -0.2595  0.4425
 8585TIP3    H149950   0.111   5.568  13.293 -0.0124 -0.8988 -0.0809
 8585TIP3    H249951   0.248   5.516  13.258 -0.1608 -0.7633 -0.8993
 8586TIP3   OH249952   3.228   0.391  12.332 -0.5167  0.5569  0.2907
 8586TIP3    H149953   3.242   0.480  12.299  2.5663 -0.0881 -0.4853
 8586TIP3    H249954   3.222   0.337  12.253 -0.4292 -0.1400  0.7535
 8587TIP3   OH249955   0.853   5.263  12.547 -0.1421  0.0245  0.4012
 8587TIP3    H149956   0.946   5.238  12.549 -0.3475 -0.7555  0.9932
 8587TIP3    H249957   0.841   5.314  12.627 -0.1261  0.4936  0.1030
 8588TIP3   OH249958   6.405   5.278  12.837 -0.1130 -0.2982 -0.1747
 8588TIP3    H149959   6.309   5.272  12.841 -0.3705  2.6172  1.0828
 8588TIP3    H249960   6.432   5.283  12.929  1.1908 -0.6086 -0.5299
 8589TIP3   OH249961   3.536   1.605  13.645 -0.7754  0.0459 -0.3935
 8589TIP3    H149962   3.489   1.529  13.680 -0.5337  0.3610  0.6636
 8589TIP3    H249963   3.625   1.573  13.629 -0.9219 -0.1349 -0.8529
 8590TIP3   OH249964   6.684   2.226  12.297 -0.3902  0.3700  0.4525
 8590TIP3    H149965   6.771   2.255  12.269 -0.9057  0.9547 -0.6228
 8590TIP3    H249966   6.649   2.300  12.347 -0.2735  0.1261  0.9060
 8591TIP3   OH249967   6.739   4.289  12.907  0.5393  0.2604  0.0295
 8591TIP3    H149968   6.816   4.320  12.953  1.4149  0.9636 -1.8008
 8591TIP3    H249969   6.763   4.294  12.814 -2.1328  1.7152 -0.6739
 8592TIP3   OH249970   3.679   3.450  11.200 -0.1929 -0.1515  0.1338
 8592TIP3    H149971   3.667   3.502  11.280  4.3637 -0.5634  1.3974
 8592TIP3    H249972   3.654   3.508  11.129 -1.4360  1.3551  1.7236
 8593TIP3   OH249973   7.042   1.193  12.520 -0.2265 -0.0399 -0.2377
 8593TIP3    H149974   7.049   1.103  12.489  0.9527 -0.6386  1.5916
 8593TIP3    H249975   7.074   1.246  12.447  0.1143 -1.1780 -0.9448
 8594TIP3   OH249976   4.787   3.779  11.948 -0.4331 -0.1499 -0.3314
 8594TIP3    H149977   4.734   3.752  11.873  1.4331  0.0471 -1.8017
 8594TIP3    H249978   4.757   3.723  12.019 -1.4241 -1.2384 -1.5453
 8595TIP3   OH249979   4.396   6.954  11.144  0.4913  0.1403 -0.1649
 8595TIP3    H149980   4.333   6.968  11.074  0.6046 -0.5840 -0.4158
 8595TIP3    H249981   4.481   6.951  11.099  0.5834 -0.1307  0.0282
 8596TIP3   OH249982   2.833   4.862  12.476 -0.0598  0.3806 -0.3136
 8596TIP3    H149983   2.867   4.890  12.390 -0.0003  1.0339 -0.0817
 8596TIP3    H249984   2.837   4.767  12.473  1.9593  0.4187 -0.2417
 8597TIP3   OH249985   2.985   1.816  10.814  0.4615  0.1030 -0.4298
 8597TIP3    H149986   2.949   1.812  10.903  0.0960  1.3940 -0.4990
 8597TIP3    H249987   2.921   1.768  10.761 -0.2027  0.7639 -0.2485
 8598TIP3   OH249988   4.591   7.483  10.974  0.1495  0.1126 -0.0663
 8598TIP3    H149989   4.591   7.400  10.926 -1.9595 -1.0992  1.8358
 8598TIP3    H249990   4.677   7.488  11.016  0.9295 -0.2138 -1.5714
 8599TIP3   OH249991   0.564   2.486  12.963 -0.5727 -0.1474 -0.3546
 8599TIP3    H149992   0.601   2.441  13.039 -1.1482  0.2095  0.1383
 8599TIP3    H249993   0.633   2.545  12.934  0.3618 -1.5979 -1.2561
 8600TIP3   OH249994   6.234   3.623  12.220 -0.5114 -0.1288  0.2563
 8600TIP3    H149995   6.266   3.607  12.309 -0.4369  0.1108  0.2739
 8600TIP3    H249996   6.308   3.664  12.175 -0.7290  0.2666  0.2459
 8601TIP3   OH249997   7.485   3.919  11.010  0.3769  0.0377 -0.6137
 8601TIP3    H149998   7.560   3.878  11.053 -0.9202 -0.9515  0.7879
 8601TIP3    H249999   7.524   3.987  10.955  2.3175 -0.6653 -0.2015
 8602TIP3   OH250000   1.175   2.790  12.265 -0.4131 -0.6629 -0.3764
 8602TIP3    H150001   1.200   2.842  12.188 -0.7259 -0.2520 -0.2092
 8602TIP3    H250002   1.253   2.738  12.286  1.2515  2.3147  1.5879
 8603TIP3   OH250003   1.143   5.248  12.567  0.1994  0.1030 -0.1326
 8603TIP3    H150004   1.168   5.248  12.474  0.9344 -2.1607  0.0084
 8603TIP3    H250005   1.215   5.292  12.612  0.4980 -0.0051 -0.4980
 8604TIP3   OH250006   4.854   3.551  11.634 -0.8301 -0.0198 -0.2953
 8604TIP3    H150007   4.913   3.477  11.645 -0.3427  0.4989  0.8080
 8604TIP3    H250008   4.769   3.518  11.663 -0.8459 -0.4572 -0.8419
 8605TIP3   OH250009   7.453   3.413  12.500 -0.1682 -0.3559 -0.0871
 8605TIP3    H150010   7.395   3.436  12.427  0.4043  0.4754 -0.2912
 8605TIP3    H250011   7.541   3.415  12.462  0.2463  1.2377  0.8856
 8606TIP3   OH250012   4.825   3.515  11.300 -0.1829  0.5544 -0.1164
 8606TIP3    H150013   4.865   3.544  11.382  1.0229  1.9634 -1.1435
 8606TIP3    H250014   4.897   3.474  11.252 -0.3404  1.6810 -1.3478
 8607TIP3   OH250015   2.839   1.767  12.415 -0.2515  0.0771  0.7540
 8607TIP3    H150016   2.864   1.799  12.329  0.3850 -0.1942  0.8283
 8607TIP3    H250017   2.787   1.688  12.397  0.3034 -0.2634  0.6243
 8608TIP3   OH250018   0.098   3.117  12.980 -0.0568 -0.0471  0.0429
 8608TIP3    H150019   0.193   3.107  12.993  0.0680 -0.3747 -1.0241
 8608TIP3    H250020   0.079   3.065  12.902 -1.2940 -0.8087  0.8182
 8609TIP3   OH250021   0.872   7.139  12.666 -0.1175 -0.6741  0.4111
 8609TIP3    H150022   0.793   7.100  12.629  0.5713  0.1429 -2.1244
 8609TIP3    H250023   0.944   7.092  12.624  0.7233  0.4306  0.5606
 8610TIP3   OH250024   4.733   0.265  11.906  0.4792  0.1197 -0.1282
 8610TIP3    H150025   4.820   0.248  11.870  0.4102  0.6227 -0.5513
 8610TIP3    H250026   4.677   0.199  11.865  0.9358 -1.2664  1.3873
 8611TIP3   OH250027   5.343   6.600  11.223 -0.2338  0.3105 -0.5726
 8611TIP3    H150028   5.345   6.674  11.283  1.6045  2.0780 -2.6400
 8611TIP3    H250029   5.251   6.574  11.219 -0.4783  0.1734  2.7745
 8612TIP3   OH250030   2.461   4.137  12.996 -0.6145 -0.1362 -0.2493
 8612TIP3    H150031   2.372   4.105  13.010 -0.6537  0.2905  0.5810
 8612TIP3    H250032   2.505   4.122  13.080 -0.3390  0.9967 -0.1760
 8613TIP3   OH250033   2.205   5.900  12.300  0.0374 -0.3147 -0.4057
 8613TIP3    H150034   2.123   5.933  12.261 -0.5499 -0.2377  0.8549
 8613TIP3    H250035   2.180   5.819  12.343  0.6491 -0.3249 -0.0685
 8614TIP3   OH250036   4.550   4.708  13.310  0.1312 -0.3074  0.3765
 8614TIP3    H150037   4.549   4.804  13.310 -0.2726 -0.1662  4.0194
 8614TIP3    H250038   4.615   4.684  13.375  0.1140 -2.5472 -0.3301
 8615TIP3   OH250039   2.875   1.428  11.168  0.1015 -0.2430 -0.9794
 8615TIP3    H150040   2.909   1.339  11.173  1.1301  0.2148  0.6135
 8615TIP3    H250041   2.783   1.417  11.141  0.4070 -1.7170 -1.4945
 8616TIP3   OH250042   2.921   2.155  11.048  0.4450 -0.2527  0.4483
 8616TIP3    H150043   2.935   2.186  11.138 -0.3357  0.6105  0.2868
 8616TIP3    H250044   3.003   2.174  11.003  1.2113 -1.5901  1.1999
 8617TIP3   OH250045   2.802   1.299  12.097 -0.1493 -0.0015 -0.2358
 8617TIP3    H150046   2.707   1.293  12.109 -0.2947  0.9334 -0.7649
 8617TIP3    H250047   2.836   1.324  12.183 -0.4865  0.5739 -0.2672
 8618TIP3   OH250048   7.436   6.239  11.908 -0.8846 -0.1400 -0.5484
 8618TIP3    H150049   7.510   6.290  11.942 -1.4691  2.3420 -2.6969
 8618TIP3    H250050   7.476   6.175  11.850 -0.3439  0.4747 -0.8614
 8619TIP3   OH250051   3.542   1.844  11.616  0.0249  0.1599  0.4948
 8619TIP3    H150052   3.557   1.783  11.544 -0.6934  1.3054 -0.6766
 8619TIP3    H250053   3.456   1.821  11.649 -1.8754  2.6115 -2.2408
 8620TIP3   OH250054   3.446   4.897  11.740  0.6415 -0.1937  0.6148
 8620TIP3    H150055   3.473   4.874  11.651 -1.6317 -0.9885  0.0530
 8620TIP3    H250056   3.497   4.838  11.796 -0.2535 -2.0800 -0.4275
 8621TIP3   OH250057   7.499   2.006  12.407 -0.4244 -0.7292  0.1169
 8621TIP3    H150058   7.543   1.942  12.464  1.6357  1.1006  0.7265
 8621TIP3    H250059   7.569   2.042  12.353 -1.1510  2.1160  0.9087
 8622TIP3   OH250060   2.063   6.811  11.017  0.1858  0.0355  0.1088
 8622TIP3    H150061   2.155   6.784  11.016  0.2533  0.2657  0.1945
 8622TIP3    H250062   2.032   6.792  10.928  0.6906  1.2427 -0.3443
 8623TIP3   OH250063   2.155   0.994  12.466 -0.0529  0.0617  0.2345
 8623TIP3    H150064   2.127   1.084  12.482  0.2229  0.1699  0.1170
 8623TIP3    H250065   2.143   0.982  12.372  2.1476  0.7686 -0.1999
 8624TIP3   OH250066   5.627   5.927  12.318 -0.1382 -0.0115  0.5025
 8624TIP3    H150067   5.544   5.879  12.318 -0.1948  0.0685 -0.5359
 8624TIP3    H250068   5.610   6.004  12.373 -0.8661  0.1864  0.0143
 8625TIP3   OH250069   7.002   0.488  11.270  0.0244 -0.0432  0.3250
 8625TIP3    H150070   6.908   0.482  11.249 -0.0062  0.9208  0.1175
 8625TIP3    H250071   7.033   0.398  11.265 -0.7936 -0.3188 -0.0906
 8626TIP3   OH250072   0.370   5.665  12.886  0.0473 -0.2460  0.5554
 8626TIP3    H150073   0.426   5.718  12.828  1.9547 -3.2052 -0.5142
 8626TIP3    H250074   0.286   5.661  12.840  0.5316  0.0825 -0.3847
 8627TIP3   OH250075   2.797   1.768  11.779 -0.2728  0.0272  0.3593
 8627TIP3    H150076   2.851   1.781  11.857 -0.0412  2.9008 -0.1663
 8627TIP3    H250077   2.834   1.690  11.737  1.1706 -0.1485  1.8590
 8628TIP3   OH250078   0.657   4.348  13.559 -0.2316  0.0757  0.3826
 8628TIP3    H150079   0.668   4.402  13.480  0.0035 -0.0236  0.3470
 8628TIP3    H250080   0.743   4.311  13.575 -1.1130 -3.4475 -1.8514
 8629TIP3   OH250081   1.062   5.853  10.898 -0.4312 -0.8622 -0.3245
 8629TIP3    H150082   0.988   5.836  10.840 -0.6132 -0.5597 -0.1827
 8629TIP3    H250083   1.066   5.948  10.905  0.1856 -0.8633 -0.6009
 8630TIP3   OH250084   4.567   0.658  12.131 -0.3874  0.1867 -0.1223
 8630TIP3    H150085   4.583   0.706  12.212 -0.1290  0.3851 -0.2913
 8630TIP3    H250086   4.589   0.720  12.062 -2.1944  0.6035 -0.3739
 8631TIP3   OH250087   2.179   1.106  11.127  0.1733  0.0802  0.3307
 8631TIP3    H150088   2.271   1.097  11.101 -0.1258  0.7694 -1.0457
 8631TIP3    H250089   2.167   1.200  11.141 -0.3880  0.0326  0.1935
 8632TIP3   OH250090   4.231   5.231  11.255  0.3199  0.6329  0.2759
 8632TIP3    H150091   4.243   5.140  11.229 -0.1220  0.3870  0.9235
 8632TIP3    H250092   4.136   5.244  11.257  0.3469  0.7741  1.3057
 8633TIP3   OH250093   5.094   6.404  12.594 -0.1940 -0.3835 -0.1430
 8633TIP3    H150094   5.061   6.379  12.680  0.1702 -0.0392  0.1009
 8633TIP3    H250095   5.053   6.488  12.575  1.6640  0.8116  0.8435
 8634TIP3   OH250096   3.745   3.499  13.059  0.1829 -0.3797 -0.1962
 8634TIP3    H150097   3.679   3.533  13.120  1.0340  0.8275  0.0944
 8634TIP3    H250098   3.760   3.409  13.088 -0.9628 -0.5140  0.0377
 8635TIP3   OH250099   3.711   0.992  12.980 -0.1415 -0.0162  0.1298
 8635TIP3    H150100   3.723   0.960  13.069 -1.9327  0.1276  0.4622
 8635TIP3    H250101   3.616   1.003  12.971  0.1592  2.1285 -1.0361
 8636TIP3   OH250102   1.800   6.720  11.076 -0.2326 -0.5099  0.6354
 8636TIP3    H150103   1.752   6.698  10.996  0.0068  0.9991  0.0528
 8636TIP3    H250104   1.890   6.733  11.047  0.0786 -1.0115  1.3470
 8637TIP3   OH250105   1.752   7.027  12.577  0.1615 -0.2936 -0.0572
 8637TIP3    H150106   1.660   7.015  12.603 -0.3269 -0.3904 -1.7248
 8637TIP3    H250107   1.795   6.947  12.605 -0.6194 -0.9463 -0.6652
 8638TIP3   OH250108   1.795   6.626  11.774  0.1660  0.3834  0.1550
 8638TIP3    H150109   1.873   6.681  11.780 -0.3381  1.1810 -0.5199
 8638TIP3    H250110   1.793   6.596  11.683  0.4701 -0.8183  0.5290
 8639TIP3   OH250111   4.612   1.823  12.422 -0.2379 -0.2626 -0.4347
 8639TIP3    H150112   4.555   1.896  12.394  0.0908  0.1427 -0.0540
 8639TIP3    H250113   4.675   1.863  12.482 -0.1974 -0.9068 -0.0370
 8640TIP3   OH250114   4.102   3.586  11.910  0.7077  0.1413 -0.4661
 8640TIP3    H150115   4.069   3.672  11.885 -1.2724 -0.1564  0.9275
 8640TIP3    H250116   4.036   3.524  11.879  1.0589 -0.6915  0.3852
 8641TIP3   OH250117   3.487   0.829  12.031 -0.8257  0.0676  0.7556
 8641TIP3    H150118   3.461   0.918  12.055  0.5678  0.7764 -0.2466
 8641TIP3    H250119   3.551   0.804  12.098 -0.9132 -0.0360  0.8014
 8642TIP3   OH250120   5.761   4.438  12.856 -0.0094 -0.1035 -0.1750
 8642TIP3    H150121   5.758   4.529  12.885  0.3091 -0.2405  0.2960
 8642TIP3    H250122   5.817   4.394  12.920  0.4574 -0.4754 -0.8262
 8643TIP3   OH250123   3.986   5.035  11.459  0.0766 -0.2122 -0.1063
 8643TIP3    H150124   3.977   5.118  11.412 -2.7464  0.9383  2.2103
 8643TIP3    H250125   4.050   5.054  11.528  0.8546 -0.5741 -0.7114
 8644TIP3   OH250126   4.043   1.172  12.415  0.4104  0.5613  0.0181
 8644TIP3    H150127   4.099   1.099  12.442 -0.5993 -0.1383  0.2554
 8644TIP3    H250128   4.083   1.249  12.456  0.3746 -0.1285  1.4019
 8645TIP3   OH250129   2.411   6.638  12.930  0.4690 -0.0237 -0.6789
 8645TIP3    H150130   2.403   6.709  12.994  2.0352 -1.0704  0.7883
 8645TIP3    H250131   2.329   6.641  12.881 -1.3264  0.2177  2.0882
 8646TIP3   OH250132   2.437   6.369  11.697 -0.0404 -0.0615 -0.1664
 8646TIP3    H150133   2.437   6.292  11.641  0.0449 -0.2067  0.0324
 8646TIP3    H250134   2.519   6.414  11.677  1.7462 -1.9272  2.3099
 8647TIP3   OH250135   3.790   1.680  12.310  0.6377 -0.5488 -0.0587
 8647TIP3    H150136   3.736   1.660  12.386 -0.0188  0.5293 -0.2166
 8647TIP3    H250137   3.867   1.625  12.319 -0.5175 -2.2019  0.1459
 8648TIP3   OH250138   4.068   6.048  12.198 -0.0701  0.1662  0.1647
 8648TIP3    H150139   4.109   6.015  12.278 -0.8697 -1.3295 -0.0004
 8648TIP3    H250140   3.974   6.051  12.219 -0.1357  1.1423 -0.2559
 8649TIP3   OH250141   2.081   5.040  12.207  0.2976  0.3533  0.3821
 8649TIP3    H150142   1.994   5.051  12.169 -0.6235  0.1716  2.3390
 8649TIP3    H250143   2.111   4.955  12.174 -0.2288  0.4440 -0.3454
 8650TIP3   OH250144   4.995   5.020  12.064 -0.7490  0.5957  0.0071
 8650TIP3    H150145   4.992   4.952  12.131 -0.7116  1.5103  0.9615
 8650TIP3    H250146   5.011   4.973  11.982  3.7261 -0.3474  1.1167
 8651TIP3   OH250147   4.527   6.177  12.692 -0.0176  0.1512 -0.9579
 8651TIP3    H150148   4.620   6.161  12.709 -0.1666  0.4124  0.1999
 8651TIP3    H250149   4.504   6.250  12.750 -1.0777 -0.2857 -0.7968
 8652TIP3   OH250150   3.377   4.826  12.930 -0.0919  0.1170  0.2107
 8652TIP3    H150151   3.454   4.851  12.981  0.0578  1.1034 -0.4811
 8652TIP3    H250152   3.367   4.895  12.865 -0.2427 -1.1286 -1.1496
 8653TIP3   OH250153   5.371   0.493  11.328 -0.1802  0.0726  0.0073
 8653TIP3    H150154   5.372   0.509  11.234  0.0858  2.8091  0.3969
 8653TIP3    H250155   5.302   0.550  11.361  0.8243  0.4081  1.6401
 8654TIP3   OH250156   1.113   2.361  12.024 -0.3916 -0.3264  0.2214
 8654TIP3    H150157   1.081   2.411  12.099 -2.2969 -1.3430  0.1664
 8654TIP3    H250158   1.098   2.270  12.049  1.0910 -0.7890 -0.4999
 8655TIP3   OH250159   6.374   2.334  13.296 -0.5230 -0.0759  0.1418
 8655TIP3    H150160   6.339   2.346  13.385  0.1817 -0.0475  0.4234
 8655TIP3    H250161   6.340   2.249  13.268 -0.0672 -0.4769  0.7753
 8656TIP3   OH250162   0.408   1.743  11.284  0.1662  0.0706  0.1646
 8656TIP3    H150163   0.343   1.696  11.337  1.6658 -1.1538  1.0078
 8656TIP3    H250164   0.446   1.676  11.227 -0.3369  1.0669 -1.4078
 8657TIP3   OH250165   0.980   2.200  11.256  0.2439  0.2739  0.2570
 8657TIP3    H150166   0.973   2.127  11.318  0.2314  0.4645  0.4806
 8657TIP3    H250167   0.909   2.260  11.282 -0.5380 -0.2120 -0.6929
 8658TIP3   OH250168   7.295   0.440  11.932 -0.3367 -0.3963 -0.4466
 8658TIP3    H150169   7.322   0.474  12.017  0.1641  0.0614 -0.7808
 8658TIP3    H250170   7.341   0.495  11.868 -0.8793 -0.5882 -1.0163
 8659TIP3   OH250171   2.768   3.986  12.280  0.1087 -0.0087  0.2936
 8659TIP3    H150172   2.718   4.066  12.298  1.0075  0.4191  0.9385
 8659TIP3    H250173   2.772   3.940  12.364  0.8836  0.0124  0.2758
 8660TIP3   OH250174   6.713   1.437  12.625 -0.1872 -0.0010 -0.0873
 8660TIP3    H150175   6.726   1.477  12.711  1.7440 -0.3406 -0.1759
 8660TIP3    H250176   6.724   1.509  12.563  1.1631 -0.2324 -0.1471
 8661TIP3   OH250177   0.494   5.198  10.569  0.3426  0.0458 -0.3244
 8661TIP3    H150178   0.537   5.121  10.606  0.9073  1.3095  1.8044
 8661TIP3    H250179   0.404   5.171  10.554  0.4233 -0.9038  0.8347
 8662TIP3   OH250180   6.624   4.789  10.992 -0.2255 -0.0849  0.6168
 8662TIP3    H150181   6.691   4.801  10.924 -0.7037  0.4081  0.2183
 8662TIP3    H250182   6.668   4.740  11.061  0.7092  0.7005  0.6029
 8663TIP3   OH250183   4.985   5.881  12.104  0.3503  0.4903  0.3275
 8663TIP3    H150184   5.014   5.918  12.188  1.8614 -1.2617  0.6525
 8663TIP3    H250185   5.044   5.919  12.039 -1.1068  2.1946 -0.0578
 8664TIP3   OH250186   2.761   2.475  13.695 -0.1899 -0.1262  0.5207
 8664TIP3    H150187   2.717   2.559  13.679 -1.0594 -0.2630  1.9632
 8664TIP3    H250188   2.853   2.492  13.673 -1.0318 -0.2007 -3.8169
 8665TIP3   OH250189   5.963   4.170  11.104 -0.1968 -0.2472 -0.0760
 8665TIP3    H150190   5.916   4.088  11.117  1.7764 -1.1863  1.8580
 8665TIP3    H250191   6.031   4.148  11.040 -0.4561  0.2249 -0.5108
 8666TIP3   OH250192   6.884   2.730  11.329 -0.6789 -0.3621  0.2335
 8666TIP3    H150193   6.809   2.774  11.369 -0.2731  0.0194  0.5831
 8666TIP3    H250194   6.960   2.767  11.373 -0.3424 -1.9717  1.0868
 8667TIP3   OH250195   0.412   2.024  12.585  0.1488  0.2543  0.2302
 8667TIP3    H150196   0.414   2.032  12.489  0.9322  0.9486  0.2850
 8667TIP3    H250197   0.324   2.050  12.609 -0.8925 -2.3030 -0.4544
 8668TIP3   OH250198   2.658   6.060  10.969 -0.5315  0.1510 -0.1051
 8668TIP3    H150199   2.574   6.028  10.936 -0.3643  0.6554 -1.0760
 8668TIP3    H250200   2.648   6.062  11.064 -1.2843 -0.6930 -0.1594
 8669TIP3   OH250201   4.232   0.644  13.359  0.3986  0.2845  0.3875
 8669TIP3    H150202   4.205   0.651  13.450  2.0655 -2.4040  1.1909
 8669TIP3    H250203   4.320   0.606  13.362  0.5529  0.2066 -2.3240
 8670TIP3   OH250204   1.780   5.040  13.061 -0.2748 -0.7063  0.5683
 8670TIP3    H150205   1.837   5.008  12.991 -1.3147 -0.2055 -0.5447
 8670TIP3    H250206   1.814   4.999  13.141  0.2555 -2.1923 -0.3825
 8671TIP3   OH250207   2.966   2.384  11.643 -0.0038  0.3324 -0.0096
 8671TIP3    H150208   2.897   2.386  11.577  0.9631  0.6322 -1.0313
 8671TIP3    H250209   2.985   2.476  11.661  0.1579  0.2505  0.2549
 8672TIP3   OH250210   1.544   5.862  12.176  0.2962 -0.2051 -0.0437
 8672TIP3    H150211   1.538   5.936  12.236 -1.0582 -1.2312  1.1743
 8672TIP3    H250212   1.617   5.810  12.208  0.4959 -0.0082 -0.1781
 8673TIP3   OH250213   3.113   1.833  12.638  0.2535 -0.0816  0.0069
 8673TIP3    H150214   3.175   1.825  12.710 -0.2933  0.4755  0.5587
 8673TIP3    H250215   3.047   1.765  12.656  0.3157 -0.1893 -0.1730
 8674TIP3   OH250216   2.558   0.779  11.009  0.4039  0.1251 -0.1192
 8674TIP3    H150217   2.467   0.759  10.987  0.4626  0.5179 -0.7357
 8674TIP3    H250218   2.605   0.699  10.989  0.3989  0.3610 -1.1015
 8675TIP3   OH250219   0.858   4.366  11.765  0.0799  0.5911 -0.0625
 8675TIP3    H150220   0.780   4.310  11.757  0.4756  0.0057  0.1330
 8675TIP3    H250221   0.922   4.327  11.706 -0.0711  1.6174 -0.9346
 8676TIP3   OH250222   3.287   0.081  11.222  0.2437  0.3785 -0.1936
 8676TIP3    H150223   3.376   0.055  11.245  0.8581  1.3707 -1.3870
 8676TIP3    H250224   3.241   0.082  11.306  1.7641  1.4413  0.6830
 8677TIP3   OH250225   2.642   1.001  12.611  0.6674  0.1697  0.0731
 8677TIP3    H150226   2.727   0.967  12.582  0.3587 -1.2481  0.7558
 8677TIP3    H250227   2.580   0.932  12.590 -0.6539  1.8350 -1.9464
 8678TIP3   OH250228   2.757   7.384  13.058 -0.5783 -0.0011 -0.1796
 8678TIP3    H150229   2.771   7.471  13.096 -0.6189  0.0076 -0.1846
 8678TIP3    H250230   2.707   7.337  13.124  0.2299 -0.3220  0.2170
 8679TIP3   OH250231   1.373   1.945  11.299  0.4919 -0.1375 -0.1146
 8679TIP3    H150232   1.341   1.923  11.212  0.0132  1.0400 -0.2550
 8679TIP3    H250233   1.400   2.036  11.292  4.0282 -1.0348 -0.0391
 8680TIP3   OH250234   1.329   5.923  11.752 -0.0428  0.3197  0.5937
 8680TIP3    H150235   1.248   5.880  11.725  0.3902  0.4801 -1.0652
 8680TIP3    H250236   1.327   5.922  11.848 -2.0588  0.4276  0.5814
 8681TIP3   OH250237   4.617   0.462  12.799 -0.1006 -0.6340 -0.6648
 8681TIP3    H150238   4.621   0.433  12.890 -3.0253 -1.9444 -0.8453
 8681TIP3    H250239   4.555   0.535  12.799  1.2521  0.5681 -1.3864
 8682TIP3   OH250240   6.080   7.548  11.660 -0.1817  0.3677  0.4986
 8682TIP3    H150241   6.122   7.481  11.606 -1.8261 -0.4270  0.1508
 8682TIP3    H250242   6.148   7.614  11.673  1.3313 -1.1271  0.4473
 8683TIP3   OH250243   1.235   7.387  11.888  0.4697  0.0608 -0.2238
 8683TIP3    H150244   1.159   7.438  11.916  0.7332 -0.3025  1.2814
 8683TIP3    H250245   1.240   7.315  11.952  1.8843 -0.0975 -0.4730
 8684TIP3   OH250246   0.818   1.851  11.993 -0.3347 -0.3800  0.2993
 8684TIP3    H150247   0.829   1.840  12.087 -1.5258 -1.1572  0.3679
 8684TIP3    H250248   0.726   1.829  11.976 -0.4682  0.9057 -0.8792
 8685TIP3   OH250249   2.440   5.241  11.303  0.3165 -0.1802 -0.0308
 8685TIP3    H150250   2.477   5.234  11.391 -0.1950 -0.4811  0.1620
 8685TIP3    H250251   2.432   5.150  11.273  1.0775 -0.0568 -0.6402
 8686TIP3   OH250252   5.798   2.174  12.697 -0.3219 -0.2136  0.1675
 8686TIP3    H150253   5.761   2.161  12.785  1.4812  0.4603  1.0722
 8686TIP3    H250254   5.815   2.085  12.665 -1.4119 -0.4813  0.2949
 8687TIP3   OH250255   2.973   4.399  12.398  0.0286 -0.0309 -0.0839
 8687TIP3    H150256   2.903   4.458  12.426 -0.8131 -0.4098 -1.2691
 8687TIP3    H250257   3.044   4.457  12.371  0.5873  0.3453  2.0538
 8688TIP3   OH250258   4.400   2.679  12.899 -0.0063  0.4714 -0.3458
 8688TIP3    H150259   4.454   2.647  12.972 -0.2555  1.6596  0.3775
 8688TIP3    H250260   4.328   2.616  12.894  0.7956 -0.4624 -0.5573
 8689TIP3   OH250261   1.101   2.122  12.362  0.4928 -0.1048  0.1255
 8689TIP3    H150262   1.165   2.091  12.426 -1.2243 -0.2931  1.8226
 8689TIP3    H250263   1.021   2.136  12.412 -1.0023 -0.4408 -2.0138
 8690TIP3   OH250264   6.892   5.403  11.402 -0.0994  0.3406 -0.1064
 8690TIP3    H150265   6.868   5.315  11.429  0.0429  0.8674  1.9017
 8690TIP3    H250266   6.986   5.408  11.418  0.2643  0.2983 -1.9873
 8691TIP3   OH250267   5.824   3.094  11.265 -0.6893  0.7605  0.2544
 8691TIP3    H150268   5.831   3.090  11.170  2.3805  0.6272  0.3802
 8691TIP3    H250269   5.914   3.083  11.296 -1.2849  2.8025  3.1115
 8692TIP3   OH250270   5.712   1.174  12.988  0.3251  0.0154  0.1200
 8692TIP3    H150271   5.669   1.215  13.064 -1.0931 -0.6288 -0.3020
 8692TIP3    H250272   5.640   1.151  12.930  1.3746  0.2044 -1.3009
 8693TIP3   OH250273   6.096   4.106  10.854 -0.1960 -0.1044  0.5820
 8693TIP3    H150274   6.185   4.141  10.842  0.5889 -2.4355 -0.9876
 8693TIP3    H250275   6.042   4.160  10.797  0.1743  1.2476  1.4415
 8694TIP3   OH250276   4.245   3.854  11.719  0.0173  0.7174  0.6749
 8694TIP3    H150277   4.316   3.792  11.738 -0.1842  0.5844  1.0009
 8694TIP3    H250278   4.289   3.939  11.713  0.1726  0.6687  1.1172
 8695TIP3   OH250279   6.701   2.244  10.779 -0.1415 -0.3884  0.4032
 8695TIP3    H150280   6.693   2.339  10.763  0.0162 -0.5085 -0.4413
 8695TIP3    H250281   6.611   2.212  10.769  0.1005 -0.6157 -1.4082
 8696TIP3   OH250282   1.901   2.611  11.685  0.0383 -0.2358  0.3825
 8696TIP3    H150283   1.908   2.706  11.677  0.1560 -0.3567 -1.2504
 8696TIP3    H250284   1.832   2.587  11.623 -0.5591 -1.1549  1.3704
 8697TIP3   OH250285   0.297   2.745  11.106  0.0366  0.0800 -0.2082
 8697TIP3    H150286   0.246   2.813  11.061 -0.1273 -1.1864 -2.0742
 8697TIP3    H250287   0.382   2.744  11.061 -0.3095 -1.5715 -0.9355
 8698TIP3   OH250288   5.895   0.402  12.119 -0.3959  0.2823  0.0516
 8698TIP3    H150289   5.928   0.348  12.191  0.2516 -0.9047 -1.0946
 8698TIP3    H250290   5.894   0.343  12.043  0.0831  1.8131 -1.1929
 8699TIP3   OH250291   7.319   4.245  12.998  0.4994  0.0776  0.0996
 8699TIP3    H150292   7.236   4.255  12.951 -0.5088  1.5699  2.0560
 8699TIP3    H250293   7.364   4.328  12.986  0.5422  0.2177  1.1232
 8700TIP3   OH250294   3.355   6.355  11.061 -0.4153  0.3689  0.0737
 8700TIP3    H150295   3.412   6.323  11.131  1.3263  1.5675 -0.7260
 8700TIP3    H250296   3.294   6.414  11.105 -1.9361 -1.8565  1.1362
 8701TIP3   OH250297   0.235   7.260  13.040  0.1676 -0.1645  0.4098
 8701TIP3    H150298   0.142   7.282  13.044  0.2495  0.0225  2.0646
 8701TIP3    H250299   0.237   7.176  12.995 -0.5556  0.9333 -1.8014
 8702TIP3   OH250300   0.965   4.816  11.695  0.1140 -0.2686 -0.5906
 8702TIP3    H150301   1.039   4.827  11.635 -1.4248 -1.4269 -2.8421
 8702TIP3    H250302   0.915   4.897  11.687  0.6491  0.1638  0.2787
 8703TIP3   OH250303   0.302   7.024  12.888  0.1258  0.0869 -0.2994
 8703TIP3    H150304   0.262   6.944  12.922  3.5258 -1.8185 -0.3317
 8703TIP3    H250305   0.259   7.038  12.803 -0.0258 -2.2113 -0.6685
 8704TIP3   OH250306   2.877   4.674  13.320 -0.0936  0.3531  0.1733
 8704TIP3    H150307   2.875   4.578  13.313  2.2039  0.2564 -0.0604
 8704TIP3    H250308   2.930   4.691  13.398  0.4220  1.4251 -0.3893
 8705TIP3   OH250309   6.850   3.899  11.584  0.2469  0.0915  0.1329
 8705TIP3    H150310   6.840   3.949  11.665  2.1242  0.5274  0.1384
 8705TIP3    H250311   6.767   3.852  11.574 -1.2462  2.4234  0.6519
 8706TIP3   OH250312   3.716   3.371  12.501  0.1370  0.8524 -0.2830
 8706TIP3    H150313   3.796   3.400  12.457  1.1740 -0.3850  0.7201
 8706TIP3    H250314   3.734   3.382  12.594 -0.2173 -0.9389  0.0322
 8707TIP3   OH250315   7.488   3.252  12.213  0.9178  0.2447  0.8035
 8707TIP3    H150316   7.567   3.272  12.262  0.5822  1.9057  0.7208
 8707TIP3    H250317   7.420   3.307  12.252 -0.3862 -1.5879  1.2905
 8708TIP3   OH250318   0.809   4.971  12.707 -0.1203 -0.2756  0.2963
 8708TIP3    H150319   0.775   5.060  12.704 -0.4961 -0.4359 -0.7950
 8708TIP3    H250320   0.835   4.958  12.798  0.9351  1.3102  0.2593
 8709TIP3   OH250321   6.304   2.066  13.210 -0.2009  0.8520  0.1485
 8709TIP3    H150322   6.380   2.032  13.163 -0.5056  1.2058 -0.6198
 8709TIP3    H250323   6.241   1.994  13.209  0.1055  0.5638  0.7726
 8710TIP3   OH250324   1.604   1.532  11.985 -0.1140  0.1780 -0.2410
 8710TIP3    H150325   1.587   1.570  12.071 -0.5403 -0.3853 -0.0687
 8710TIP3    H250326   1.663   1.594  11.942  0.0342  0.5037  0.4248
 8711TIP3   OH250327   4.629   4.125  11.113 -0.3543 -0.3258  0.3142
 8711TIP3    H150328   4.634   4.038  11.075  2.2770 -0.0235 -0.2792
 8711TIP3    H250329   4.570   4.174  11.056 -1.9582 -1.7005  0.7287
 8712TIP3   OH250330   6.256   3.367  11.979  0.2245  0.3030  0.2808
 8712TIP3    H150331   6.189   3.407  11.923 -0.2067  0.9581  1.2388
 8712TIP3    H250332   6.338   3.383  11.932 -0.3624 -1.7905 -1.6493
 8713TIP3   OH250333   5.700   4.202  11.165 -0.1835  0.2206 -0.2038
 8713TIP3    H150334   5.737   4.202  11.253  0.2424 -2.1656 -0.2942
 8713TIP3    H250335   5.769   4.240  11.110  0.6073 -0.6148  0.1712
 8714TIP3   OH250336   1.905   7.238  11.375  0.0617 -0.1409 -0.2694
 8714TIP3    H150337   1.928   7.318  11.327  2.6756 -0.1532  0.7801
 8714TIP3    H250338   1.842   7.193  11.318  0.1619  1.6152 -1.8822
 8715TIP3   OH250339   7.501   4.545  13.842  0.2821 -0.7253  0.3290
 8715TIP3    H150340   7.446   4.621  13.861 -0.0499 -1.0939  0.8722
 8715TIP3    H250341   7.509   4.545  13.746  1.7676  1.0069  0.4115
 8716TIP3   OH250342   2.512   0.389  11.871 -0.5698 -0.5554 -0.1551
 8716TIP3    H150343   2.424   0.423  11.857 -0.3557  0.9643  1.8595
 8716TIP3    H250344   2.569   0.448  11.821 -0.3664  1.1417  1.9361
 8717TIP3   OH250345   3.068   0.988  12.761 -0.4925  0.3195 -0.3578
 8717TIP3    H150346   3.159   0.984  12.734 -0.7037 -1.8087 -0.9796
 8717TIP3    H250347   3.070   1.019  12.851  1.1891 -2.7086  0.8002
 8718TIP3   OH250348   2.159   6.727  12.777 -0.6430  0.7526  0.1219
 8718TIP3    H150349   2.098   6.778  12.830 -0.9967  0.4060  0.0575
 8718TIP3    H250350   2.183   6.785  12.704 -0.4787  1.0802  0.4386
 8719TIP3   OH250351   4.996   0.310  12.308  0.5608 -0.0855 -0.3814
 8719TIP3    H150352   4.981   0.218  12.326 -1.7711  0.7145  2.4356
 8719TIP3    H250353   4.940   0.330  12.233 -0.8182 -0.4565  0.5315
 8720TIP3   OH250354   3.219   1.232  12.399  0.1725 -0.4561 -0.1730
 8720TIP3    H150355   3.220   1.281  12.481  0.5065 -0.7930  0.0269
 8720TIP3    H250356   3.312   1.219  12.377  0.0986 -1.8045  0.2654
 8721TIP3   OH250357   0.126   1.402  10.839  0.4668 -0.0371  0.4755
 8721TIP3    H150358   0.185   1.430  10.909  0.2143  0.7422  0.3847
 8721TIP3    H250359   0.160   1.316  10.813  2.3444  0.9009 -0.4195
 8722TIP3   OH250360   3.933   1.083  12.175 -0.4051  0.0256 -0.2599
 8722TIP3    H150361   3.959   0.995  12.201  0.9755 -0.3702 -2.7104
 8722TIP3    H250362   3.971   1.140  12.242 -0.5310 -1.1462  0.8483
 8723TIP3   OH250363   1.429   2.778  12.819  0.1421 -0.5302  0.6387
 8723TIP3    H150364   1.520   2.792  12.794  0.2727 -2.1402  0.1439
 8723TIP3    H250365   1.379   2.840  12.765  1.0016  1.3871  1.9245
 8724TIP3   OH250366   3.475   5.188  13.718  0.4340  0.5632  0.3780
 8724TIP3    H150367   3.468   5.108  13.667  1.1473  0.4313  0.4791
 8724TIP3    H250368   3.390   5.197  13.761  0.2530  0.0235  0.1325
 8725TIP3   OH250369   2.530   4.058  11.223 -0.4800  0.2023  0.2154
 8725TIP3    H150370   2.512   4.119  11.151 -0.4554 -0.1171 -0.0676
 8725TIP3    H250371   2.487   4.097  11.299  0.0384  0.8656  0.1687
 8726TIP3   OH250372   6.642   3.048  12.956 -0.2910  0.3928 -0.3906
 8726TIP3    H150373   6.598   3.037  13.041  0.4840 -0.1231 -0.0478
 8726TIP3    H250374   6.655   3.143  12.948  2.3381  0.2996  1.4998
 8727TIP3   OH250375   2.344   7.205  11.570  0.0455 -0.1179 -0.1264
 8727TIP3    H150376   2.379   7.139  11.629 -2.5110 -0.1309  1.5296
 8727TIP3    H250377   2.259   7.172  11.544  0.2302  0.8855 -2.2307
 8728TIP3   OH250378   6.469   6.022  11.535 -0.1750 -0.7934 -0.0273
 8728TIP3    H150379   6.557   5.994  11.559  0.9474  0.9764 -1.7610
 8728TIP3    H250380   6.450   6.094  11.596 -0.3596 -1.0473  0.2196
 8729TIP3   OH250381   1.394   1.958  13.732  0.2172  0.0170 -0.2668
 8729TIP3    H150382   1.462   1.941  13.797  1.2296 -0.7747 -1.4745
 8729TIP3    H250383   1.340   2.028  13.770  0.3935 -0.8519  1.6573
 8730TIP3   OH250384   5.163   3.996  11.372  0.0975 -0.5938 -0.1814
 8730TIP3    H150385   5.102   3.931  11.407  0.6439 -1.2704 -0.4556
 8730TIP3    H250386   5.166   4.064  11.439 -1.5216 -0.1743 -0.4918
 8731TIP3   OH250387   2.376   5.205  13.188  0.2369 -0.1602  0.1558
 8731TIP3    H150388   2.304   5.268  13.187  0.2358 -0.1045 -2.1424
 8731TIP3    H250389   2.432   5.234  13.261 -1.3612  0.5742  1.1379
 8732TIP3   OH250390   2.659   3.258  12.133  0.3088 -0.0644 -0.3607
 8732TIP3    H150391   2.709   3.302  12.064  0.8299  1.0480  0.6934
 8732TIP3    H250392   2.576   3.304  12.136  0.6255  0.4954  0.3305
 8733TIP3   OH250393   6.951   3.146  12.244 -0.0822  0.4684 -0.1199
 8733TIP3    H150394   7.033   3.106  12.214  1.6815  3.4160  0.3430
 8733TIP3    H250395   6.888   3.128  12.174  1.5728 -0.0641 -1.5386
 8734TIP3   OH250396   6.140   2.795  10.942 -0.1333  0.4944  0.1260
 8734TIP3    H150397   6.068   2.810  11.003 -0.6968  0.6841 -0.5724
 8734TIP3    H250398   6.164   2.883  10.911  1.1668  0.5485  1.2004
 8735TIP3   OH250399   7.322   1.407  12.629 -0.1098  0.5832 -0.2557
 8735TIP3    H150400   7.354   1.497  12.623  0.9730  0.5559  3.1783
 8735TIP3    H250401   7.236   1.414  12.670 -0.7112  0.1036 -1.3911
 8736TIP3   OH250402   6.849   3.757  11.864  0.1016 -0.1801  0.0364
 8736TIP3    H150403   6.905   3.748  11.941  1.2320  2.5116 -0.3651
 8736TIP3    H250404   6.909   3.761  11.790 -0.7498  0.4747 -0.6478
 8737TIP3   OH250405   6.264   7.527  11.211  0.4364 -0.0876 -0.5494
 8737TIP3    H150406   6.312   7.603  11.243 -1.6784  0.4303  1.7001
 8737TIP3    H250407   6.292   7.455  11.267  0.7261 -0.4718 -1.1713
 8738TIP3   OH250408   0.241   2.465  11.015 -0.0761  0.2579 -0.3393
 8738TIP3    H150409   0.330   2.451  10.982 -0.6215 -0.2126 -1.6449
 8738TIP3    H250410   0.247   2.547  11.063  1.0993  0.1535 -0.2615
 8739TIP3   OH250411   1.384   2.380  13.894  0.4904  0.2811 -0.0474
 8739TIP3    H150412   1.454   2.351  13.952  0.2772 -0.9990 -0.3984
 8739TIP3    H250413   1.422   2.453  13.846  1.3650  0.0336  0.2421
 8740TIP3   OH250414   4.179   4.066  13.655 -0.1145  0.5940  0.0759
 8740TIP3    H150415   4.234   4.090  13.730  0.0020 -0.9475  0.5166
 8740TIP3    H250416   4.102   4.025  13.695  0.0851 -0.5159 -0.6533
 8741TIP3   OH250417   4.560   5.632  11.077 -0.4153 -0.5332  0.0445
 8741TIP3    H150418   4.494   5.694  11.108 -0.5163 -0.2053 -0.8153
 8741TIP3    H250419   4.537   5.550  11.121 -0.5270 -0.0766  0.8659
 8742TIP3   OH250420   2.244   2.577  12.014  0.4464 -0.5185  0.4112
 8742TIP3    H150421   2.263   2.667  11.988 -1.1526 -0.0918  0.6089
 8742TIP3    H250422   2.230   2.531  11.931 -0.5809 -0.1248  0.3500
 8743TIP3   OH250423   0.700   1.058  12.751 -0.3703  0.5903 -0.1373
 8743TIP3    H150424   0.739   1.143  12.728  3.3071 -0.3590  1.7360
 8743TIP3    H250425   0.718   1.049  12.845 -2.1524 -1.5889  0.0564
 8744TIP3   OH250426   7.590   5.920  11.220  0.4896  0.7412 -0.2695
 8744TIP3    H150427   7.534   5.988  11.257 -2.9812 -0.9981 -1.9009
 8744TIP3    H250428   7.582   5.846  11.281  0.6018  0.3068 -0.7704
 8745TIP3   OH250429   1.611   1.024  12.586  0.6645  0.4240 -0.1067
 8745TIP3    H150430   1.535   0.973  12.558  0.7549  1.0605 -1.5781
 8745TIP3    H250431   1.642   0.978  12.664 -1.4265  0.3542  0.7649
 8746TIP3   OH250432   6.092   4.068  11.812 -0.3224  0.5164 -0.4340
 8746TIP3    H150433   6.105   4.096  11.902  0.3676  1.2439 -0.7463
 8746TIP3    H250434   6.079   3.973  11.817 -0.8315  0.6253  0.4669
 8747TIP3   OH250435   0.646   3.495  10.857  0.3337 -0.3403  0.2083
 8747TIP3    H150436   0.706   3.421  10.861  2.7805  1.4208 -1.2680
 8747TIP3    H250437   0.689   3.563  10.908 -1.1571  0.5408  0.3301
 8748TIP3   OH250438   3.582   5.108  11.556  0.2230 -0.2114  0.2927
 8748TIP3    H150439   3.635   5.068  11.486  0.2935  1.5188 -0.6890
 8748TIP3    H250440   3.492   5.085  11.534  0.3482 -0.9705  0.5242
 8749TIP3   OH250441   3.838   4.522  11.798 -0.1880 -0.0779  0.1252
 8749TIP3    H150442   3.755   4.482  11.773  0.4606 -0.9122 -0.8004
 8749TIP3    H250443   3.867   4.568  11.719  0.7467 -0.7294  0.0653
 8750TIP3   OH250444   7.381   6.939  12.177  0.2176  0.2562 -0.1911
 8750TIP3    H150445   7.364   6.845  12.183 -1.1511  0.5246  0.4940
 8750TIP3    H250446   7.340   6.966  12.095  2.0302  0.0137 -1.2505
 8751TIP3   OH250447   6.530   0.460  12.964 -0.2911 -0.6265  0.4656
 8751TIP3    H150448   6.560   0.522  13.031 -0.2083  0.7066 -0.7361
 8751TIP3    H250449   6.538   0.374  13.004  0.5895  0.0699  1.8455
 8752TIP3   OH250450   2.810   7.434  11.244 -0.1585 -0.6655 -0.0693
 8752TIP3    H150451   2.836   7.478  11.326 -2.8378 -0.2863  0.6543
 8752TIP3    H250452   2.754   7.362  11.273 -2.7806  0.6509 -1.5876
 8753TIP3   OH250453   0.914   1.432  11.772  0.7678 -0.0165 -0.1069
 8753TIP3    H150454   0.831   1.479  11.764  0.5431 -0.6444 -1.9495
 8753TIP3    H250455   0.889   1.344  11.802  0.6620 -0.4451 -1.4070
 8754TIP3   OH250456   6.355   4.070  12.914 -0.0756  0.4933  0.6376
 8754TIP3    H150457   6.274   4.030  12.882 -0.1574  2.2070 -1.5359
 8754TIP3    H250458   6.348   4.064  13.010 -1.5095 -1.7347  0.4725
 8755TIP3   OH250459   6.314   0.161  12.469  0.4693  0.1674  0.1276
 8755TIP3    H150460   6.316   0.248  12.428  1.5311 -0.0493 -0.2893
 8755TIP3    H250461   6.377   0.167  12.541  1.7541 -0.7397 -0.8950
 8756TIP3   OH250462   1.194   3.287  13.469 -0.5476 -0.0160 -0.1573
 8756TIP3    H150463   1.245   3.206  13.475  0.5067  0.5349 -1.2531
 8756TIP3    H250464   1.224   3.339  13.543 -1.2343 -0.6124  0.5561
 8757TIP3   OH250465   6.887   4.941  11.253 -0.1139  0.2272 -0.0305
 8757TIP3    H150466   6.950   4.869  11.256 -1.2102 -0.7993 -0.9421
 8757TIP3    H250467   6.904   4.984  11.170 -1.1214 -0.5551 -0.6650
 8758TIP3   OH250468   3.683   6.938  12.129 -0.1854  0.2819 -0.3302
 8758TIP3    H150469   3.734   7.014  12.155 -0.2010 -0.3165  1.5938
 8758TIP3    H250470   3.726   6.905  12.050 -0.5913  2.6401 -1.6438
 8759TIP3   OH250471   5.764   3.324  11.790 -0.0910 -0.2096 -0.0090
 8759TIP3    H150472   5.706   3.263  11.745  0.1838 -1.4441  1.2506
 8759TIP3    H250473   5.852   3.290  11.774  0.2455  1.0744 -1.0529
 8760TIP3   OH250474   5.391   0.501  11.032 -0.7624 -0.5257  0.3228
 8760TIP3    H150475   5.480   0.503  10.998 -0.5634  0.8476  0.8500
 8760TIP3    H250476   5.341   0.558  10.974 -0.7728  0.5350  1.3442
 8761TIP3   OH250477   4.262   7.231  12.520  0.3910 -0.1200  0.0707
 8761TIP3    H150478   4.212   7.309  12.495  1.4973  0.2879 -0.9127
 8761TIP3    H250479   4.234   7.164  12.458 -0.2700 -0.4181  0.6733
 8762TIP3   OH250480   4.919   1.080  13.429 -0.1867  0.3934  0.0278
 8762TIP3    H150481   4.834   1.056  13.392  0.3495  1.1659 -1.8133
 8762TIP3    H250482   4.979   1.013  13.396  0.2122  0.8061 -0.0957
 8763TIP3   OH250483   0.543   4.480  10.694 -0.0555 -0.2268 -0.4997
 8763TIP3    H150484   0.544   4.553  10.631 -1.5155  0.7547  0.5395
 8763TIP3    H250485   0.488   4.413  10.652 -0.7303  0.2812 -0.4571
 8764TIP3   OH250486   0.081   4.904  19.778  0.3492 -0.1897  0.0476
 8764TIP3    H150487   0.025   4.971  19.740 -0.0061 -0.1472  0.6393
 8764TIP3    H250488   0.139   4.951  19.837  0.3413 -0.3576  0.1910
 8765TIP3   OH250489   6.787   6.934  11.809 -0.2557 -0.3819  0.2106
 8765TIP3    H150490   6.811   6.855  11.858 -1.3366 -0.3237  0.8524
 8765TIP3    H250491   6.695   6.949  11.831  0.0479  1.3038  0.4378
 8766TIP3   OH250492   2.838   2.634  12.885  0.0208 -0.1082  0.8084
 8766TIP3    H150493   2.825   2.542  12.864  0.2431  0.1276 -0.4095
 8766TIP3    H250494   2.877   2.633  12.972 -2.2906 -1.0561  1.9277
 8767TIP3   OH250495   0.389   4.825  12.302  0.1126 -0.3474  0.5074
 8767TIP3    H150496   0.366   4.852  12.390  1.2651  0.9850  0.4261
 8767TIP3    H250497   0.453   4.754  12.314  0.8559  0.3509  0.7715
 8768TIP3   OH250498   0.487   3.288  11.082  0.0788  0.4064  0.1084
 8768TIP3    H150499   0.404   3.279  11.034 -0.4152  0.1296  1.0040
 8768TIP3    H250500   0.464   3.337  11.160  0.6793 -0.0413  0.5723
 8769TIP3   OH250501   3.263   0.388  11.086  0.6409  0.2442 -0.2328
 8769TIP3    H150502   3.249   0.306  11.039  1.0606  0.8726 -1.5051
 8769TIP3    H250503   3.182   0.437  11.074  1.0370  0.7225 -0.9652
 8770TIP3   OH250504   3.721   0.029  11.857  0.2314 -0.1790  0.5312
 8770TIP3    H150505   3.789   0.018  11.791 -0.3375  0.6512 -0.2012
 8770TIP3    H250506   3.644  -0.012  11.819 -0.3595  1.1565  0.2379
 8771TIP3   OH250507   1.277   0.719  12.603 -0.4227 -0.5251 -0.4998
 8771TIP3    H150508   1.253   0.631  12.573 -0.0497 -1.4697  1.8164
 8771TIP3    H250509   1.236   0.728  12.688  0.4654  1.1320 -0.2007
 8772TIP3   OH250510   1.105   2.054  11.065  0.0894  0.1474  0.0582
 8772TIP3    H150511   1.032   1.993  11.077  1.3955 -1.3859  0.5790
 8772TIP3    H250512   1.088   2.124  11.127 -1.7215  0.6263 -0.9188
 8773TIP3   OH250513   7.122   6.038  12.170  0.4842  0.5785 -0.7138
 8773TIP3    H150514   7.058   6.107  12.185  0.6254  0.3645  1.1384
 8773TIP3    H250515   7.145   6.007  12.258 -0.0015 -2.2387 -1.4730
 8774TIP3   OH250516   1.642   3.552  11.945 -0.0618  0.3953  0.1433
 8774TIP3    H150517   1.733   3.574  11.966  0.3730 -2.2278  1.4170
 8774TIP3    H250518   1.642   3.535  11.851  0.3488  2.0580 -0.1841
 8775TIP3   OH250519   6.761   5.558  12.174 -0.8492 -0.6439  0.6694
 8775TIP3    H150520   6.667   5.569  12.163 -0.6399  1.2196  0.4547
 8775TIP3    H250521   6.787   5.629  12.234  0.3308 -1.5013  1.2206
 8776TIP3   OH250522   3.265   0.282  18.914  0.2529 -0.2478  0.0391
 8776TIP3    H150523   3.313   0.359  18.883  2.4254 -1.0654  1.2155
 8776TIP3    H250524   3.176   0.315  18.930  0.8080  1.7296 -0.5923
 8777TIP3   OH250525   3.949   5.065  11.934 -0.6953 -0.0735 -0.0398
 8777TIP3    H150526   3.878   5.022  11.886 -1.1760 -0.5991  1.0816
 8777TIP3    H250527   3.911   5.146  11.966 -0.7100 -0.2164  0.3135
 8778TIP3   OH250528   2.933   3.082  11.923 -0.1997 -0.3387 -0.2230
 8778TIP3    H150529   2.845   3.119  11.924 -1.2429 -2.6455 -0.6976
 8778TIP3    H250530   2.972   3.114  11.842  0.4274  2.7764  1.1794
 8779TIP3   OH250531   5.162   5.436  12.373 -0.0198  0.2336 -0.7108
 8779TIP3    H150532   5.254   5.455  12.393  0.0834 -0.9407  0.0112
 8779TIP3    H250533   5.165   5.385  12.293 -0.1129  0.8726 -1.1312
 8780TIP3   OH250534   3.735   0.102  12.600 -0.3959  0.2187 -0.1870
 8780TIP3    H150535   3.698   0.074  12.683 -0.9917  1.3088 -0.0688
 8780TIP3    H250536   3.682   0.177  12.573  1.3911  1.5443 -0.2537
 8781TIP3   OH250537   7.348   3.429  13.382 -0.6228 -0.7742  0.3462
 8781TIP3    H150538   7.272   3.460  13.333 -0.6119  0.2526  0.9312
 8781TIP3    H250539   7.420   3.484  13.351 -0.4677 -0.6255  0.9502
 8782TIP3   OH250540   5.923   1.151  11.408  0.2043  0.3125  0.3159
 8782TIP3    H150541   5.945   1.243  11.424  0.0169  0.2958  0.6914
 8782TIP3    H250542   6.008   1.109  11.389  0.0887  0.9290 -1.8663
 8783TIP3   OH250543   3.966   4.264  13.769 -0.1472 -0.3964  0.5498
 8783TIP3    H150544   3.935   4.174  13.777  0.0207 -0.5019  0.0726
 8783TIP3    H250545   3.997   4.271  13.678  0.3902 -0.0331  0.7527
 8784TIP3   OH250546   3.166   5.481  12.515  0.1396  0.2449 -0.1562
 8784TIP3    H150547   3.253   5.503  12.547 -0.3897  0.4151  1.2863
 8784TIP3    H250548   3.180   5.426  12.439  1.5260 -1.2304  1.1066
 8785TIP3   OH250549   7.274   5.000  11.490  0.3678  0.1416 -0.0613
 8785TIP3    H150550   7.311   4.922  11.530 -1.1833 -0.4611  0.2501
 8785TIP3    H250551   7.226   5.043  11.561  0.5592  0.9743 -0.4182
 8786TIP3   OH250552   1.344   1.274  12.587  0.1728 -0.1767 -0.1341
 8786TIP3    H150553   1.388   1.321  12.658  0.1774  0.0209 -0.2682
 8786TIP3    H250554   1.315   1.192  12.628  0.3770 -0.1663  0.0385
 8787TIP3   OH250555   2.833   4.042  11.555 -0.3295 -0.1500  0.0391
 8787TIP3    H150556   2.799   3.953  11.565  1.1215 -0.7579 -0.2235
 8787TIP3    H250557   2.882   4.059  11.635  0.8191 -0.2545 -0.6182
 8788TIP3   OH250558   4.977   4.512  12.057 -0.4947  0.2954 -0.2321
 8788TIP3    H150559   5.033   4.519  11.980 -0.6910  0.0525 -0.3983
 8788TIP3    H250560   4.942   4.600  12.070 -0.7835  0.2455 -0.6614
 8789TIP3   OH250561   4.344   0.499  12.265 -0.5428 -0.0912 -0.2807
 8789TIP3    H150562   4.417   0.465  12.213  0.1031 -0.0049  0.5265
 8789TIP3    H250563   4.285   0.425  12.276  0.5107 -0.8172  0.8821
 8790TIP3   OH250564   5.508   5.785  10.952  0.7999 -0.5444  0.2699
 8790TIP3    H150565   5.593   5.744  10.966  1.0565 -0.7932 -1.7086
 8790TIP3    H250566   5.520   5.839  10.874 -0.2239  1.3495  1.3344
 8791TIP3   OH250567   2.665   0.439  12.422 -0.0125  0.3707 -0.5128
 8791TIP3    H150568   2.663   0.353  12.465 -1.9608  0.7980  0.3200
 8791TIP3    H250569   2.595   0.435  12.357  0.0386  1.2465 -0.6315
 8792TIP3   OH250570   4.389   5.789  11.219  0.2464  0.5026 -0.3359
 8792TIP3    H150571   4.294   5.776  11.226 -0.0126  1.2731 -1.9555
 8792TIP3    H250572   4.406   5.868  11.270  0.1144  0.0552  0.4143
 8793TIP3   OH250573   2.649   6.097  13.395  1.1505  0.2150 -0.2586
 8793TIP3    H150574   2.719   6.086  13.459  1.3653  0.1729 -0.5024
 8793TIP3    H250575   2.577   6.044  13.429  1.2335  0.2669 -0.0040
 8794TIP3   OH250576   4.972   6.988  12.071 -0.4672  0.0304 -0.4093
 8794TIP3    H150577   4.947   7.077  12.094 -0.5611 -0.1668  0.2636
 8794TIP3    H250578   5.038   6.964  12.135  0.6814  0.1477 -1.5057
 8795TIP3   OH250579   1.133   4.321  12.183 -1.1132 -0.3028  0.8756
 8795TIP3    H150580   1.181   4.363  12.254 -0.6175 -0.2478  0.5166
 8795TIP3    H250581   1.045   4.359  12.187 -0.4743  1.4040  0.0787
 8796TIP3   OH250582   3.852   1.307  11.137 -0.2774 -0.1644 -0.0314
 8796TIP3    H150583   3.796   1.374  11.098  0.1436  1.1711  1.5309
 8796TIP3    H250584   3.819   1.299  11.227  1.5760  0.1701  0.7139
 8797TIP3   OH250585   6.889   0.442  12.288  0.5588 -0.3743  0.4862
 8797TIP3    H150586   6.813   0.410  12.239  0.0299  0.4729  0.7392
 8797TIP3    H250587   6.950   0.471  12.220  1.8982 -3.5884  0.1257
 8798TIP3   OH250588   2.922   6.396  11.760  0.1327 -0.0624 -0.0401
 8798TIP3    H150589   2.944   6.332  11.693 -1.6205 -1.2739  0.4779
 8798TIP3    H250590   2.862   6.351  11.818  1.5799  0.9371  2.4059
 8799TIP3   OH250591   4.946   4.056  13.739 -0.1065 -0.4801 -0.2881
 8799TIP3    H150592   4.995   4.131  13.706  0.6721 -1.1718 -0.7274
 8799TIP3    H250593   4.943   3.995  13.666  0.1092 -1.2861  0.3643
 8800TIP3   OH250594   6.149   3.162  11.102  0.0323  0.1641 -0.0514
 8800TIP3    H150595   6.201   3.094  11.060 -0.5833  0.7854 -1.9384
 8800TIP3    H250596   6.076   3.177  11.043 -0.1039  2.1316  0.5136
 8801TIP3   OH250597   0.144   5.068  13.591 -0.4089  0.1450  0.0032
 8801TIP3    H150598   0.205   4.994  13.588 -1.1519 -0.4647 -1.2692
 8801TIP3    H250599   0.173   5.125  13.520 -0.3758  0.6289  0.4058
 8802TIP3   OH250600   3.618   1.827  13.293  0.4974  0.8815 -0.2325
 8802TIP3    H150601   3.569   1.900  13.329 -0.1747  0.2290  0.2174
 8802TIP3    H250602   3.551   1.767  13.259  0.9643  0.0488  0.2525
 8803TIP3   OH250603   1.531   2.881  13.744  0.1674  0.4053 -0.4995
 8803TIP3    H150604   1.464   2.816  13.762  0.2721  0.4714  0.1689
 8803TIP3    H250605   1.490   2.965  13.764  1.2558  0.3155  2.7687
 8804TIP3   OH250606   1.989   1.958  12.519 -0.3146  0.1283  0.0033
 8804TIP3    H150607   1.937   2.038  12.525 -3.7891 -1.5082 -3.7680
 8804TIP3    H250608   2.052   1.975  12.449 -2.1998 -0.7846 -2.0340
 8805TIP3   OH250609   3.406   6.923  11.647  0.1070  0.0751  0.7343
 8805TIP3    H150610   3.322   6.902  11.688  0.9307  0.3971  2.7141
 8805TIP3    H250611   3.396   7.013  11.616 -0.5163 -0.1427  0.3000
 8806TIP3   OH250612   3.482   6.784  13.065  0.7484  0.6597 -0.0285
 8806TIP3    H150613   3.480   6.880  13.072  1.8980  0.6653  0.4592
 8806TIP3    H250614   3.573   6.761  13.086  0.9437 -0.4143 -1.8422
 8807TIP3   OH250615   6.816   2.783  12.014 -0.2144 -0.0203 -0.0586
 8807TIP3    H150616   6.869   2.862  12.002 -0.8966  0.6045  0.8645
 8807TIP3    H250617   6.761   2.779  11.936  1.5876 -1.0507 -1.3674
 8808TIP3   OH250618   7.316   4.048  11.193 -0.4043 -0.0493  0.1117
 8808TIP3    H150619   7.385   4.027  11.130  1.1038  1.8513  1.0220
 8808TIP3    H250620   7.331   3.988  11.266  0.6574  0.6767  0.5218
 8809TIP3   OH250621   6.373   4.561  13.171  0.6915 -0.1385 -0.2334
 8809TIP3    H150622   6.463   4.588  13.152  0.3932 -0.3734 -2.1805
 8809TIP3    H250623   6.380   4.468  13.192  0.9244 -0.1134 -0.1960
 8810TIP3   OH250624   4.317   5.441  12.848  0.3010  0.5539  0.0660
 8810TIP3    H150625   4.327   5.437  12.943  0.0134 -1.3764  0.0411
 8810TIP3    H250626   4.307   5.535  12.830 -0.5890  0.9006  2.0280
 8811TIP3   OH250627   5.068   1.232  12.342  0.2776  0.2731 -0.2751
 8811TIP3    H150628   5.115   1.309  12.374 -1.6466  1.5541 -0.3736
 8811TIP3    H250629   5.031   1.260  12.258  1.0961 -1.4087 -1.2586
 8812TIP3   OH250630   0.258   2.148  11.824 -0.2724  0.0565 -0.0608
 8812TIP3    H150631   0.246   2.164  11.918  0.1707 -1.6555  0.3162
 8812TIP3    H250632   0.344   2.106  11.817 -1.3820 -2.2725 -0.8808
 8813TIP3   OH250633   1.671   3.193  12.646 -0.5292  0.1673 -0.4427
 8813TIP3    H150634   1.579   3.195  12.673 -0.7369 -0.7632 -1.0460
 8813TIP3    H250635   1.669   3.208  12.551 -0.1498 -0.8527 -0.6250
 8814TIP3   OH250636   0.710   2.360  11.645 -0.5261 -0.0244  0.5234
 8814TIP3    H150637   0.627   2.352  11.691 -1.5668  0.4438 -1.1769
 8814TIP3    H250638   0.731   2.271  11.617  0.0202 -0.2817  1.6902
 8815TIP3   OH250639   5.844   1.599  12.480  0.0640  0.2418 -0.0830
 8815TIP3    H150640   5.861   1.524  12.537  0.3328  0.4200  0.0755
 8815TIP3    H250641   5.780   1.651  12.528 -0.7982 -0.3335 -0.5953
 8816TIP3   OH250642   4.766   4.779  11.992 -0.2473  0.2166 -0.5935
 8816TIP3    H150643   4.859   4.786  11.973 -0.0961  0.7342  0.2586
 8816TIP3    H250644   4.725   4.759  11.908  0.5580  0.6905 -1.1065
 8817TIP3   OH250645   1.273   6.421  11.865  0.5282 -0.4345  0.3207
 8817TIP3    H150646   1.190   6.374  11.864  0.8259 -0.9595 -0.2748
 8817TIP3    H250647   1.253   6.504  11.909 -1.0287  0.7688 -2.3838
 8818TIP3   OH250648   5.477   2.956  11.033 -0.6931  0.3454  0.2334
 8818TIP3    H150649   5.490   2.876  11.084 -0.6637 -1.2340 -2.1433
 8818TIP3    H250650   5.384   2.976  11.042 -0.6883  0.1146  0.8773
 8819TIP3   OH250651   0.739   3.870  10.811 -0.1485 -0.5632 -0.3725
 8819TIP3    H150652   0.689   3.940  10.770  0.1663 -1.0183 -1.5825
 8819TIP3    H250653   0.810   3.852  10.750  0.4901 -1.1049  0.4991
 8820TIP3   OH250654   0.068   1.202  11.580 -0.2612 -0.3977 -0.1562
 8820TIP3    H150655   0.038   1.258  11.508 -1.6126  1.1765  1.5384
 8820TIP3    H250656  -0.012   1.160  11.612  0.3809 -1.3823  0.2125
 8821TIP3   OH250657   5.503   6.154  13.124 -0.3826  0.1040 -0.4332
 8821TIP3    H150658   5.520   6.174  13.216  0.7746 -0.0906 -0.5884
 8821TIP3    H250659   5.413   6.185  13.109 -0.7438 -0.2431  0.8601
 8822TIP3   OH250660   1.474   6.756  12.180  0.2440  0.8765 -0.6006
 8822TIP3    H150661   1.533   6.769  12.254  1.9065  1.5179 -1.9752
 8822TIP3    H250662   1.531   6.753  12.103 -1.4922  1.2103 -1.9833
 8823TIP3   OH250663   0.014   7.316  12.363 -0.0575  0.2423  0.6064
 8823TIP3    H150664   0.056   7.386  12.314 -0.8031 -0.2889 -0.8363
 8823TIP3    H250665  -0.034   7.361  12.433  0.3633  1.0693  0.3681
 8824TIP3   OH250666   3.346   1.083  12.666 -0.5973 -0.0116 -0.0774
 8824TIP3    H150667   3.376   0.993  12.662 -2.8821 -0.8557  0.2123
 8824TIP3    H250668   3.425   1.135  12.679  0.7716 -1.9490 -0.3577
 8825TIP3   OH250669   3.932   2.472  12.018 -0.0217  0.1324 -0.5942
 8825TIP3    H150670   3.984   2.533  12.070 -0.9001 -0.6493  1.3248
 8825TIP3    H250671   3.990   2.398  12.003 -0.4924 -0.7824  1.6233
 8826TIP3   OH250672   3.155   6.440  11.895 -0.5580  0.0738  0.2071
 8826TIP3    H150673   3.071   6.437  11.849  0.6569  1.1993 -2.2252
 8826TIP3    H250674   3.186   6.349  11.895 -1.4328 -0.2396  0.5521
 8827TIP3   OH250675   4.057   6.638  13.318  0.1337 -0.2228 -0.1911
 8827TIP3    H150676   4.148   6.650  13.345  0.1862  0.4211 -0.6227
 8827TIP3    H250677   4.016   6.723  13.333 -0.8435 -0.9666  1.5816
 8828TIP3   OH250678   6.049   1.390  11.855 -0.1936  0.3326  0.3298
 8828TIP3    H150679   6.046   1.478  11.894 -0.7157  1.0574 -1.2744
 8828TIP3    H250680   6.125   1.391  11.798 -0.0021 -0.3945  0.5553
 8829TIP3   OH250681   6.239   6.658  11.733  0.3534 -0.4565  0.6813
 8829TIP3    H150682   6.170   6.601  11.699  0.4157 -0.6568  0.8898
 8829TIP3    H250683   6.268   6.616  11.814  0.7587 -0.4026  0.5674
 8830TIP3   OH250684   1.842   5.184  12.440 -0.2168 -0.4500  0.1767
 8830TIP3    H150685   1.756   5.154  12.468 -0.4908  0.8609  0.8235
 8830TIP3    H250686   1.862   5.131  12.363 -1.4810 -0.9712  0.1826
 8831TIP3   OH250687   1.373   6.950  11.144 -0.5631  0.0745 -0.1091
 8831TIP3    H150688   1.439   6.949  11.213 -0.9048 -0.7727  0.2213
 8831TIP3    H250689   1.297   6.907  11.183 -0.2081 -1.9650 -1.5310
 8832TIP3   OH250690   7.231   4.113  12.691 -0.2780 -0.5236  0.1590
 8832TIP3    H150691   7.158   4.144  12.744 -0.2321  1.6364 -0.9459
 8832TIP3    H250692   7.286   4.190  12.678  0.3604 -1.2572 -1.9893
 8833TIP3   OH250693   1.843   4.642  12.625 -0.5289 -0.4176 -0.6081
 8833TIP3    H150694   1.921   4.695  12.643 -1.6441  1.2484 -0.3753
 8833TIP3    H250695   1.791   4.697  12.567 -0.8359 -2.1807 -2.0873
 8834TIP3   OH250696   6.585   5.256  11.317  0.3314  0.1305 -0.4772
 8834TIP3    H150697   6.560   5.183  11.261  0.8852  0.8150 -1.6398
 8834TIP3    H250698   6.675   5.238  11.343  0.6361  0.6475 -1.1717
 8835TIP3   OH250699   2.323   5.000  13.440  0.2611 -0.5504  0.3930
 8835TIP3    H150700   2.249   4.972  13.494 -0.3471 -0.0804 -0.1715
 8835TIP3    H250701   2.334   5.093  13.460  0.0019 -0.3611 -0.3083
 8836TIP3   OH250702   4.821   4.315  11.130 -0.3292  0.1828  0.2435
 8836TIP3    H150703   4.774   4.398  11.133 -1.0127 -0.0818 -1.5680
 8836TIP3    H250704   4.752   4.249  11.128 -0.0164 -0.2042 -2.8260
 8837TIP3   OH250705   6.952   3.401  10.782 -0.3902  0.3025  0.1753
 8837TIP3    H150706   6.965   3.436  10.870 -2.0778  0.2578  0.4820
 8837TIP3    H250707   6.982   3.470  10.723  1.8257 -0.1079  0.7430
 8838TIP3   OH250708   2.720   6.329  10.834 -0.3438 -0.0496 -0.9362
 8838TIP3    H150709   2.748   6.242  10.864  0.7759 -0.2345 -2.3643
 8838TIP3    H250710   2.802   6.379  10.826 -0.9053  0.9106 -0.8317
 8839TIP3   OH250711   1.907   6.612  13.105 -0.0060  0.6810 -0.5843
 8839TIP3    H150712   1.980   6.648  13.156 -0.1554  0.7354 -0.4059
 8839TIP3    H250713   1.853   6.567  13.169 -0.4186  1.1084 -0.6253
 8840TIP3   OH250714   0.457   1.006  12.396  0.4893 -0.1418 -0.4659
 8840TIP3    H150715   0.496   1.091  12.420 -0.3103 -0.3829  2.0575
 8840TIP3    H250716   0.368   1.028  12.368  0.4568 -0.0910 -0.3257
 8841TIP3   OH250717   7.408   1.652  12.558 -0.5935  0.4391  0.1742
 8841TIP3    H150718   7.398   1.628  12.466  0.7685  2.5010 -0.5993
 8841TIP3    H250719   7.478   1.717  12.558 -0.6679  0.6109  2.6671
 8842TIP3   OH250720   6.853   7.382  12.713  0.2682 -0.0848 -0.2456
 8842TIP3    H150721   6.786   7.433  12.759  1.1512  1.1703 -0.2928
 8842TIP3    H250722   6.924   7.373  12.776  0.1224 -1.3281 -0.2264
 8843TIP3   OH250723   1.533   4.367  12.034  0.5247  0.1653 -0.1101
 8843TIP3    H150724   1.545   4.363  12.129 -3.9427 -0.7991  0.6387
 8843TIP3    H250725   1.600   4.309  11.998  3.0788  1.4445  2.2621
 8844TIP3   OH250726   4.374   7.615  11.118 -0.2258  0.0266 -0.1373
 8844TIP3    H150727   4.355   7.593  11.209  1.4833  0.3748  0.3442
 8844TIP3    H250728   4.441   7.553  11.091 -0.2712  0.3223 -0.9728
 8845TIP3   OH250729   2.164   5.742  13.342 -0.4882  0.4368 -0.6005
 8845TIP3    H150730   2.210   5.734  13.425 -1.9146  0.2712  0.1988
 8845TIP3    H250731   2.203   5.673  13.287 -0.5775 -0.4765  0.4367
 8846TIP3   OH250732   7.598   2.210  13.048  0.4741  0.1142  0.1532
 8846TIP3    H150733   7.536   2.192  13.118  0.3342  0.0604  0.0152
 8846TIP3    H250734   7.669   2.259  13.090 -0.0166  0.8215  0.1598
 8847TIP3   OH250735   7.501   3.709  12.636  0.3515 -0.3505 -0.3924
 8847TIP3    H150736   7.451   3.627  12.628 -0.9198  0.5245 -1.7592
 8847TIP3    H250737   7.439   3.772  12.672  0.2889  0.8527 -2.4478
 8848TIP3   OH250738   0.916   7.361  11.345 -0.4584 -0.1247  0.3521
 8848TIP3    H150739   0.839   7.414  11.364  0.1278  0.1852  2.1266
 8848TIP3    H250740   0.990   7.415  11.375  0.4165 -0.5874 -0.9041
 8849TIP3   OH250741   1.442   5.932  11.414 -0.1242 -0.1828 -0.3525
 8849TIP3    H150742   1.471   5.968  11.498  2.7498 -2.4543 -0.2121
 8849TIP3    H250743   1.347   5.947  11.414  0.1288  2.3847  1.9802
 8850TIP3   OH250744   4.350   6.627  13.431  0.3103  0.3350  0.2086
 8850TIP3    H150745   4.424   6.606  13.373 -0.0289  0.2983 -0.2154
 8850TIP3    H250746   4.337   6.721  13.420  0.6113  0.4314  0.6632
 8851TIP3   OH250747   0.343   4.809  10.701  0.1385 -0.1122 -0.1814
 8851TIP3    H150748   0.330   4.743  10.770 -2.5659 -0.8779 -1.2968
 8851TIP3    H250749   0.279   4.877  10.720  1.5711  1.2883 -0.1681
 8852TIP3   OH250750   5.611   3.610  11.392 -0.2494  0.7509  0.5631
 8852TIP3    H150751   5.534   3.650  11.353 -1.3395 -0.7359  1.1069
 8852TIP3    H250752   5.584   3.588  11.481  0.4213 -0.8014  0.4083
 8853TIP3   OH250753   3.790   4.495  13.631  0.3391  0.5428  0.1864
 8853TIP3    H150754   3.777   4.423  13.694 -1.4467 -1.2948 -2.0881
 8853TIP3    H250755   3.883   4.518  13.640  1.0601 -2.2474  0.8640
 8854TIP3   OH250756   2.980   3.172  12.972 -0.6698  0.1306 -0.2723
 8854TIP3    H150757   2.981   3.214  13.059  0.5139  0.8285 -0.5993
 8854TIP3    H250758   3.048   3.218  12.923 -1.0356 -0.5473 -1.4461
 8855TIP3   OH250759   5.201   3.297  13.221  0.5419  0.6189  0.0599
 8855TIP3    H150760   5.117   3.313  13.264  0.5401 -0.3096  0.4230
 8855TIP3    H250761   5.266   3.337  13.278  0.3737  1.1565 -0.1154
 8856TIP3   OH250762   7.630   7.362  11.948  1.1029  0.4422 -0.4722
 8856TIP3    H150763   7.712   7.354  11.899  1.7139 -1.9292  0.7657
 8856TIP3    H250764   7.562   7.367  11.881  2.1814  1.6921 -1.5200
 8857TIP3   OH250765   6.891   4.510  11.792 -1.0017  0.0565  0.4498
 8857TIP3    H150766   6.931   4.567  11.857 -0.6775  1.0656 -0.5966
 8857TIP3    H250767   6.870   4.568  11.719 -0.5262 -1.1800 -0.7163
 8858TIP3   OH250768   7.658   4.557  10.966 -0.0326 -0.1719 -0.3810
 8858TIP3    H150769   7.692   4.531  11.052 -0.7460 -1.1651 -0.3806
 8858TIP3    H250770   7.576   4.508  10.957 -0.9906  1.4362 -0.7808
 8859TIP3   OH250771   5.744   3.762  12.863 -0.4112  0.1355 -0.4239
 8859TIP3    H150772   5.793   3.753  12.781  1.8230 -1.2147  0.9474
 8859TIP3    H250773   5.680   3.691  12.861  2.3706 -2.6329  0.6498
 8860TIP3   OH250774   2.789   7.318  11.519  0.2054 -0.6576 -0.5404
 8860TIP3    H150775   2.766   7.395  11.571 -0.9743 -1.7771  0.7047
 8860TIP3    H250776   2.707   7.291  11.479  0.9003 -0.4526 -2.1498
 8861TIP3   OH250777   5.939   5.689  11.506  0.0746  0.2016 -0.7142
 8861TIP3    H150778   5.849   5.666  11.529  0.6560 -0.7629  0.7584
 8861TIP3    H250779   5.992   5.621  11.547  1.4180 -0.0844 -2.7410
 8862TIP3   OH250780   1.372   0.241  11.896 -0.0544 -0.3413 -0.0160
 8862TIP3    H150781   1.416   0.176  11.951 -0.9383 -1.1364 -0.2209
 8862TIP3    H250782   1.279   0.229  11.913 -0.2595  0.5871 -0.3843
 8863TIP3   OH250783   3.494   0.856  12.691 -0.1922 -0.2244  0.4051
 8863TIP3    H150784   3.557   0.788  12.712  1.1874  1.1469  0.8966
 8863TIP3    H250785   3.521   0.889  12.605 -0.5503  0.0632  0.3976
 8864TIP3   OH250786   3.647   6.302  11.954 -0.5573  0.2330  0.2085
 8864TIP3    H150787   3.706   6.287  11.880  0.0052  0.6309  0.5673
 8864TIP3    H250788   3.633   6.397  11.955 -0.3905  0.2559  0.7333
 8865TIP3   OH250789   5.319   0.663  13.268  0.0733  0.1305 -0.4572
 8865TIP3    H150790   5.243   0.651  13.325  1.4120 -0.6538  1.2720
 8865TIP3    H250791   5.328   0.579  13.222 -0.1659  0.2708 -0.7667
 8866TIP3   OH250792   4.925   0.513  12.451  0.3010  0.2837  0.0023
 8866TIP3    H150793   4.939   0.457  12.375  0.3987 -0.8124  0.8004
 8866TIP3    H250794   4.860   0.467  12.504 -0.3742  1.4262  0.2004
 8867TIP3   OH250795   2.971   1.569  11.661 -0.0376 -0.3163  0.0301
 8867TIP3    H150796   2.925   1.506  11.717 -0.0125 -0.6605 -0.3361
 8867TIP3    H250797   3.057   1.580  11.702 -0.7258  0.9929  1.2205
 8868TIP3   OH250798   7.288   7.673  12.529  0.0966 -0.0652 -0.1123
 8868TIP3    H150799   7.290   7.766  12.551  0.8448 -0.3970  1.3295
 8868TIP3    H250800   7.253   7.630  12.607  0.4070 -1.0520 -0.4946
 8869TIP3   OH250801   6.615   4.651  11.499  0.3302  0.1685 -0.7004
 8869TIP3    H150802   6.599   4.581  11.562 -0.0135 -1.0288 -2.0457
 8869TIP3    H250803   6.693   4.696  11.531 -0.1441 -0.0590  0.8327
 8870TIP3   OH250804   0.200   1.462  11.712  0.1497 -0.3739 -0.5044
 8870TIP3    H150805   0.130   1.525  11.699  1.2084  1.3777  1.6682
 8870TIP3    H250806   0.157   1.385  11.749 -0.8410  0.0086 -0.8413
 8871TIP3   OH250807   3.356   7.127  11.248  0.4341  0.4527 -0.0706
 8871TIP3    H150808   3.392   7.210  11.278 -0.9942  0.8193  0.7517
 8871TIP3    H250809   3.262   7.134  11.267  0.5403 -2.1219  1.9956
 8872TIP3   OH250810   3.257   4.695  11.648 -0.1920 -0.1699 -0.3653
 8872TIP3    H150811   3.314   4.762  11.687  1.3056 -2.5739  1.8698
 8872TIP3    H250812   3.311   4.655  11.580 -0.7321  0.1922 -1.0209
 8873TIP3   OH250813   2.371   3.351  12.189 -0.0584  0.1303 -0.1677
 8873TIP3    H150814   2.331   3.435  12.210  0.0997  0.1767 -0.0468
 8873TIP3    H250815   2.302   3.301  12.145 -0.1153  0.3639 -0.3418
 8874TIP3   OH250816   5.326   4.629  11.468 -0.5133 -0.2926 -0.0684
 8874TIP3    H150817   5.302   4.566  11.400 -0.1472 -1.2893  0.6992
 8874TIP3    H250818   5.421   4.626  11.471 -0.4933  0.2729  0.0160
 8875TIP3   OH250819   2.557   3.463  13.151  0.5001 -0.2757 -0.1789
 8875TIP3    H150820   2.531   3.390  13.094 -1.8656  0.0277  0.3770
 8875TIP3    H250821   2.600   3.421  13.225 -1.3511 -1.2519  0.4229
 8876TIP3   OH250822   0.216   1.781  12.505  0.0840  0.2914  0.0297
 8876TIP3    H150823   0.241   1.703  12.556 -1.7329  0.2482  0.9116
 8876TIP3    H250824   0.213   1.750  12.415 -2.1685 -1.1633  0.5149
 8877TIP3   OH250825   0.524   0.609  11.784  0.3904 -0.3400 -0.8960
 8877TIP3    H150826   0.531   0.517  11.758 -1.9359 -0.5833 -0.9332
 8877TIP3    H250827   0.581   0.617  11.860  0.6892 -1.8050 -0.9278
 8878TIP3   OH250828   0.267   4.698  13.239 -0.7397  0.1138 -0.1893
 8878TIP3    H150829   0.213   4.651  13.175 -1.1754  0.4071 -0.0454
 8878TIP3    H250830   0.260   4.790  13.212 -0.2809  0.1512 -0.1853
 8879TIP3   OH250831   5.129   6.506  13.790 -0.4492  0.5027 -0.3308
 8879TIP3    H150832   5.210   6.459  13.808 -0.4494  0.9798  1.0327
 8879TIP3    H250833   5.157   6.595  13.769 -0.6042  0.6535  0.0839
 8880TIP3   OH250834   5.229   4.170  11.586 -0.6485  0.7811 -0.0095
 8880TIP3    H150835   5.265   4.253  11.556 -0.4733  0.8406  0.3486
 8880TIP3    H250836   5.237   4.175  11.682 -0.8652  0.4568  0.0252
 8881TIP3   OH250837   4.654   3.725  11.425  0.4504 -0.0157 -0.2749
 8881TIP3    H150838   4.727   3.715  11.365  0.1688  0.2094 -0.6647
 8881TIP3    H250839   4.679   3.798  11.482  0.6101 -0.0662 -0.2814
 8882TIP3   OH250840   2.233   4.338  11.434 -0.1022 -0.3482 -0.5938
 8882TIP3    H150841   2.311   4.290  11.464 -0.7422 -1.4034 -0.5568
 8882TIP3    H250842   2.173   4.334  11.509 -0.0815  0.7170 -0.5148
 8883TIP3   OH250843   4.129   1.863  11.667 -0.0293  0.1085  0.0316
 8883TIP3    H150844   4.190   1.791  11.682  0.7261  1.0132  1.4262
 8883TIP3    H250845   4.047   1.834  11.706 -0.2347 -0.7040 -0.9728
 8884TIP3   OH250846   1.974   3.701  13.688 -0.1455 -0.8204  0.1535
 8884TIP3    H150847   1.892   3.733  13.725 -0.6682 -0.8055 -0.9840
 8884TIP3    H250848   2.028   3.680  13.765 -0.9924 -0.3042  0.9143
 8885TIP3   OH250849   6.481   3.764  12.173  0.1705 -0.3237 -0.2868
 8885TIP3    H150850   6.485   3.810  12.256 -0.1238 -1.7716  0.5648
 8885TIP3    H250851   6.552   3.700  12.177  0.2557 -0.3128 -1.2305
 8886TIP3   OH250852   2.288   0.006  11.794 -0.3603  0.3559  0.3750
 8886TIP3    H150853   2.238   0.068  11.847 -0.3415  0.6313  0.0777
 8886TIP3    H250854   2.352   0.061  11.748 -0.3670  0.1199  0.0839
 8887TIP3   OH250855   4.313   3.060  11.177  0.0963  0.4647  0.3001
 8887TIP3    H150856   4.334   3.149  11.149 -1.2514  0.9281  0.6702
 8887TIP3    H250857   4.227   3.068  11.218  0.0074 -0.9968  0.4413
 8888TIP3   OH250858   1.155   2.833  12.848  0.0725 -0.0556  0.4323
 8888TIP3    H150859   1.150   2.741  12.822  3.1778 -0.0833 -0.3797
 8888TIP3    H250860   1.148   2.830  12.944 -0.8877 -1.0033  0.3593
 8889TIP3   OH250861   2.157   6.218  12.353 -0.6320  0.0722  0.3620
 8889TIP3    H150862   2.173   6.216  12.447  0.6361  1.4486  0.2216
 8889TIP3    H250863   2.178   6.130  12.323  0.6361  0.0874  1.1349
 8890TIP3   OH250864   0.787   0.990  13.005  0.0903 -0.0234 -0.5603
 8890TIP3    H150865   0.877   1.019  12.989 -0.1031  0.3777 -0.9604
 8890TIP3    H250866   0.767   1.022  13.093  0.3710 -0.2117 -0.4225
 8891TIP3   OH250867   5.545   4.628  12.685  0.0473 -0.5364  0.0548
 8891TIP3    H150868   5.502   4.608  12.769  0.1968 -0.5827  0.1199
 8891TIP3    H250869   5.500   4.572  12.621  0.8717 -1.5326  0.3326
 8892TIP3   OH250870   2.685   4.516  11.270 -0.2496 -0.3149  0.2533
 8892TIP3    H150871   2.691   4.571  11.348  0.8549  0.5197 -0.3794
 8892TIP3    H250872   2.709   4.428  11.300 -2.2237 -0.5421  1.3143
 8893TIP3   OH250873   6.816   3.773  12.667  0.4434 -0.6375  0.2695
 8893TIP3    H150874   6.748   3.793  12.604  0.6300 -2.7394 -0.6969
 8893TIP3    H250875   6.879   3.719  12.618  0.7189 -2.1345  2.1525
 8894TIP3   OH250876   3.855   6.469  11.706  0.2004  0.2976 -0.3460
 8894TIP3    H150877   3.825   6.520  11.781 -3.2758  0.5412 -1.7016
 8894TIP3    H250878   3.844   6.378  11.733  0.3705  0.3596 -0.0661
 8895TIP3   OH250879   6.757   4.037  11.823  0.0406  0.1241  0.4783
 8895TIP3    H150880   6.816   4.094  11.872  1.5611 -0.7753 -0.2389
 8895TIP3    H250881   6.757   3.955  11.873  1.0539 -0.5658 -0.6087
 8896TIP3   OH250882   0.838   5.291  11.589 -0.2638  0.4681  0.2334
 8896TIP3    H150883   0.756   5.289  11.540 -1.0525  1.1861  1.4950
 8896TIP3    H250884   0.839   5.209  11.637  1.8065 -1.5691 -2.9083
 8897TIP3   OH250885   2.754   4.907  11.342 -0.0988 -0.6222 -0.3217
 8897TIP3    H150886   2.759   4.857  11.260  1.9463  0.0224 -0.6291
 8897TIP3    H250887   2.776   4.843  11.410 -0.3262 -0.7975 -0.4086
 8898TIP3   OH250888   1.533   3.350  12.920 -0.1039 -0.0091  0.2572
 8898TIP3    H150889   1.500   3.301  12.996 -2.3145 -0.2769 -0.7966
 8898TIP3    H250890   1.504   3.300  12.844  2.3984  0.0406 -0.8488
 8899TIP3   OH250891   5.847   6.760  12.769 -0.3250  0.2715  0.1387
 8899TIP3    H150892   5.820   6.833  12.825 -1.6326  0.6850 -0.9803
 8899TIP3    H250893   5.784   6.761  12.697  1.8514  0.3986 -1.8798
 8900TIP3   OH250894   5.616   2.261  11.739 -0.1332 -0.0543  0.2895
 8900TIP3    H150895   5.616   2.171  11.773 -1.4443 -0.8773 -1.6808
 8900TIP3    H250896   5.591   2.251  11.647 -2.2818  2.4840  0.4904
 8901TIP3   OH250897   5.187   5.931  11.867 -0.3379  0.1094 -0.6874
 8901TIP3    H150898   5.140   5.854  11.835 -0.0427  0.2813 -1.5653
 8901TIP3    H250899   5.279   5.903  11.869 -0.3051  0.2381 -0.4007
 8902TIP3   OH250900   0.693   5.656  10.929  0.6740  0.6553  0.4074
 8902TIP3    H150901   0.763   5.666  10.994  1.1101  0.4530 -0.0245
 8902TIP3    H250902   0.638   5.586  10.963  1.3263  0.0225  0.1967
 8903TIP3   OH250903   2.489   1.562  11.255 -0.0688  0.5706 -0.4506
 8903TIP3    H150904   2.561   1.511  11.218 -0.3006  0.8425 -1.3055
 8903TIP3    H250905   2.509   1.569  11.348 -0.0407 -1.1022 -0.2949
 8904TIP3   OH250906   2.333   0.661  12.922  0.3131 -0.3584 -0.0587
 8904TIP3    H150907   2.405   0.678  12.861  0.8108  0.3823  0.7212
 8904TIP3    H250908   2.283   0.743  12.925 -0.0940 -0.6038  0.0326
 8905TIP3   OH250909   2.331   6.162  12.134 -0.1955 -0.2884  0.2178
 8905TIP3    H150910   2.312   6.214  12.056 -2.4202 -1.2280  0.0553
 8905TIP3    H250911   2.282   6.204  12.204  0.5913 -0.3214  0.8088
 8906TIP3   OH250912   4.517   0.914  12.007  0.3883 -0.5461 -0.0652
 8906TIP3    H150913   4.600   0.916  12.054 -0.2960  1.4306  1.1558
 8906TIP3    H250914   4.450   0.920  12.075 -0.6414  1.7116 -1.1804
 8907TIP3   OH250915   3.801   0.337  11.734  0.1550  0.4606  0.3416
 8907TIP3    H150916   3.713   0.362  11.705  0.6913  0.6255 -1.2462
 8907TIP3    H250917   3.847   0.420  11.745  0.4160  0.3403  0.1557
 8908TIP3   OH250918   7.005   1.176  13.109  0.3973  0.4350 -0.1788
 8908TIP3    H150919   6.980   1.126  13.031  0.9861  0.3579 -0.3236
 8908TIP3    H250920   6.960   1.260  13.100 -0.6568 -0.0913  0.1016
 8909TIP3   OH250921   5.869   1.256  13.305 -0.1069 -0.2010 -0.2730
 8909TIP3    H150922   5.787   1.270  13.258 -0.2190 -1.4080 -0.4623
 8909TIP3    H250923   5.846   1.268  13.397 -0.5914 -0.9327 -0.2950
 8910TIP3   OH250924   7.207   4.075  10.847 -0.3725  0.4356 -0.2141
 8910TIP3    H150925   7.153   4.144  10.808 -1.0776  0.0571  0.0661
 8910TIP3    H250926   7.156   4.043  10.921  0.2996  0.1492  0.1367
 8911TIP3   OH250927   4.066   3.974  12.947 -0.5627 -0.2754  0.0426
 8911TIP3    H150928   4.119   3.922  13.007 -0.3752 -0.6376 -0.4370
 8911TIP3    H250929   4.014   4.031  13.005  0.4420  0.1894  0.5170
 8912TIP3   OH250930   5.151   4.330  12.395 -0.2398 -0.0263  0.1190
 8912TIP3    H150931   5.078   4.291  12.347  0.8768  0.2493 -1.9097
 8912TIP3    H250932   5.111   4.400  12.446 -1.0535  2.9446 -4.0789
 8913TIP3   OH250933   4.087   3.597  11.384  0.1265 -0.1186  0.2863
 8913TIP3    H150934   4.060   3.535  11.452 -0.8899  0.2938  0.2641
 8913TIP3    H250935   4.087   3.682  11.427  1.6624 -0.1144  0.3545
 8914TIP3   OH250936   2.416   6.183  12.985 -0.7349  0.1938  0.2049
 8914TIP3    H150937   2.328   6.148  12.992 -0.4069 -0.6013  0.4653
 8914TIP3    H250938   2.465   6.140  13.055  0.1980 -0.4482 -0.7968
 8915TIP3   OH250939   6.097   1.636  12.038 -0.1618 -0.1729  0.5865
 8915TIP3    H150940   6.012   1.614  12.077 -0.7439  1.2900  0.2085
 8915TIP3    H250941   6.075   1.683  11.958  1.0246 -0.6253 -0.0359
 8916TIP3   OH250942   4.998   2.960  13.431  0.1241  0.0759  0.6233
 8916TIP3    H150943   4.995   3.054  13.451  1.8434  1.0181 -2.6507
 8916TIP3    H250944   5.075   2.928  13.478  1.5616  1.1962 -0.8367
 8917TIP3   OH250945   3.607   3.979  11.066 -0.1291  0.8856  0.1541
 8917TIP3    H150946   3.618   3.926  11.145 -2.3592 -0.5732 -0.4202
 8917TIP3    H250947   3.552   4.052  11.094  1.3275  1.9099  0.4944
 8918TIP3   OH250948   7.159   4.684  11.600  0.0271 -0.0397  0.3302
 8918TIP3    H150949   7.217   4.728  11.663  2.0528 -0.1100 -1.3747
 8918TIP3    H250950   7.210   4.609  11.569 -1.7244 -1.1748  0.0623
 8919TIP3   OH250951   3.897   3.232  11.450 -0.7183 -0.3343 -0.2394
 8919TIP3    H150952   3.863   3.158  11.500  0.8638 -0.4691  0.7128
 8919TIP3    H250953   3.832   3.301  11.462 -2.2371 -1.5486 -1.1871
 8920TIP3   OH250954   1.250   1.861  11.965  0.2401 -0.0789  0.2216
 8920TIP3    H150955   1.209   1.929  11.911  0.8864  0.3762  0.2862
 8920TIP3    H250956   1.274   1.792  11.904 -3.0907 -1.6913  0.4880
 8921TIP3   OH250957   1.937   4.318  11.614 -0.2921 -0.3154 -0.5943
 8921TIP3    H150958   1.886   4.358  11.684 -0.3356  2.0485 -1.8337
 8921TIP3    H250959   1.872   4.273  11.559 -0.7298  0.5286 -0.7929
 8922TIP3   OH250960   4.334   4.354  11.762 -0.2434  0.2446  0.0784
 8922TIP3    H150961   4.317   4.406  11.684  0.9438 -0.1542 -0.4675
 8922TIP3    H250962   4.253   4.359  11.813 -1.2464  0.0355 -1.4413
 8923TIP3   OH250963   2.650   7.189  11.300  0.3366  0.0520  0.2736
 8923TIP3    H150964   2.581   7.167  11.362  0.5563  0.5214  0.6875
 8923TIP3    H250965   2.719   7.125  11.316  0.3987  0.1825  0.5200
 8924TIP3   OH250966   7.236   3.805  10.716  0.3047  0.0423 -0.2171
 8924TIP3    H150967   7.152   3.763  10.695  0.0271  1.3754 -1.9565
 8924TIP3    H250968   7.211   3.891  10.752  0.9292  0.4001 -0.6412
 8925TIP3   OH250969   3.057   4.388  12.059  0.3340  0.0107 -0.3629
 8925TIP3    H150970   3.088   4.429  12.140  0.5693 -1.5778  0.3902
 8925TIP3    H250971   2.991   4.325  12.088 -0.7584  0.5496 -1.5811
 8926TIP3   OH250972   4.646   3.217  12.014 -0.1743 -0.5141 -0.7269
 8926TIP3    H150973   4.574   3.154  12.022 -2.8178  2.3455  0.1857
 8926TIP3    H250974   4.705   3.197  12.086 -0.3582 -2.5197 -1.0860
 8927TIP3   OH250975   1.557   1.179  11.623 -0.1580 -0.3234 -0.3620
 8927TIP3    H150976   1.630   1.238  11.605 -0.7872  1.4285  2.1645
 8927TIP3    H250977   1.486   1.237  11.649 -1.1298 -2.1227  1.3020
 8928TIP3   OH250978   1.601   0.649  11.871 -0.4704  0.0334  0.2107
 8928TIP3    H150979   1.661   0.713  11.910  1.2358 -2.0189  1.1494
 8928TIP3    H250980   1.621   0.650  11.778  0.1434  0.2782  0.3442
 8929TIP3   OH250981   4.078   7.023  12.670 -0.2453  0.5557 -1.0890
 8929TIP3    H150982   4.103   6.937  12.634  0.4008  0.2112  0.1510
 8929TIP3    H250983   4.120   7.086  12.612 -0.8809  0.0572 -2.1348
 8930TIP3   OH250984   4.927   7.212  11.847 -0.6478 -0.4003 -0.6056
 8930TIP3    H150985   4.836   7.238  11.855 -0.8973 -1.4636  0.2354
 8930TIP3    H250986   4.926   7.116  11.852  0.5082 -0.4349 -0.6217
 8931TIP3   OH250987   1.058   3.508  11.634 -0.5630  0.5097 -0.0586
 8931TIP3    H150988   1.095   3.562  11.705  0.9141  0.4276 -0.7235
 8931TIP3    H250989   1.047   3.422  11.673  1.4948  0.1121 -0.2246
 8932TIP3   OH250990   1.159   6.367  12.458 -0.3156 -0.0082  0.0275
 8932TIP3    H150991   1.228   6.410  12.406  1.0257 -0.0932  1.6494
 8932TIP3    H250992   1.187   6.379  12.549 -3.2159  1.1920  0.8523
 8933TIP3   OH250993   3.847   2.919  12.530 -0.1881  0.2280 -0.4908
 8933TIP3    H150994   3.789   2.859  12.484 -0.5915  1.2530 -1.3685
 8933TIP3    H250995   3.919   2.864  12.561 -1.2506 -0.9303 -0.0133
 8934TIP3   OH250996   7.220   1.294  12.108 -0.1018 -0.5162 -0.0228
 8934TIP3    H150997   7.132   1.257  12.100  0.6458 -2.4391 -0.1083
 8934TIP3    H250998   7.232   1.309  12.201 -0.1973 -1.1503  0.0947
 8935TIP3   OH250999   0.721   6.318  13.022 -0.0178  0.0328  0.1947
 8935TIP3    H151000   0.744   6.244  13.079  0.2121  0.9347  1.3248
 8935TIP3    H251001   0.793   6.324  12.961  0.5723  0.0726  0.8791
 8936TIP3   OH251002   1.187   6.957  13.623 -1.1400 -1.1062  0.2519
 8936TIP3    H151003   1.150   7.041  13.648  0.2938 -0.7450  1.2998
 8936TIP3    H251004   1.116   6.911  13.580 -2.0856  0.4624  0.0664
 8937TIP3   OH251005   1.440   4.253  12.571 -0.4056  0.4848  0.2507
 8937TIP3    H151006   1.448   4.309  12.648  3.3315  0.3358  0.1112
 8937TIP3    H251007   1.498   4.179  12.588 -1.6089 -0.9941 -1.5932
 8938TIP3   OH251008   0.986   4.463  10.848  0.6117  0.3375  0.3477
 8938TIP3    H151009   1.081   4.462  10.842  0.5466 -0.3986 -1.0542
 8938TIP3    H251010   0.960   4.371  10.845 -0.1326  0.4994  1.2800
 8939TIP3   OH251011   3.791   2.988  11.558 -0.4796 -0.1419  0.0558
 8939TIP3    H151012   3.851   2.955  11.492  0.1983  0.6568  0.2587
 8939TIP3    H251013   3.811   2.937  11.637 -0.2537 -0.0655  0.0477
 8940TIP3   OH251014   5.106   4.115  11.923 -0.3567 -0.6270 -0.3751
 8940TIP3    H151015   5.194   4.116  11.887 -0.2845 -1.8998 -0.2687
 8940TIP3    H251016   5.112   4.059  12.001 -1.2802 -0.8154 -0.4310
 8941TIP3   OH251017   1.989   0.726  11.469  0.3317 -0.5678 -0.3489
 8941TIP3    H151018   1.954   0.807  11.432  0.8562 -0.3045 -0.2883
 8941TIP3    H251019   2.051   0.756  11.536  0.6172 -1.0198 -0.4088
 8942TIP3   OH251020   1.020   6.910  11.292  0.6010 -0.0989  0.6011
 8942TIP3    H151021   1.035   6.998  11.258  0.0119  0.7244  2.3449
 8942TIP3    H251022   1.093   6.859  11.259 -0.0098  0.5485 -1.9880
 8943TIP3   OH251023   6.786   6.167  12.724  0.6415  0.8766  0.3147
 8943TIP3    H151024   6.750   6.112  12.793  0.9372  0.1391 -0.0976
 8943TIP3    H251025   6.709   6.206  12.681  0.1821 -1.4575 -1.2021
 8944TIP3   OH251026   1.456   3.511  11.135  0.6928 -0.3477  0.2828
 8944TIP3    H151027   1.385   3.498  11.198  0.1913  0.5384 -0.0800
 8944TIP3    H251028   1.535   3.484  11.182  0.4916  1.3544  1.7391
 8945TIP3   OH251029   1.578   5.875  10.570  0.4914  0.3169 -0.4192
 8945TIP3    H151030   1.528   5.795  10.583 -1.9653  1.9147  0.7488
 8945TIP3    H251031   1.541   5.914  10.490 -0.7034  1.8154  0.7863
 8946TIP3   OH251032   7.633   3.143  11.080 -0.6779 -0.0442 -0.4496
 8946TIP3    H151033   7.659   3.234  11.096  1.4240 -0.7056  0.2999
 8946TIP3    H251034   7.548   3.134  11.123 -0.8563  1.5190 -0.4219
 8947TIP3   OH251035   7.283   1.725  11.778 -0.5694 -0.2256 -0.2102
 8947TIP3    H151036   7.327   1.748  11.696  0.0587 -0.2745  0.1067
 8947TIP3    H251037   7.192   1.753  11.765 -0.0460  1.6405 -0.1770
 8948TIP3   OH251038   3.024   2.240  12.522 -0.2381  0.1556  0.0096
 8948TIP3    H151039   3.050   2.225  12.431  0.1437 -1.4713  0.3707
 8948TIP3    H251040   2.949   2.183  12.536 -0.0989  0.1582  0.8181
 8949TIP3   OH251041   3.192   0.037  12.583 -0.1169 -0.2690  0.0860
 8949TIP3    H151042   3.234   0.115  12.548 -0.0188  0.6059  2.0526
 8949TIP3    H251043   3.251   0.006  12.651 -0.5362 -1.6195 -0.1405
 8950TIP3   OH251044   4.296   1.462  12.242 -0.4546 -0.2535 -0.2624
 8950TIP3    H151045   4.305   1.551  12.206 -0.2077 -0.5602 -0.9846
 8950TIP3    H251046   4.286   1.406  12.165 -0.0732 -0.9168  0.1616
 8951TIP3   OH251047   2.833   4.426  12.773  0.1273 -0.7769 -0.0303
 8951TIP3    H151048   2.769   4.358  12.753  0.7021 -1.5100  0.5479
 8951TIP3    H251049   2.817   4.447  12.865 -0.6898  0.5877 -0.4575
 8952TIP3   OH251050   6.342   7.621  11.475 -0.3913 -0.4369  0.2947
 8952TIP3    H151051   6.288   7.675  11.532 -0.9958 -0.1781 -0.5120
 8952TIP3    H251052   6.431   7.635  11.507 -0.4422  1.5845 -0.3038
 8953TIP3   OH251053   5.016   2.252  11.910 -0.1144  0.4558 -0.0435
 8953TIP3    H151054   4.957   2.232  11.837  0.3686  1.2677 -0.6775
 8953TIP3    H251055   5.088   2.190  11.901 -0.9964 -0.7591  0.9268
 8954TIP3   OH251056   1.015   5.337  13.182 -0.1040  0.4537  0.1256
 8954TIP3    H151057   0.940   5.381  13.223 -2.6143 -1.8325 -1.6714
 8954TIP3    H251058   1.046   5.275  13.247  0.7605  1.8581  1.1198
 8955TIP3   OH251059   6.024   1.655  11.423  0.1430  0.4986  0.2218
 8955TIP3    H151060   6.081   1.701  11.484  0.6597 -0.4364  0.4692
 8955TIP3    H251061   5.944   1.708  11.420 -0.3645  0.0123  2.6066
 8956TIP3   OH251062   0.216   2.229  12.096 -0.1569 -0.1868 -0.5128
 8956TIP3    H151063   0.160   2.188  12.161 -0.7588  0.7322 -0.4440
 8956TIP3    H251064   0.266   2.294  12.145  0.6962 -0.7259 -0.6459
 8957TIP3   OH251065   6.228   5.897  10.760 -0.1224 -0.0415  0.0108
 8957TIP3    H151066   6.170   5.919  10.688  0.1982  0.4782 -0.0940
 8957TIP3    H251067   6.169   5.876  10.833 -0.4507 -0.8442 -0.4699
 8958TIP3   OH251068   3.169   0.283  13.481  0.1010 -0.2749 -0.5327
 8958TIP3    H151069   3.119   0.202  13.488 -3.0360  1.4182 -1.2921
 8958TIP3    H251070   3.223   0.286  13.560 -0.2580 -2.6946 -0.1438
 8959TIP3   OH251071   1.579   4.667  12.040  0.4181  0.1353  0.7376
 8959TIP3    H151072   1.493   4.702  12.017  0.9444  0.0995 -1.4866
 8959TIP3    H251073   1.568   4.572  12.039  0.1365  0.1370  2.0284
 8960TIP3   OH251074   2.220   3.566  11.258  0.6506  0.3275 -0.2497
 8960TIP3    H151075   2.191   3.491  11.310  0.4240  0.3185 -0.3921
 8960TIP3    H251076   2.165   3.639  11.288  2.3941  0.9916  1.5638
 8961TIP3   OH251077   1.048   6.220  11.304  0.2207  0.2164 -0.0817
 8961TIP3    H151078   1.086   6.307  11.296 -2.4843  1.5558  0.6350
 8961TIP3    H251079   0.990   6.212  11.228 -1.6785  0.2465  1.2939
 8962TIP3   OH251080   1.640   7.243  12.254 -0.3809  0.4035 -0.0673
 8962TIP3    H151081   1.611   7.192  12.178 -2.0293  0.4888  0.4639
 8962TIP3    H251082   1.728   7.211  12.273 -0.3373 -0.3177 -1.3975
 8963TIP3   OH251083   1.166   5.054  10.803  0.5513 -0.0985  0.1452
 8963TIP3    H151084   1.201   4.983  10.855  1.1000 -1.8925 -2.4868
 8963TIP3    H251085   1.195   5.035  10.713 -2.8864  1.0580 -1.3817
 8964TIP3   OH251086   7.156   4.359  13.206 -0.2137 -0.4518 -0.2793
 8964TIP3    H151087   7.176   4.269  13.232 -1.8600 -1.5125 -2.3689
 8964TIP3    H251088   7.219   4.380  13.138  0.2512  0.0566  0.2945
 8965TIP3   OH251089   5.988   4.470  11.700 -0.3962  0.0981  0.0252
 8965TIP3    H151090   6.056   4.423  11.652  2.2208  2.2305  1.4155
 8965TIP3    H251091   5.969   4.546  11.645  1.2119  1.5166  1.3133
 8966TIP3   OH251092   0.428   3.363  13.880 -0.4110  0.0358  0.2140
 8966TIP3    H151093   0.502   3.303  13.884 -1.1583 -1.2158 -2.2257
 8966TIP3    H251094   0.364   3.317  13.825 -1.9930  2.0814  0.2507
 8967TIP3   OH251095   1.065   0.607  11.620  0.5649  0.1380  0.2674
 8967TIP3    H151096   1.000   0.553  11.665  0.5064  0.8415  1.0658
 8967TIP3    H251097   1.025   0.628  11.536  1.1622 -2.1734 -0.6612
 8968TIP3   OH251098   5.012   0.389  11.189  0.4085 -0.0328  0.4849
 8968TIP3    H151099   5.083   0.342  11.146 -0.3035 -0.5098 -0.2150
 8968TIP3    H251100   5.027   0.481  11.168  0.2312 -0.2342 -0.5717
 8969TIP3   OH251101   0.871   5.863  12.803 -0.5745  0.2739  0.4179
 8969TIP3    H151102   0.904   5.794  12.860  0.0854 -0.4410 -0.7885
 8969TIP3    H251103   0.801   5.905  12.853 -0.4151 -0.7163  1.5004
 8970TIP3   OH251104   3.279   3.519  11.360  0.1185  0.1425 -0.2271
 8970TIP3    H151105   3.239   3.601  11.332  0.6355  0.0868 -1.1663
 8970TIP3    H251106   3.371   3.541  11.375  0.0365 -0.0291  0.5926
 8971TIP3   OH251107   6.406   4.260  11.803  0.1376 -0.6484 -0.3551
 8971TIP3    H151108   6.485   4.223  11.765  2.5505  2.8409  0.7406
 8971TIP3    H251109   6.400   4.221  11.890  0.9880 -0.5525 -0.2469
 8972TIP3   OH251110   1.080   6.122  10.888  0.4046  0.5086 -0.0369
 8972TIP3    H151111   0.998   6.170  10.895  0.6402  1.0321 -0.7026
 8972TIP3    H251112   1.141   6.184  10.847  0.8291 -0.2223 -0.5426
 8973TIP3   OH251113   3.680   3.960  12.149  0.8291 -0.3195 -0.4046
 8973TIP3    H151114   3.617   4.014  12.101  0.5370 -0.9168 -0.6998
 8973TIP3    H251115   3.765   4.003  12.134  0.3826  1.0671  0.8202
 8974TIP3   OH251116   2.902   5.017  10.998 -0.4297 -0.2522  0.2374
 8974TIP3    H151117   2.946   5.028  10.913 -1.1048 -1.5322 -0.2946
 8974TIP3    H251118   2.894   5.107  11.031 -0.5331  0.3221 -1.2357
 8975TIP3   OH251119   1.295   2.359  12.515 -0.0843 -0.2802  0.1434
 8975TIP3    H151120   1.373   2.371  12.461 -1.1212  0.9912 -1.1508
 8975TIP3    H251121   1.297   2.267  12.540  1.4323 -0.4374 -0.4545
 8976TIP3   OH251122   0.598   6.876  11.179 -0.4208 -0.3289  0.7358
 8976TIP3    H151123   0.533   6.943  11.201 -0.2273  0.7805 -1.7774
 8976TIP3    H251124   0.551   6.793  11.191 -1.4728  0.3341  1.4303
 8977TIP3   OH251125   2.619   3.488  13.498 -0.1445 -0.1053  0.1319
 8977TIP3    H151126   2.654   3.414  13.449 -1.2009 -0.9612  0.6311
 8977TIP3    H251127   2.623   3.561  13.437 -1.8971 -1.2516 -1.4679
 8978TIP3   OH251128   5.035   7.165  11.235 -0.2364 -0.6632  0.0686
 8978TIP3    H151129   4.991   7.174  11.151 -0.9776  0.3686  0.5364
 8978TIP3    H251130   5.061   7.073  11.240  1.3618 -0.3912 -2.0207
 8979TIP3   OH251131   5.644   3.062  11.683  0.1902  0.4777  0.0831
 8979TIP3    H151132   5.601   3.032  11.603  0.4811 -2.1429  0.8186
 8979TIP3    H251133   5.736   3.071  11.659  0.2355 -0.0580  0.0377
 8980TIP3   OH251134   3.434   3.473  12.184 -0.1641 -0.0356  0.6873
 8980TIP3    H151135   3.436   3.565  12.160  0.8521  0.2607  1.7926
 8980TIP3    H251136   3.442   3.473  12.280 -0.1571 -1.2696  0.7058
 8981TIP3   OH251137   4.737   6.433  12.665 -0.6701  0.0943  0.4641
 8981TIP3    H151138   4.685   6.414  12.587  1.1713 -1.9082 -0.3761
 8981TIP3    H251139   4.790   6.509  12.641 -0.7101 -0.0051  0.0550
 8982TIP3   OH251140   2.973   1.358  13.285 -0.2102 -0.0398  0.2788
 8982TIP3    H151141   2.916   1.414  13.337 -0.6468 -0.6385  0.4423
 8982TIP3    H251142   2.943   1.269  13.302  0.5329 -0.3372  0.0820
 8983TIP3   OH251143   5.235   2.124  11.830 -0.4356 -0.3881  0.1448
 8983TIP3    H151144   5.257   2.199  11.774 -1.2060  0.2350  0.6611
 8983TIP3    H251145   5.236   2.049  11.770  0.7120 -0.0350 -0.3037
 8984TIP3   OH251146   3.575   0.078  12.856  0.2489 -0.4199  0.0898
 8984TIP3    H151147   3.640   0.053  12.921  0.5736  1.3030  0.4496
 8984TIP3    H251148   3.546   0.165  12.882 -0.7663 -0.3408 -1.1961
 8985TIP3   OH251149   0.734   3.784  12.124 -0.0129 -0.4323 -0.2637
 8985TIP3    H151150   0.708   3.870  12.157 -4.6872 -1.3139 -0.9077
 8985TIP3    H251151   0.719   3.725  12.198 -0.8797 -1.1373 -0.9764
 8986TIP3   OH251152   6.309   3.012  10.954  0.4757  0.0929  0.8181
 8986TIP3    H151153   6.350   2.943  10.901 -0.6179  0.0792 -0.0479
 8986TIP3    H251154   6.380   3.045  11.009  1.1774 -1.2645  0.7709
 8987TIP3   OH251155   4.143   4.732  12.132 -1.0639 -0.2031  0.4288
 8987TIP3    H151156   4.182   4.670  12.070  0.1136  1.7365 -0.8894
 8987TIP3    H251157   4.206   4.738  12.204 -0.5073  0.4137 -0.0895
 8988TIP3   OH251158   1.034   4.254  11.575  0.2827 -0.0006  0.2771
 8988TIP3    H151159   0.958   4.251  11.517  1.3148  1.9828 -1.3017
 8988TIP3    H251160   1.105   4.216  11.523  0.6112 -0.9385  1.3732
 8989TIP3   OH251161   2.256   1.369  10.714  0.0424  0.0169  0.5090
 8989TIP3    H151162   2.183   1.318  10.679 -0.5880  0.4926  1.1004
 8989TIP3    H251163   2.215   1.445  10.755  1.0196  1.8519 -1.6428
 8990TIP3   OH251164   6.254   1.516  12.283 -0.0916 -0.2800 -0.4461
 8990TIP3    H151165   6.204   1.542  12.206 -0.8996 -0.8629 -0.1415
 8990TIP3    H251166   6.252   1.593  12.340  2.0443  0.8019 -1.7078
 8991TIP3   OH251167   5.603   3.564  12.507  0.2980  0.0623 -0.3313
 8991TIP3    H151168   5.663   3.608  12.566  0.5833 -2.4100  1.4031
 8991TIP3    H251169   5.656   3.543  12.430  1.2698 -0.6403  0.4899
 8992TIP3   OH251170   0.128   5.541  12.105  0.2818 -0.0003  0.1000
 8992TIP3    H151171   0.082   5.519  12.186  1.6113  1.4063  1.2802
 8992TIP3    H251172   0.159   5.456  12.072 -0.6104 -0.6360  0.8327
 8993TIP3   OH251173   4.305   3.217  11.736 -0.4675  0.1826 -0.4957
 8993TIP3    H151174   4.211   3.225  11.718 -0.5573  0.0576 -0.0842
 8993TIP3    H251175   4.327   3.298  11.783 -1.0379 -1.1444  2.2358
 8994TIP3   OH251176   4.710   6.454  12.189 -0.2804 -0.6013 -0.2271
 8994TIP3    H151177   4.641   6.407  12.142 -0.0847 -1.6659  0.5043
 8994TIP3    H251178   4.708   6.542  12.153 -1.9652 -0.6402 -0.2989
 8995TIP3   OH251179   2.026   0.968  11.317 -0.0032  0.3808  0.2799
 8995TIP3    H151180   2.090   0.998  11.252 -0.1526 -1.4626 -0.7892
 8995TIP3    H251181   1.954   1.031  11.311  0.6518  1.0945 -0.2496
 8996TIP3   OH251182   0.597   5.017  11.142 -0.1978 -0.1921  0.4993
 8996TIP3    H151183   0.670   4.958  11.122 -0.7430 -0.6534 -0.1585
 8996TIP3    H251184   0.553   4.977  11.217 -0.7746 -0.8310 -0.1598
 8997TIP3   OH251185   0.520   4.942  12.066  0.4144 -0.2516 -0.0918
 8997TIP3    H151186   0.496   4.927  12.157 -0.4214 -1.4461 -0.4899
 8997TIP3    H251187   0.580   4.870  12.044 -2.2318 -2.1981 -1.4981
 8998TIP3   OH251188   0.098   2.358  10.800 -0.0341 -0.4616  0.0698
 8998TIP3    H151189   0.135   2.276  10.767 -0.0356 -0.8319  0.9662
 8998TIP3    H251190   0.163   2.391  10.863  0.3296  0.6310 -0.8313
 8999TIP3   OH251191   4.819   6.476  11.281  0.2680 -0.5472 -0.6281
 8999TIP3    H151192   4.803   6.456  11.373  0.6717  1.2638 -0.1147
 8999TIP3    H251193   4.733   6.502  11.247  0.4937  0.8688 -0.1650
 9000TIP3   OH251194   5.563   3.572  12.895 -0.5448 -0.0738 -0.4372
 9000TIP3    H151195   5.568   3.536  12.983  1.6582 -1.5852 -1.0965
 9000TIP3    H251196   5.499   3.516  12.850  0.1892 -0.9159 -0.4574
 9001TIP3   OH251197   6.876   3.151  12.712 -0.4650 -0.2920  0.1669
 9001TIP3    H151198   6.878   3.152  12.808 -0.5256 -1.7698  0.2004
 9001TIP3    H251199   6.918   3.233  12.687  1.3007 -0.7308  1.4478
 9002TIP3   OH251200   2.472   0.393  12.824  0.3024 -0.4531  0.3054
 9002TIP3    H151201   2.439   0.332  12.758 -1.3750  1.1029 -0.3628
 9002TIP3    H251202   2.490   0.474  12.777  0.8956  0.1090  1.4484
 9003TIP3   OH251203   1.934   5.787  11.989  0.1504 -0.4856 -0.1504
 9003TIP3    H151204   1.994   5.716  12.013 -1.0580 -1.4775  0.0384
 9003TIP3    H251205   1.915   5.772  11.897  1.3464  0.7313 -0.6289
 9004TIP3   OH251206   5.810   6.356  11.529 -0.1776  0.5670  0.4514
 9004TIP3    H151207   5.818   6.262  11.544  2.9397  1.0656  3.1276
 9004TIP3    H251208   5.727   6.380  11.570 -0.1114 -0.7517  1.4135
 9005TIP3   OH251209   7.448   4.927  12.433 -0.0033  0.2349 -0.5098
 9005TIP3    H151210   7.504   4.939  12.357  0.6211 -0.0494 -0.1043
 9005TIP3    H251211   7.394   4.850  12.412  1.9024 -1.4227  0.3078
 9006TIP3   OH251212   1.402   7.434  12.775 -0.2343 -0.0951 -0.2648
 9006TIP3    H151213   1.334   7.426  12.843  0.6016 -0.1636  0.5838
 9006TIP3    H251214   1.473   7.377  12.805 -0.6684 -1.8015 -2.2707
 9007TIP3   OH251215   5.421   5.405  12.077  0.2492 -0.0856 -0.2754
 9007TIP3    H151216   5.346   5.355  12.043  0.1321  0.2747 -0.5623
 9007TIP3    H251217   5.395   5.497  12.065  0.9428  0.0425 -0.8399
 9008TIP3   OH251218   1.124   2.391  11.745  0.1124 -0.3360  0.8902
 9008TIP3    H151219   1.101   2.395  11.838 -0.5692  0.1956  0.7058
 9008TIP3    H251220   1.074   2.316  11.712 -0.0157 -0.2340  0.8526
 9009TIP3   OH251221   1.221   6.158  11.646 -0.2462  0.2576  0.4683
 9009TIP3    H151222   1.167   6.086  11.615  0.6669 -1.1943  2.0703
 9009TIP3    H251223   1.306   6.118  11.665  1.7244  2.5469 -2.6074
 9010TIP3   OH251224   3.546   3.063  11.165 -0.1324  0.2671  0.2218
 9010TIP3    H151225   3.632   3.020  11.174 -0.2330 -0.0465 -0.2548
 9010TIP3    H251226   3.518   3.080  11.255  0.2297 -0.0273  0.3946
 9011TIP3   OH251227   2.523   6.100  14.030  0.2896  0.3519  0.0307
 9011TIP3    H151228   2.429   6.100  14.051  0.0380 -0.3337 -1.0075
 9011TIP3    H251229   2.566   6.121  14.113 -0.7591  0.2198  0.6322
 9012TIP3   OH251230   3.485   5.512  13.929 -0.7234 -0.1941 -0.4596
 9012TIP3    H151231   3.536   5.571  13.873 -2.0619  1.9493  0.4390
 9012TIP3    H251232   3.546   5.441  13.950  1.6206  1.7484 -0.1614
 9013TIP3   OH251233   1.461   1.324  12.280 -0.3614  0.4219 -0.2461
 9013TIP3    H151234   1.452   1.323  12.376 -2.4327 -2.8790 -0.2974
 9013TIP3    H251235   1.475   1.416  12.258  2.1046  1.1019  3.2926
 9014TIP3   OH251236   6.199   1.193  12.719 -0.0722  0.3916  0.4085
 9014TIP3    H151237   6.257   1.188  12.795 -2.4338 -5.0291  2.4347
 9014TIP3    H251238   6.117   1.228  12.753 -0.6667 -0.5634  0.0051
 9015TIP3   OH251239   4.276   4.401  11.229  0.1123 -0.3061  0.4915
 9015TIP3    H151240   4.192   4.420  11.188  1.0775  1.0611 -1.0130
 9015TIP3    H251241   4.292   4.309  11.210  0.2619  0.1371 -1.8384
 9016TIP3   OH251242   3.723   4.072  12.662 -0.0360 -0.2151 -0.4194
 9016TIP3    H151243   3.773   4.107  12.588  1.5146 -1.5888 -0.1068
 9016TIP3    H251244   3.632   4.081  12.636  0.3704  1.7712 -1.3368
 9017TIP3   OH251245   2.465   0.549  10.894 -0.0256 -0.1361  0.0901
 9017TIP3    H151246   2.441   0.463  10.860  0.0516  0.4315 -1.4443
 9017TIP3    H251247   2.412   0.558  10.974 -1.0918 -1.0277 -0.4813
 9018TIP3   OH251248   5.537   5.598  12.590 -0.3528 -0.2684 -0.0065
 9018TIP3    H151249   5.588   5.663  12.639 -0.3247 -0.6020  0.4149
 9018TIP3    H251250   5.512   5.533  12.656 -2.8587  0.7938  0.2170
 9019TIP3   OH251251   2.469   2.374  11.214 -0.3334 -0.3061  0.4115
 9019TIP3    H151252   2.413   2.451  11.225  1.0096  0.7587  0.0617
 9019TIP3    H251253   2.471   2.359  11.120 -0.3992 -0.6264  0.4605
 9020TIP3   OH251254   1.466   7.512  13.431  0.0086  0.7862 -0.1503
 9020TIP3    H151255   1.407   7.535  13.359 -0.8645 -0.5211  0.1182
 9020TIP3    H251256   1.472   7.417  13.428 -1.2379  0.5445  2.3612
 9021TIP3   OH251257   6.624   5.684  10.839 -0.3300 -0.4917 -0.7405
 9021TIP3    H151258   6.597   5.764  10.793  1.5857 -0.5553 -2.1106
 9021TIP3    H251259   6.555   5.669  10.903 -0.9153  2.1090 -0.6278
 9022TIP3   OH251260   2.308   4.453  11.200 -0.0736  0.6134  0.3989
 9022TIP3    H151261   2.342   4.376  11.154 -0.8185  0.4289  0.1310
 9022TIP3    H251262   2.278   4.419  11.285  2.0377  1.0934  1.3945
 9023TIP3   OH251263   7.541   3.535  10.926 -0.1075 -0.2251  0.8085
 9023TIP3    H151264   7.510   3.481  10.853  1.5877 -0.3987  0.1712
 9023TIP3    H251265   7.463   3.581  10.957 -0.7647  0.4028 -1.5858
 9024TIP3   OH251266   7.094   0.053  11.473 -0.4947 -0.3198  0.1781
 9024TIP3    H151267   7.165   0.086  11.527 -1.0825 -1.8288  1.9692
 9024TIP3    H251268   7.123  -0.034  11.444 -0.7472 -0.0796 -0.8685
 9025TIP3   OH251269   3.783   3.612  11.605 -0.0502 -0.1273  0.4633
 9025TIP3    H151270   3.820   3.527  11.629 -0.5259 -0.4413  0.0894
 9025TIP3    H251271   3.828   3.674  11.662 -0.1816 -0.7095  1.2241
 9026TIP3   OH251272   1.523   1.659  12.845 -0.2017  0.1084  0.7946
 9026TIP3    H151273   1.435   1.627  12.824  0.1810 -0.5609  0.1495
 9026TIP3    H251274   1.515   1.695  12.933 -0.8244 -1.1450  1.2767
 9027TIP3   OH251275   6.647   1.222  11.528  0.1860  0.2973  0.1710
 9027TIP3    H151276   6.568   1.202  11.578 -0.2340  2.0582  0.2544
 9027TIP3    H251277   6.634   1.311  11.495  2.2251  0.7275  0.3729
 9028TIP3   OH251278   6.762   2.443  11.072  0.3441  0.3071  0.0851
 9028TIP3    H151279   6.750   2.532  11.037  1.8992  0.0683 -1.1336
 9028TIP3    H251280   6.673   2.413  11.089 -0.6517  0.3526 -4.0153
 9029TIP3   OH251281   2.799   3.267  11.714 -0.2378 -0.7329  0.2978
 9029TIP3    H151282   2.855   3.281  11.638 -0.0538  0.3222  0.6107
 9029TIP3    H251283   2.744   3.193  11.690 -0.2951 -0.3155 -0.9380
 9030TIP3   OH251284   3.382   4.584  11.432  0.0506  0.0651 -0.1226
 9030TIP3    H151285   3.329   4.598  11.353 -0.7346  1.3052  0.5893
 9030TIP3    H251286   3.390   4.489  11.439 -2.0706 -0.1579 -0.2765
 9031TIP3   OH251287   5.553   1.844  12.068  0.0989  0.6864  0.7797
 9031TIP3    H151288   5.537   1.776  12.133  0.3239  0.7436  0.8950
 9031TIP3    H251289   5.468   1.888  12.059 -0.8879 -1.4478 -1.4594
 9032TIP3   OH251290   5.578   0.301  12.086  0.2413 -1.1172  0.3378
 9032TIP3    H151291   5.663   0.293  12.043  0.6383  2.0599  0.3266
 9032TIP3    H251292   5.530   0.365  12.034 -1.9025 -2.2462  0.8016
 9033TIP3   OH251293   3.038   1.487  12.538  0.2420 -0.1436 -0.4185
 9033TIP3    H151294   3.083   1.417  12.585  0.0064  0.2197  0.3611
 9033TIP3    H251295   3.004   1.544  12.607 -1.5025 -0.4620 -0.9598
 9034TIP3   OH251296   2.461   3.208  11.313 -0.0267 -0.1125 -0.2561
 9034TIP3    H151297   2.538   3.262  11.331 -0.2033 -0.0109  0.2261
 9034TIP3    H251298   2.474   3.176  11.224  0.1779  0.5634 -0.4748
 9035TIP3   OH251299   6.016   6.175  12.598  0.0061 -0.2851 -0.0550
 9035TIP3    H151300   6.074   6.166  12.674 -1.1941 -0.6020  0.8619
 9035TIP3    H251301   6.039   6.101  12.542 -0.6754 -1.4479  1.1301
 9036TIP3   OH251302   3.061   6.805  13.915 -0.2108 -0.2626  0.2987
 9036TIP3    H151303   3.036   6.872  13.979  0.3268 -1.1935  1.5226
 9036TIP3    H251304   2.978   6.772  13.881 -0.4856  1.0674 -0.4087
 9037TIP3   OH251305   5.356   0.040  10.787 -0.0439 -0.2359 -0.3827
 9037TIP3    H151306   5.374   0.039  10.881 -0.5952 -0.7004 -0.2728
 9037TIP3    H251307   5.428  -0.010  10.748 -0.5985 -1.3482 -0.0402
 9038TIP3   OH251308   7.517   0.008  11.490 -0.1596  0.0528 -0.4410
 9038TIP3    H151309   7.578   0.022  11.563 -0.9386 -0.3975  0.3186
 9038TIP3    H251310   7.532   0.083  11.432 -1.1182  1.6988  1.3025
 9039TIP3   OH251311   0.025   4.310  11.249  0.2595 -0.1628  0.3572
 9039TIP3    H151312   0.055   4.400  11.266  0.8352 -0.2425 -0.1835
 9039TIP3    H251313   0.085   4.256  11.300  1.6141 -0.3705 -1.3565
 9040TIP3   OH251314   6.632   1.509  13.297  0.2934  0.3827 -0.8461
 9040TIP3    H151315   6.620   1.603  13.288 -2.4206  0.1573 -0.4456
 9040TIP3    H251316   6.696   1.499  13.367 -0.6882  1.9523  0.3379
 9041TIP3   OH251317   0.223   3.441  11.786  0.3903  0.1514 -0.3388
 9041TIP3    H151318   0.152   3.386  11.819  0.6784  0.0602  0.1258
 9041TIP3    H251319   0.263   3.390  11.715  0.8994 -0.4006  0.3380
 9042TIP3   OH251320   0.511   4.851  11.335 -0.5784  0.1077  0.0876
 9042TIP3    H151321   0.557   4.796  11.397 -0.3001  0.9346  0.6308
 9042TIP3    H251322   0.438   4.797  11.304  1.4387 -1.7346 -1.8004
 9043TIP3   OH251323   4.291   6.118  12.003 -0.3093 -0.2018  1.0316
 9043TIP3    H151324   4.385   6.134  12.000 -0.5054  0.8417 -0.4103
 9043TIP3    H251325   4.278   6.065  12.082  1.3317  0.6285  1.9053
 9044TIP3   OH251326   4.491   4.086  12.364 -0.5162  0.3600 -0.6381
 9044TIP3    H151327   4.585   4.071  12.373 -0.5531  0.4368 -0.0578
 9044TIP3    H251328   4.465   4.035  12.288 -0.0885 -0.0411 -0.5180
 9045TIP3   OH251329   5.921   1.414  11.512  0.5392 -0.0459  0.0719
 9045TIP3    H151330   5.971   1.484  11.469  0.9487 -0.6723 -0.5030
 9045TIP3    H251331   5.987   1.365  11.561  0.3008 -0.1944  0.2430
 9046TIP3   OH251332   4.574   1.142  12.792 -0.4678  0.0092 -0.0149
 9046TIP3    H151333   4.565   1.226  12.837 -0.1236  0.4435 -0.7387
 9046TIP3    H251334   4.664   1.115  12.810 -0.5778 -0.2078  0.2164
 9047TIP3   OH251335   1.721   0.196  12.775 -0.6668  0.0980  0.3145
 9047TIP3    H151336   1.767   0.120  12.811 -2.2813 -1.0106  0.1882
 9047TIP3    H251337   1.741   0.194  12.681  1.0360  1.1436  0.6292
 9048TIP3   OH251338   3.783   7.431  12.726 -0.1225 -0.4361 -0.1793
 9048TIP3    H151339   3.780   7.335  12.718 -2.1275 -0.2826 -2.2258
 9048TIP3    H251340   3.707   7.453  12.779 -1.3042  0.1498 -2.0536
 9049TIP3   OH251341   4.393   5.640  12.258 -0.3809 -0.0774 -0.2922
 9049TIP3    H151342   4.433   5.599  12.335 -0.8582  1.2950  0.7214
 9049TIP3    H251343   4.302   5.609  12.259  0.1170 -1.7310 -1.5490
 9050TIP3   OH251344   6.258   4.085  12.506 -0.1136 -0.2399  0.6093
 9050TIP3    H151345   6.264   4.147  12.578 -1.2195 -0.5552  0.9844
 9050TIP3    H251346   6.341   4.038  12.509 -0.3349 -0.5852  2.0038
 9051TIP3   OH251347   2.995   0.720  12.631  0.2678 -0.0919 -0.1070
 9051TIP3    H151348   3.040   0.644  12.594 -0.0479 -0.1162 -0.4447
 9051TIP3    H251349   3.040   0.737  12.714 -0.6683 -1.6147  0.7455
 9052TIP3   OH251350   0.573   6.254  12.502 -0.3867  0.6697 -0.7328
 9052TIP3    H151351   0.523   6.174  12.517 -0.0627  0.3771 -1.1898
 9052TIP3    H251352   0.651   6.244  12.557  0.2948  0.0649 -1.7678
 9053TIP3   OH251353   3.403   1.906  10.917  0.3905  0.0462 -0.0814
 9053TIP3    H151354   3.475   1.874  10.863  0.0237  0.2839 -0.7162
 9053TIP3    H251355   3.377   1.830  10.970 -0.5948 -0.7860 -1.6991
 9054TIP3   OH251356   4.973   5.809  12.555 -0.0368  0.5450  0.1179
 9054TIP3    H151357   4.985   5.740  12.489 -0.9778  0.7640 -0.2958
 9054TIP3    H251358   5.050   5.865  12.545 -0.3957  0.8390 -1.1227
 9055TIP3   OH251359   7.298   0.607  13.291  0.0823 -0.2176  0.0345
 9055TIP3    H151360   7.382   0.563  13.308  0.3615  0.1368 -0.4128
 9055TIP3    H251361   7.279   0.586  13.200 -0.4616 -0.5300  0.2175
 9056TIP3   OH251362   6.059   2.962  11.389 -0.8090 -0.2659  0.3337
 9056TIP3    H151363   6.015   2.964  11.474 -1.9160  0.2613 -0.2272
 9056TIP3    H251364   6.149   2.988  11.407 -1.6149  2.3800  1.0324
 9057TIP3   OH251365   0.839   3.748  13.621  0.8711  0.7090 -0.7193
 9057TIP3    H151366   0.837   3.657  13.592 -0.2411  0.7623 -0.8550
 9057TIP3    H251367   0.924   3.781  13.591  1.3444 -0.3165 -0.5416
 9058TIP3   OH251368   6.063   7.271  12.115 -0.0089 -0.3885 -0.2997
 9058TIP3    H151369   6.137   7.246  12.170 -0.4463 -0.7929  0.1223
 9058TIP3    H251370   6.052   7.199  12.054  0.5354  0.1047 -0.9912
 9059TIP3   OH251371   0.590   5.981  11.794  0.0095 -0.5855 -0.0492
 9059TIP3    H151372   0.554   5.922  11.728  0.4107 -0.0136 -0.7951
 9059TIP3    H251373   0.681   5.955  11.803  0.5033  0.5956 -1.2065
 9060TIP3   OH251374   3.472   4.497  11.939 -0.2737  0.2038 -0.0582
 9060TIP3    H151375   3.430   4.422  11.981 -0.4956  0.4986  0.2493
 9060TIP3    H251376   3.475   4.474  11.846  0.4475 -0.5622  0.1454
 9061TIP3   OH251377   3.781   4.217  11.214 -0.4939  0.2994 -0.1992
 9061TIP3    H151378   3.857   4.175  11.255 -2.5005 -1.8193  1.6306
 9061TIP3    H251379   3.759   4.289  11.274 -0.2802  0.5443 -0.4138
 9062TIP3   OH251380   2.610   6.373  13.346 -0.5249 -0.0420 -0.1319
 9062TIP3    H151381   2.573   6.405  13.264 -1.9150 -1.2674 -0.0211
 9062TIP3    H251382   2.611   6.278  13.337  1.3704 -0.1304  0.4369
 9063TIP3   OH251383   6.754   2.259  13.035  0.0415 -0.3941 -0.0871
 9063TIP3    H151384   6.782   2.174  12.999  0.1172 -1.1432  1.6382
 9063TIP3    H251385   6.778   2.255  13.128  0.7887  1.8548 -0.1161
 9064TIP3   OH251386   3.733   7.062  11.716 -0.0442 -0.0860 -0.1495
 9064TIP3    H151387   3.691   7.148  11.722  0.8551  0.2897  1.3982
 9064TIP3    H251388   3.818   7.074  11.758  0.2780 -1.6246 -0.3063
 9065TIP3   OH251389   1.944   4.261  12.218 -0.8471  0.2309  0.6556
 9065TIP3    H151390   1.960   4.169  12.238  1.5931  0.5368  0.4354
 9065TIP3    H251391   1.971   4.308  12.297 -0.2577  0.8395  0.1116
 9066TIP3   OH251392   2.866   1.682  12.698 -0.0355  0.4179  0.0769
 9066TIP3    H151393   2.827   1.755  12.747  2.0203  1.1963  0.6381
 9066TIP3    H251394   2.832   1.694  12.609 -0.8941  1.1815  0.4806
 9067TIP3   OH251395   3.594   6.211  11.536 -0.0082  0.7476 -0.0101
 9067TIP3    H151396   3.662   6.144  11.531 -0.8879 -0.0915 -2.7478
 9067TIP3    H251397   3.519   6.167  11.577 -0.3322  0.2232 -1.1150
 9068TIP3   OH251398   6.697   6.113  10.815  0.2134 -0.1289 -0.2623
 9068TIP3    H151399   6.776   6.065  10.841  0.0068 -0.4100 -0.1479
 9068TIP3    H251400   6.626   6.051  10.830 -0.3758  1.0572  2.3373
 9069TIP3   OH251401   2.778   5.903  12.809 -0.1207  0.1940  0.2771
 9069TIP3    H151402   2.778   5.837  12.878 -1.5951 -0.0168  0.1121
 9069TIP3    H251403   2.820   5.861  12.734 -2.4682 -1.1813 -0.3505
 9070TIP3   OH251404   0.811   6.467  12.420  0.0482  0.1110 -0.1152
 9070TIP3    H151405   0.755   6.503  12.488  2.2214  2.9167  0.3520
 9070TIP3    H251406   0.879   6.418  12.468  0.7707  0.8948 -0.3125
 9071TIP3   OH251407   0.344   6.627  11.509 -0.1504  0.4753 -0.3803
 9071TIP3    H151408   0.413   6.678  11.466  1.0301  0.4003  1.3367
 9071TIP3    H251409   0.352   6.540  11.470  0.6307  0.5044 -0.3068
 9072TIP3   OH251410   1.006   5.171  11.130 -0.2876 -0.6652 -0.5580
 9072TIP3    H151411   1.044   5.259  11.124 -0.3533 -0.6523 -0.8032
 9072TIP3    H251412   0.915   5.185  11.155  0.0018 -0.7215  0.5660
 9073TIP3   OH251413   5.870   6.389  11.939  0.0150  0.3264  0.0965
 9073TIP3    H151414   5.842   6.298  11.948 -0.0841  0.4167  0.7267
 9073TIP3    H251415   5.820   6.437  12.005  2.8714  0.2215  2.5428
 9074TIP3   OH251416   2.753   4.789  11.081  0.3457  0.1410  0.1735
 9074TIP3    H151417   2.662   4.791  11.051 -0.7535  1.0591  3.2616
 9074TIP3    H251418   2.796   4.861  11.033 -0.6340  0.0186 -0.9399
 9075TIP3   OH251419   4.411   0.079  12.421 -0.3716  0.4467  0.0138
 9075TIP3    H151420   4.377   0.053  12.507  2.3684 -0.3085  0.9802
 9075TIP3    H251421   4.453   0.164  12.437 -0.9229  0.9081 -0.9092
 9076TIP3   OH251422   2.614   6.749  11.054 -0.2555  0.0802  0.1441
 9076TIP3    H151423   2.590   6.657  11.057 -1.6649  0.4322  3.2941
 9076TIP3    H251424   2.708   6.749  11.032 -0.6343 -1.9020 -1.8132
 9077TIP3   OH251425   6.811   2.880  11.105  0.2470  0.0928  0.4077
 9077TIP3    H151426   6.878   2.862  11.039 -0.4515  1.5478 -0.7644
 9077TIP3    H251427   6.837   2.828  11.181  1.9044 -0.4771 -0.5037
 9078TIP3   OH251428   5.972   4.800  11.167 -0.6966  0.4451 -0.0360
 9078TIP3    H151429   5.878   4.781  11.173 -0.3122 -1.3692  1.3343
 9078TIP3    H251430   6.014   4.715  11.180  1.1745  1.5745  2.0240
 9079TIP3   OH251431   4.933   3.841  12.866 -0.5955  0.2958  0.1917
 9079TIP3    H151432   4.929   3.870  12.775 -1.8806  0.6225  0.3353
 9079TIP3    H251433   4.959   3.919  12.916 -0.5773  0.2916  0.1894
 9080TIP3   OH251434   6.427   1.624  11.323 -0.0811 -0.0716 -0.1697
 9080TIP3    H151435   6.463   1.687  11.385  0.3923  0.3169 -0.8252
 9080TIP3    H251436   6.428   1.671  11.239  1.9278 -1.5548 -1.0271
 9081TIP3   OH251437   3.001   6.775  12.297 -0.5307  0.3065 -0.2764
 9081TIP3    H151438   3.023   6.724  12.219 -1.0912 -2.4225  1.2077
 9081TIP3    H251439   3.085   6.793  12.339 -0.3608 -0.1355 -0.4181
 9082TIP3   OH251440   5.787   0.898  12.961  0.2757  0.2064 -0.1804
 9082TIP3    H151441   5.774   0.988  12.989  2.7125 -0.0887  2.2745
 9082TIP3    H251442   5.702   0.856  12.975 -0.8026  1.9886 -1.0610
 9083TIP3   OH251443   1.458   0.051  12.078  0.0970  0.1719  0.2176
 9083TIP3    H151444   1.420  -0.001  12.148  0.1503  1.2044  1.0458
 9083TIP3    H251445   1.550   0.060  12.102 -0.1788  1.7388  0.8146
 9084TIP3   OH251446   2.366   4.589  12.473  0.1870  0.0542  0.5901
 9084TIP3    H151447   2.354   4.538  12.553 -0.8115  1.0515  1.1019
 9084TIP3    H251448   2.310   4.545  12.409 -2.6969  1.8185  1.6798
 9085TIP3   OH251449   4.053   5.733  11.028  0.0576 -0.3180  0.0001
 9085TIP3    H151450   4.091   5.815  11.058  0.3324 -1.1411  1.9973
 9085TIP3    H251451   3.959   5.745  11.038 -0.0432  0.3529 -1.4101
 9086TIP3   OH251452   1.807   7.325  12.606  0.7849  0.0750 -0.0545
 9086TIP3    H151453   1.827   7.259  12.540 -0.2841  0.9472 -1.3039
 9086TIP3    H251454   1.758   7.277  12.674 -0.5714 -0.3327 -1.2635
 9087TIP3   OH251455   0.390   4.193  12.971 -0.0285  0.0007 -0.3480
 9087TIP3    H151456   0.411   4.115  12.919  1.7386  0.7899 -0.9058
 9087TIP3    H251457   0.297   4.183  12.992 -0.2417 -1.4720 -1.7285
 9088TIP3   OH251458   3.515   5.637  11.258  0.8447 -0.2208  0.6099
 9088TIP3    H151459   3.468   5.710  11.219  0.9090 -0.9122 -0.7996
 9088TIP3    H251460   3.447   5.587  11.304  0.1452 -1.1543 -1.3221
 9089TIP3   OH251461   5.863   4.051  11.476  0.3624  0.3373  0.4124
 9089TIP3    H151462   5.943   4.036  11.427  0.3190  1.1719  0.0693
 9089TIP3    H251463   5.847   3.969  11.522  1.6725  0.3258  0.8698
 9090TIP3   OH251464   7.019   7.444  11.727  0.4104  0.5218  0.0831
 9090TIP3    H151465   6.945   7.398  11.766  1.1886  0.8642  2.0579
 9090TIP3    H251466   6.981   7.524  11.689 -0.3695  0.1768  0.1269
 9091TIP3   OH251467   6.490   2.367  11.923 -0.1579  0.2231 -0.0697
 9091TIP3    H151468   6.458   2.311  11.994 -1.5381  1.1660  0.0848
 9091TIP3    H251469   6.523   2.445  11.968 -1.9738  1.2704 -0.4862
 9092TIP3   OH251470   4.979   5.186  11.636  0.3954 -0.0472  0.0314
 9092TIP3    H151471   5.038   5.259  11.615  0.5545  0.1684  1.1480
 9092TIP3    H251472   4.935   5.213  11.717  0.3143 -1.1002  0.3590
 9093TIP3   OH251473   0.794   5.504  13.142 -0.0857  0.4576 -0.2743
 9093TIP3    H151474   0.799   5.409  13.130 -0.4652  0.3824  0.1502
 9093TIP3    H251475   0.719   5.531  13.090  0.5635  0.6602 -1.1382
 9094TIP3   OH251476   6.633   4.143  11.609 -0.4280  0.0186  0.5255
 9094TIP3    H151477   6.674   4.101  11.534 -0.2320  0.4326  0.3981
 9094TIP3    H251478   6.681   4.110  11.685 -1.9333 -2.0075  0.6810
 9095TIP3   OH251479   1.157   1.418  11.209 -0.0144 -0.4146  0.3706
 9095TIP3    H151480   1.085   1.461  11.164 -0.9065 -0.8886  1.3282
 9095TIP3    H251481   1.208   1.490  11.247 -2.4288 -0.1101  3.4110
 9096TIP3   OH251482   6.945   5.464  13.431 -0.0489  0.4364 -0.0455
 9096TIP3    H151483   6.994   5.524  13.376  0.9763 -1.0497 -0.8212
 9096TIP3    H251484   6.880   5.425  13.373 -2.2507  2.3511  0.9581
 9097TIP3   OH251485   3.797   7.167  12.659 -0.1985  0.2884  0.1632
 9097TIP3    H151486   3.834   7.152  12.572 -1.8620 -1.4206 -0.3099
 9097TIP3    H251487   3.821   7.089  12.709 -1.1027  0.2475  0.5568
 9098TIP3   OH251488   2.933   4.592  11.142 -0.9183  0.4284  0.7780
 9098TIP3    H151489   2.866   4.660  11.134 -1.0149  0.6336  2.8867
 9098TIP3    H251490   2.890   4.522  11.192  0.0134 -0.0543  0.9191
 9099TIP3   OH251491   1.406   6.901  12.464 -0.2756 -0.2965  0.2695
 9099TIP3    H151492   1.437   6.975  12.516 -0.1529  1.0968 -1.6600
 9099TIP3    H251493   1.477   6.883  12.403 -1.3251 -0.2280 -1.0347
 9100TIP3   OH251494   0.682   4.147  10.738 -0.3037  0.4720  0.3243
 9100TIP3    H151495   0.753   4.149  10.802  0.6707 -0.9373 -0.6647
 9100TIP3    H251496   0.686   4.233  10.695  0.9723  0.3247  0.1167
 9101TIP3   OH251497   6.471   6.708  11.578  0.5887 -0.1246  0.0337
 9101TIP3    H151498   6.525   6.642  11.622  0.8465  1.4559  2.2732
 9101TIP3    H251499   6.393   6.660  11.550  1.6925 -1.7899 -0.3718
 9102TIP3   OH251500   2.323   1.051  12.900  0.3419 -0.2416  0.2534
 9102TIP3    H151501   2.353   1.071  12.811 -0.5796  1.8321  0.3386
 9102TIP3    H251502   2.233   1.022  12.888 -0.0652  0.8569  0.5430
 9103TIP3   OH251503   4.326   0.359  11.662  0.7126  0.7589  0.4958
 9103TIP3    H151504   4.380   0.439  11.657 -0.5352  1.5535 -1.3941
 9103TIP3    H251505   4.349   0.310  11.582  0.6132 -0.2317  1.0619
 9104TIP3   OH251506   3.380   2.663  11.917 -0.6323 -0.3299  0.3563
 9104TIP3    H151507   3.366   2.700  11.830  2.0114 -0.5926 -0.2880
 9104TIP3    H251508   3.444   2.722  11.958 -0.0056 -1.5223  1.1493
 9105TIP3   OH251509   0.397   4.567  11.581 -0.1679 -0.3259 -0.3095
 9105TIP3    H151510   0.483   4.530  11.561  0.4849  1.3107 -0.6781
 9105TIP3    H251511   0.356   4.502  11.638  1.9098 -0.4982  1.1276
 9106TIP3   OH251512   0.476   7.492  11.273  0.0840  0.1622  0.1089
 9106TIP3    H151513   0.464   7.400  11.251 -1.4686  0.2976  0.3073
 9106TIP3    H251514   0.389   7.523  11.298  0.6332  1.6107  0.3432
 9107TIP3   OH251515   6.102   6.375  12.428  0.1838 -0.1477  0.2421
 9107TIP3    H151516   6.047   6.453  12.420 -0.3297 -0.6677 -1.6976
 9107TIP3    H251517   6.049   6.314  12.480 -1.0234 -0.5461 -1.3789
 9108TIP3   OH251518   4.983   1.332  13.504  0.0786  0.0798  0.1296
 9108TIP3    H151519   5.037   1.301  13.578  1.8801  0.9757 -0.7386
 9108TIP3    H251520   4.961   1.253  13.456  2.3149 -0.2108 -0.5527
 9109TIP3   OH251521   7.326   2.818  11.275  0.4889  0.4332  0.1462
 9109TIP3    H151522   7.386   2.819  11.201 -1.0109  0.9575 -1.1030
 9109TIP3    H251523   7.327   2.727  11.305  2.2817  0.5383  0.5100
 9110TIP3   OH251524   6.330   1.245  12.283  0.4487  0.1523 -0.6284
 9110TIP3    H151525   6.309   1.338  12.291 -0.1907 -0.1639  3.3238
 9110TIP3    H251526   6.247   1.204  12.258 -0.9999  0.2006  3.3443
 9111TIP3   OH251527   2.394   4.852  13.215 -0.4376  0.1176  0.2023
 9111TIP3    H151528   2.484   4.872  13.189 -1.5279  0.2953 -4.2788
 9111TIP3    H251529   2.372   4.920  13.279  2.3749  0.3957  1.0195
 9112TIP3   OH251530   5.905   4.710  12.598 -0.2768  0.0198  0.2434
 9112TIP3    H151531   5.935   4.745  12.514  0.0862 -1.6741 -0.3799
 9112TIP3    H251532   5.833   4.767  12.623 -1.8575 -0.6608 -2.3124
 9113TIP3   OH251533   6.005   3.509  11.812  0.4642  0.3200 -0.1782
 9113TIP3    H151534   5.911   3.513  11.794  0.3205  0.9512  0.6297
 9113TIP3    H251535   6.027   3.597  11.845  1.2397  0.0322  0.1051
 9114TIP3   OH251536   1.779   6.827  11.319  0.0764  0.0144 -0.0865
 9114TIP3    H151537   1.793   6.800  11.228 -0.8762  1.4003 -0.6855
 9114TIP3    H251538   1.694   6.790  11.343 -0.3007  0.7530 -0.2385
 9115TIP3   OH251539   1.070   1.685  12.453 -0.3184  0.3239  0.1639
 9115TIP3    H151540   1.100   1.595  12.440  1.9932  0.9978  0.3592
 9115TIP3    H251541   1.099   1.731  12.374  0.8825  1.3941  1.1798
 9116TIP3   OH251542   6.099   2.497  13.257 -0.3831  0.5041  0.1633
 9116TIP3    H151543   6.078   2.587  13.283  0.1482  0.9079 -0.7331
 9116TIP3    H251544   6.079   2.444  13.334 -0.3270  1.4447  0.8412
 9117TIP3   OH251545   4.838   0.052  12.602 -0.1594 -0.1834  0.2453
 9117TIP3    H151546   4.807  -0.038  12.590  1.0569 -0.8176  1.5531
 9117TIP3    H251547   4.821   0.072  12.694  0.2821  0.6437  0.1561
 9118TIP3   OH251548   1.687   4.480  13.837  0.2391  0.1787  0.1825
 9118TIP3    H151549   1.656   4.543  13.773 -0.4937  0.6624  0.9786
 9118TIP3    H251550   1.781   4.494  13.843  0.0077  1.6204  0.7659
 9119TIP3   OH251551   5.660   4.182  12.767  0.1340  0.3908  0.1808
 9119TIP3    H151552   5.637   4.169  12.675 -0.7153  2.4089  0.0530
 9119TIP3    H251553   5.686   4.274  12.773  0.1526  0.3150  1.9621
 9120TIP3   OH251554   6.010   1.792  12.762  0.3053 -0.0868  0.2481
 9120TIP3    H151555   5.926   1.823  12.727 -0.6347 -0.3618  2.1226
 9120TIP3    H251556   6.063   1.871  12.771 -1.1347  0.7470  2.5181
 9121TIP3   OH251557   0.878   5.517  11.444  0.0268 -0.0242 -0.0729
 9121TIP3    H151558   0.967   5.515  11.410  0.2279  0.0176  0.4403
 9121TIP3    H251559   0.873   5.439  11.500 -0.3602 -0.2011 -0.3513
 9122TIP3   OH251560   0.356   6.450  12.175 -0.4522 -0.5566  0.1698
 9122TIP3    H151561   0.401   6.451  12.090 -1.1069  1.0940 -0.1872
 9122TIP3    H251562   0.376   6.364  12.211 -2.0438 -2.2719 -2.6659
 9123TIP3   OH251563   2.299   6.483  11.310 -0.4049  0.3183 -0.1748
 9123TIP3    H151564   2.390   6.510  11.327 -0.6314  1.2311 -0.3233
 9123TIP3    H251565   2.257   6.563  11.276 -1.5433  0.2086  0.9268
 9124TIP3   OH251566   6.997   5.852  12.536  0.0355  0.2133 -0.3612
 9124TIP3    H151567   6.998   5.767  12.580  3.1034 -0.0807 -0.7614
 9124TIP3    H251568   7.001   5.916  12.607  0.9289 -0.1056 -0.1173
 9125TIP3   OH251569   2.814   4.249  12.111  0.8178  0.2976 -0.0647
 9125TIP3    H151570   2.788   4.158  12.096  0.2027  0.2185  1.3185
 9125TIP3    H251571   2.753   4.301  12.059 -0.6963  0.0122  1.3416
 9126TIP3   OH251572   4.549   7.312  11.551  0.1059 -0.2557 -0.1243
 9126TIP3    H151573   4.506   7.237  11.512 -0.6364 -0.4554  1.0495
 9126TIP3    H251574   4.627   7.325  11.497 -0.0056 -1.5579 -0.6365
 9127TIP3   OH251575   6.973   4.209  13.498  0.3889  0.0908 -0.0401
 9127TIP3    H151576   6.983   4.160  13.416  1.5611  0.3599 -0.0761
 9127TIP3    H251577   7.061   4.210  13.536 -0.0411  0.4071  0.9746
 9128TIP3   OH251578   4.713   2.633  13.062  0.6321  0.0478  0.8882
 9128TIP3    H151579   4.776   2.706  13.055 -0.3856  0.7838 -1.2370
 9128TIP3    H251580   4.677   2.642  13.150  1.3779  1.4001  1.0881
 9129TIP3   OH251581   3.778   6.338  12.996 -0.0908  0.3108 -0.4000
 9129TIP3    H151582   3.774   6.299  13.083 -0.5811  0.1668 -0.4801
 9129TIP3    H251583   3.809   6.427  13.011  1.4943 -0.2336 -0.2672
 9130TIP3   OH251584   3.692   2.679  12.153 -0.5247 -0.1022  0.3489
 9130TIP3    H151585   3.775   2.675  12.106 -0.6837 -0.1302  0.0680
 9130TIP3    H251586   3.636   2.734  12.098 -0.7034 -0.1156  0.5180
 9131TIP3   OH251587   2.635   7.252  11.937 -0.3015 -0.2237  0.2010
 9131TIP3    H151588   2.690   7.311  11.885 -1.3404 -0.6970 -1.5205
 9131TIP3    H251589   2.565   7.309  11.969  0.7034  0.2126  1.7261
 9132TIP3   OH251590   0.848   5.126  12.037 -0.4497  0.6510  0.0547
 9132TIP3    H151591   0.866   5.041  12.077  1.1745  0.2135 -1.4971
 9132TIP3    H251592   0.857   5.188  12.109  0.3349 -0.3031  0.8113
 9133TIP3   OH251593   4.932   2.981  11.183 -0.6808 -0.3572 -0.1975
 9133TIP3    H151594   4.872   2.906  11.188 -0.5316 -0.5211 -0.8093
 9133TIP3    H251595   4.879   3.052  11.149 -0.4892 -0.5553 -0.9313
 9134TIP3   OH251596   1.748   1.014  11.867 -0.5359  0.1801  0.5321
 9134TIP3    H151597   1.785   1.103  11.875 -0.3910 -0.0227  2.7549
 9134TIP3    H251598   1.655   1.025  11.886 -0.7401 -0.0111 -0.3116
 9135TIP3   OH251599   7.070   2.726  10.950 -0.1222 -0.3283 -0.9396
 9135TIP3    H151600   7.117   2.650  10.983 -0.1435  0.4187  0.9509
 9135TIP3    H251601   7.088   2.727  10.856  1.5536 -1.4839 -0.6739
 9136TIP3   OH251602   4.946   1.776  11.279  0.7823 -0.3683  0.8595
 9136TIP3    H151603   4.968   1.809  11.366  1.5582 -1.3880  1.0727
 9136TIP3    H251604   4.998   1.696  11.270  0.1708 -0.6593 -0.2633
 9137TIP3   OH251605   3.468   3.573  11.745  0.0814 -0.1192  0.0085
 9137TIP3    H151606   3.470   3.481  11.771  0.1764 -0.0299  0.3246
 9137TIP3    H251607   3.510   3.620  11.817  4.6795 -0.2645 -2.2538
 9138TIP3   OH251608   3.113   3.110  11.698 -0.5726 -0.0190 -0.1526
 9138TIP3    H151609   3.144   3.096  11.609  0.2013  0.5276  0.0260
 9138TIP3    H251610   3.101   3.022  11.734  0.7349 -0.2449 -0.2411
 9139TIP3   OH251611   6.690   1.750  11.836 -0.8350 -0.0687  0.4241
 9139TIP3    H151612   6.655   1.757  11.924 -0.5997  3.0399  0.3624
 9139TIP3    H251613   6.763   1.812  11.833  1.6459 -2.7984 -0.9059
 9140TIP3   OH251614   1.334   6.409  11.523  0.2494  0.1390 -0.1970
 9140TIP3    H151615   1.284   6.337  11.562  1.8339 -1.7572 -1.4432
 9140TIP3    H251616   1.425   6.387  11.541  0.8631  0.7615 -2.3140
 9141TIP3   OH251617   1.743   5.244  10.953  0.0332  0.0701  0.3426
 9141TIP3    H151618   1.688   5.175  10.915 -0.7491 -1.7262  4.1870
 9141TIP3    H251619   1.833   5.216  10.933 -0.3354 -0.5568 -0.5042
 9142TIP3   OH251620   4.457   3.598  11.557  0.1981 -0.0299  0.1757
 9142TIP3    H151621   4.394   3.630  11.493 -0.6530 -1.6179  0.1602
 9142TIP3    H251622   4.542   3.607  11.514  0.1055  2.5367  0.3555
 9143TIP3   OH251623   3.490   7.058  13.348 -0.0985 -0.3261  0.0590
 9143TIP3    H151624   3.449   7.066  13.434 -1.4666 -2.3552 -0.3464
 9143TIP3    H251625   3.473   6.968  13.321  2.1173 -0.3696 -1.4511
 9144TIP3   OH251626   5.462   0.708  12.662 -0.6091 -0.6873 -0.2738
 9144TIP3    H151627   5.394   0.746  12.606 -0.9806 -0.2699  0.4401
 9144TIP3    H251628   5.536   0.693  12.604 -0.3319  1.4118 -0.5505
 9145TIP3   OH251629   6.403   0.574  11.322 -0.4173  0.0045  0.2872
 9145TIP3    H151630   6.362   0.488  11.311 -1.0975  0.4401 -0.7155
 9145TIP3    H251631   6.331   0.633  11.343 -0.0676  0.4765  0.1833
 9146TIP3   OH251632   4.661   5.343  11.404  0.1114 -0.1585 -0.5136
 9146TIP3    H151633   4.568   5.325  11.388 -0.1020  0.5391 -0.0901
 9146TIP3    H251634   4.703   5.324  11.320 -0.4939  0.0260 -0.8664
 9147TIP3   OH251635   5.127   1.625  11.552 -0.0007 -0.4153 -0.4196
 9147TIP3    H151636   5.197   1.606  11.613  0.8991  2.9162 -0.2134
 9147TIP3    H251637   5.160   1.594  11.467  2.3228  2.0132 -0.5277
 9148TIP3   OH251638   1.464   4.064  13.269  0.3380 -0.2375 -0.4065
 9148TIP3    H151639   1.503   4.099  13.350 -0.3981 -1.5238  0.5408
 9148TIP3    H251640   1.408   3.992  13.299 -1.2970  0.3435 -1.9076
 9149TIP3   OH251641   6.854   4.948  11.866  0.2113  0.4975 -0.2516
 9149TIP3    H151642   6.772   4.909  11.836 -0.1657  2.0666 -1.4027
 9149TIP3    H251643   6.829   4.998  11.944  0.6682 -1.3538  1.1415
 9150TIP3   OH251644   0.267   4.121  11.670 -0.0980 -0.5947  0.3853
 9150TIP3    H151645   0.194   4.072  11.709  0.3742 -0.0683  2.0129
 9150TIP3    H251646   0.345   4.075  11.701  0.3154 -1.5229 -1.8465
 9151TIP3   OH251647   1.638   1.007  12.910  0.2808  0.0459 -0.4052
 9151TIP3    H151648   1.586   0.926  12.914  0.7808 -0.3079 -1.0428
 9151TIP3    H251649   1.603   1.060  12.982 -0.8008 -0.2819 -0.6653
 9152TIP3   OH251650   0.031   2.480  12.775  0.1488  0.0287 -0.3963
 9152TIP3    H151651  -0.007   2.463  12.689  0.7826  0.5148 -0.7836
 9152TIP3    H251652   0.118   2.516  12.756  1.5666 -2.6634  0.4259
 9153TIP3   OH251653   6.470   0.888  12.732  0.0724 -0.2203 -0.3308
 9153TIP3    H151654   6.497   0.903  12.823  0.4977  1.6294 -0.7235
 9153TIP3    H251655   6.552   0.879  12.683 -0.0773  1.1216 -0.8655
 9154TIP3   OH251656   1.862   0.591  11.660 -0.2337 -0.5924  0.3902
 9154TIP3    H151657   1.840   0.662  11.721  0.2989 -0.3934  0.3503
 9154TIP3    H251658   1.913   0.634  11.591  0.4082 -1.0774  0.5582
 9155TIP3   OH251659   3.174   6.969  10.988  0.0757  0.0915 -0.0711
 9155TIP3    H151660   3.237   7.024  11.035 -1.0378  0.6999  0.7562
 9155TIP3    H251661   3.135   7.026  10.922  1.3270 -0.6490 -1.5332
 9156TIP3   OH251662   0.989   2.808  12.438 -0.2690 -0.4346  0.3515
 9156TIP3    H151663   1.009   2.893  12.478  1.4794 -1.2176  1.2436
 9156TIP3    H251664   1.054   2.797  12.369 -1.1459 -0.6112 -0.4701
 9157TIP3   OH251665   0.870   4.752  11.304  0.9205 -0.2615  0.2183
 9157TIP3    H151666   0.896   4.670  11.263  0.1966  0.5326 -2.0271
 9157TIP3    H251667   0.853   4.811  11.230  0.1596  1.5155  1.7189
 9158TIP3   OH251668   2.422   6.865  13.381 -0.4580  0.2941 -0.4145
 9158TIP3    H151669   2.382   6.951  13.387  0.0373  0.5209 -0.2407
 9158TIP3    H251670   2.489   6.865  13.450 -1.4838 -0.7917  0.6421
 9159TIP3   OH251671   5.722   5.419  11.307  0.4720 -0.2088  0.2491
 9159TIP3    H151672   5.799   5.373  11.340  0.6472  1.7738  2.8896
 9159TIP3    H251673   5.753   5.508  11.288 -1.0695  0.5929  1.2347
 9160TIP3   OH251674   5.853   1.202  12.240  0.4584  0.5602 -0.1915
 9160TIP3    H151675   5.819   1.289  12.258 -1.4844 -0.2257  0.2109
 9160TIP3    H251676   5.835   1.152  12.320  1.8695 -0.1309 -0.2744
 9161TIP3   OH251677   1.290   4.066  11.826 -0.5605  0.2746 -0.1800
 9161TIP3    H151678   1.324   4.083  11.913  1.3578 -0.2524 -0.7807
 9161TIP3    H251679   1.256   4.150  11.796  1.0511  1.0645  0.1325
 9162TIP3   OH251680   7.053   4.236  12.854 -0.2678 -0.5872  0.8119
 9162TIP3    H151681   6.981   4.261  12.796  0.8046 -0.5353 -0.5292
 9162TIP3    H251682   7.010   4.218  12.938 -1.5898  1.5298  0.6538
 9163TIP3   OH251683   6.361   4.192  10.883  0.2328  0.0230 -0.1826
 9163TIP3    H151684   6.407   4.270  10.914 -1.6533  1.2801 -0.3711
 9163TIP3    H251685   6.401   4.173  10.798  1.7709 -0.2094  0.5493
 9164TIP3   OH251686   6.457   1.327  13.194 -0.2754  0.0392 -0.7114
 9164TIP3    H151687   6.528   1.382  13.227 -0.2464 -0.1548 -0.4504
 9164TIP3    H251688   6.380   1.384  13.193 -0.1790  0.1691 -0.7281
 9165TIP3   OH251689   3.057   1.217  10.825 -0.5968  0.3062  0.5635
 9165TIP3    H151690   2.986   1.228  10.762  0.1312  1.5679 -0.0881
 9165TIP3    H251691   3.014   1.217  10.910 -1.4673 -0.0401  0.1393
 9166TIP3   OH251692   6.901   0.794  11.850  0.1782  0.2061  0.5948
 9166TIP3    H151693   6.992   0.808  11.824  0.4984 -1.7580  0.4734
 9166TIP3    H251694   6.850   0.843  11.785  1.1417  0.8403  0.3037
 9167TIP3   OH251695   2.041   3.713  11.443  0.2795 -0.3868  0.0761
 9167TIP3    H151696   2.036   3.790  11.499 -0.4749 -0.3776  0.0004
 9167TIP3    H251697   1.952   3.700  11.410  0.3399 -1.4247  0.2736
 9168TIP3   OH251698   7.634   0.610  12.966  0.2804 -0.3804  0.1470
 9168TIP3    H151699   7.664   0.590  13.055  0.4457 -0.0860  0.1587
 9168TIP3    H251700   7.539   0.603  12.971  0.2557  0.1145  0.4693
 9169TIP3   OH251701   6.218   4.928  11.019  0.4843 -0.7173  0.2974
 9169TIP3    H151702   6.147   4.882  11.063 -0.1097  0.0902  0.2085
 9169TIP3    H251703   6.220   4.891  10.931  0.0847 -0.6489  0.2604
 9170TIP3   OH251704   2.137   0.775  11.678 -0.6167 -0.9250 -0.6082
 9170TIP3    H151705   2.182   0.719  11.741  1.0567  0.3928 -0.5771
 9170TIP3    H251706   2.149   0.864  11.711 -1.3151 -0.3513 -1.8137
 9171TIP3   OH251707   3.416   5.110  11.934 -0.8828  0.0426  0.3503
 9171TIP3    H151708   3.504   5.113  11.973 -0.9016  1.0658  0.3499
 9171TIP3    H251709   3.424   5.049  11.860 -0.2663 -0.1461  0.5686
 9172TIP3   OH251710   2.034   2.759  10.981  0.1995 -0.0314 -0.0902
 9172TIP3    H151711   1.969   2.796  11.041 -0.4779 -0.3740 -0.5913
 9172TIP3    H251712   2.045   2.825  10.912  0.2096 -0.0688 -0.1248
 9173TIP3   OH251713   0.248   6.437  11.038 -0.0410 -0.0079  0.2916
 9173TIP3    H151714   0.342   6.441  11.024 -0.3837  0.5506 -2.2037
 9173TIP3    H251715   0.219   6.361  10.989 -1.0133  0.3755  0.2481
 9174TIP3   OH251716   2.133   0.811  13.135  0.4348  0.3309 -0.5670
 9174TIP3    H151717   2.217   0.834  13.097 -0.0355  2.5995 -0.3824
 9174TIP3    H251718   2.154   0.775  13.221  1.2890 -1.1767 -1.3650
 9175TIP3   OH251719   5.631   6.897  11.570  0.0525 -0.0689 -0.4399
 9175TIP3    H151720   5.579   6.868  11.645  0.3406  1.3246  0.3498
 9175TIP3    H251721   5.652   6.817  11.523 -0.2842 -0.9784  0.8790
 9176TIP3   OH251722   5.716   0.519  11.474 -0.1474  0.3439  0.1022
 9176TIP3    H151723   5.698   0.456  11.543 -1.1380 -0.1387 -0.5675
 9176TIP3    H251724   5.811   0.526  11.471 -0.0685 -0.2424  0.9472
 9177TIP3   OH251725   0.760   5.903  11.348 -0.4831  0.4728 -0.1969
 9177TIP3    H151726   0.674   5.930  11.379 -0.5369  0.0201  0.0584
 9177TIP3    H251727   0.780   5.963  11.276 -0.0921  1.9567  1.0770
 9178TIP3   OH251728   1.897   2.115  11.346 -0.1855  0.6247  0.0775
 9178TIP3    H151729   1.964   2.061  11.388 -0.4884  0.4945  0.4027
 9178TIP3    H251730   1.826   2.055  11.327 -1.1491  1.1544  1.8111
 9179TIP3   OH251731   2.107   1.264  13.195  0.5995  0.0618 -0.3437
 9179TIP3    H151732   2.159   1.184  13.203 -2.5378 -2.2653 -1.2414
 9179TIP3    H251733   2.125   1.312  13.276  1.9580 -1.9720  0.6483
 9180TIP3   OH251734   4.262   5.526  11.420  0.0129 -0.4920  0.6622
 9180TIP3    H151735   4.178   5.535  11.375  0.0132 -2.2432  0.2421
 9180TIP3    H251736   4.326   5.511  11.350  0.8426  1.4781  0.9182
 9181TIP3   OH251737   7.438   0.296  12.885 -0.0935  0.3138  0.2396
 9181TIP3    H151738   7.364   0.297  12.945 -0.7456 -3.0648 -0.3331
 9181TIP3    H251739   7.515   0.303  12.941 -0.7406  1.9708  0.9921
 9182TIP3   OH251740   2.836   2.097  12.226 -0.0180  0.5394  0.4646
 9182TIP3    H151741   2.769   2.142  12.277 -2.2590  0.3467 -2.0676
 9182TIP3    H251742   2.812   2.115  12.134  1.0411 -2.8249 -0.6052
 9183TIP3   OH251743   6.952   7.138  11.997  0.5540  0.4829  0.1726
 9183TIP3    H151744   6.857   7.145  12.012  0.4253 -0.0296 -0.3297
 9183TIP3    H251745   6.962   7.154  11.903  0.9544  0.4365  0.2082
 9184TIP3   OH251746   0.439   3.348  13.566  0.5960  0.3023 -0.0298
 9184TIP3    H151747   0.414   3.408  13.637 -0.6051  2.0956 -1.8267
 9184TIP3    H251748   0.533   3.363  13.554  0.3466  1.8582 -0.3731
 9185TIP3   OH251749   4.330   6.721  12.128 -0.5392  0.5190 -0.4215
 9185TIP3    H151750   4.354   6.637  12.089  2.9152  0.7785  0.7691
 9185TIP3    H251751   4.277   6.698  12.204  0.5188 -0.6656  0.0001
 9186TIP3   OH251752   5.338   2.457  13.457 -0.0195  0.4214  0.1532
 9186TIP3    H151753   5.362   2.407  13.379 -0.4451 -1.8008  1.3606
 9186TIP3    H251754   5.286   2.530  13.423  2.0942  1.1098 -1.8368
 9187TIP3   OH251755   1.560   1.991  11.083 -0.3354  0.0607  0.1893
 9187TIP3    H151756   1.489   1.951  11.031  0.4397 -0.0062 -0.8459
 9187TIP3    H251757   1.543   1.963  11.173 -1.1587 -0.6304 -0.1692
 9188TIP3   OH251758   5.277   3.469  12.186  0.4487 -0.1445  0.6454
 9188TIP3    H151759   5.199   3.460  12.132  0.4415  1.9266  0.2562
 9188TIP3    H251760   5.245   3.465  12.276  0.2395 -1.7885  0.5254
 9189TIP3   OH251761   5.698   6.672  11.461 -0.4488  0.1714  0.3469
 9189TIP3    H151762   5.696   6.599  11.523  0.2925  0.2814  0.5132
 9189TIP3    H251763   5.773   6.653  11.404 -1.2859 -0.0716 -0.7061
 9190TIP3   OH251764   1.131   0.798  12.923  0.9930  0.1524  0.3666
 9190TIP3    H151765   1.093   0.816  13.009  1.0353  1.8081  0.0688
 9190TIP3    H251766   1.149   0.704  12.924 -1.1754 -0.3097  1.2920
 9191TIP3   OH251767   2.726   1.482  13.385 -0.0588  0.2230  0.1163
 9191TIP3    H151768   2.640   1.447  13.409 -0.6504  0.2841 -1.7689
 9191TIP3    H251769   2.706   1.559  13.332  1.1571  0.0666 -0.5820
 9192TIP3   OH251770   0.147   2.843  11.658  0.7791 -0.0710 -0.2477
 9192TIP3    H151771   0.120   2.767  11.607  0.6325 -0.4027  0.3169
 9192TIP3    H251772   0.066   2.892  11.673  1.2481  1.9760 -3.3763
 9193TIP3   OH251773   3.128   3.736  11.306  0.1100  0.3116  0.2516
 9193TIP3    H151774   3.082   3.769  11.229  1.5722  1.4878 -0.1546
 9193TIP3    H251775   3.060   3.689  11.356 -0.3946 -2.8673 -2.9838
 9194TIP3   OH251776   1.122   6.397  10.896  0.1401 -0.5497 -0.0117
 9194TIP3    H151777   1.068   6.468  10.930 -1.0850 -0.3713 -2.1417
 9194TIP3    H251778   1.209   6.413  10.932 -0.3163  1.5365  0.2543
 9195TIP3   OH251779   2.983   2.649  11.461  0.0657  0.3820 -0.4329
 9195TIP3    H151780   2.980   2.671  11.554  0.6091  0.0027 -0.3216
 9195TIP3    H251781   2.911   2.588  11.448 -0.8062  1.3924 -0.5297
 9196TIP3   OH251782   3.004   4.422  11.572  0.4286  0.2058  0.5184
 9196TIP3    H151783   2.970   4.508  11.547 -1.3574 -0.8218 -0.8369
 9196TIP3    H251784   3.050   4.391  11.495 -0.8120 -0.9209  0.1957
 9197TIP3   OH251785   4.555   2.565  11.998 -0.8987 -0.4053  0.3303
 9197TIP3    H151786   4.508   2.619  11.935 -0.8722 -0.3103  0.3922
 9197TIP3    H251787   4.554   2.477  11.960  1.3300  0.1074 -1.0464
 9198TIP3   OH251788   4.034   1.540  13.449  0.0812 -0.0868 -0.2418
 9198TIP3    H151789   3.970   1.469  13.451 -1.2513  1.0768  0.6040
 9198TIP3    H251790   4.119   1.497  13.448 -0.6633 -1.6972  1.2573
 9199TIP3   OH251791   2.211   2.406  10.723 -0.3643  0.3533 -0.1107
 9199TIP3    H151792   2.249   2.319  10.709 -1.0055  0.0585 -0.0339
 9199TIP3    H251793   2.263   2.464  10.667  0.2492 -0.0276  0.0463
 9200TIP3   OH251794   2.489   2.803  13.478  0.3702  0.0442 -0.0743
 9200TIP3    H151795   2.484   2.715  13.443 -0.0707 -0.2883  0.8041
 9200TIP3    H251796   2.501   2.859  13.401 -1.1239 -0.6044 -0.8158
 9201TIP3   OH251797   6.439   4.730  11.308  0.5303  0.6076  0.0225
 9201TIP3    H151798   6.360   4.718  11.360  0.2971  0.1200 -0.4394
 9201TIP3    H251799   6.511   4.714  11.369  0.2901  1.5348  0.5645
 9202TIP3   OH251800   1.419   4.337  11.797  0.2312  0.9625 -0.6558
 9202TIP3    H151801   1.446   4.360  11.886  0.8854 -1.7878 -0.0636
 9202TIP3    H251802   1.499   4.343  11.745  0.7739 -1.2906 -0.1672
 9203TIP3   OH251803   5.742   5.026  11.303 -0.2430 -0.2336  0.5310
 9203TIP3    H151804   5.743   4.948  11.247  0.7530  1.5712 -2.1606
 9203TIP3    H251805   5.668   5.077  11.271 -0.4095  0.3336  1.7550
 9204TIP3   OH251806   0.327   1.443  12.051  0.1927 -0.0321 -0.9563
 9204TIP3    H151807   0.406   1.435  12.105 -0.4162  0.5213  0.0572
 9204TIP3    H251808   0.343   1.385  11.977  1.7452  0.4163 -1.0182
 9205TIP3   OH251809   1.188   3.722  11.775  0.4152  0.4842 -0.2484
 9205TIP3    H151810   1.148   3.802  11.741  0.2643  0.7410  0.5108
 9205TIP3    H251811   1.147   3.709  11.860  0.7256 -0.1885 -0.1939
 9206TIP3   OH251812   7.243   3.302  10.975 -0.0714 -0.6618  0.0550
 9206TIP3    H151813   7.323   3.255  10.949  0.4134  0.8197 -1.3049
 9206TIP3    H251814   7.172   3.248  10.940  0.4875 -0.1903 -1.9541
 9207TIP3   OH251815   1.910   0.781  12.203 -0.2571 -0.0088 -0.6545
 9207TIP3    H151816   2.002   0.778  12.229 -0.6482 -1.7771  0.7695
 9207TIP3    H251817   1.868   0.839  12.267 -0.3691 -0.4256 -0.3411
 9208TIP3   OH251818   3.811   5.784  12.054  0.8616 -0.3683 -0.1700
 9208TIP3    H151819   3.814   5.877  12.077 -0.8066 -0.3413  0.0631
 9208TIP3    H251820   3.903   5.758  12.047  1.3594  1.1950  0.1516
 9209TIP3   OH251821   1.783   5.741  12.270 -0.2321 -0.1583  0.0258
 9209TIP3    H151822   1.806   5.758  12.178 -0.5967  0.9175  0.1202
 9209TIP3    H251823   1.847   5.792  12.320 -0.8777  0.3471  0.3435
 9210TIP3   OH251824   5.400   1.212  11.886 -0.1856  1.1501  0.2037
 9210TIP3    H151825   5.316   1.207  11.932  0.1033 -0.3160  0.6185
 9210TIP3    H251826   5.417   1.305  11.878 -0.7782  1.4675  2.1124
 9211TIP3   OH251827   7.468   2.426  12.912  0.3076  0.8092 -0.2332
 9211TIP3    H151828   7.471   2.343  12.958 -0.2775  0.9351  0.0338
 9211TIP3    H251829   7.554   2.432  12.869  0.3076  0.0171 -0.3600
 9212TIP3   OH251830   4.502   2.323  12.791 -0.3999  0.1541 -0.2336
 9212TIP3    H151831   4.436   2.379  12.831 -0.1733 -0.5889  1.2056
 9212TIP3    H251832   4.584   2.346  12.836  0.0788  0.0961 -1.0461
 9213TIP3   OH251833   2.553   0.222  13.025 -0.5184 -0.1842  0.4657
 9213TIP3    H151834   2.551   0.270  13.107  2.7952  0.6217  0.2255
 9213TIP3    H251835   2.516   0.283  12.960 -0.5958  0.2426  0.9084
 9214TIP3   OH251836   6.217   1.449  11.369  0.3683 -0.5531 -0.3100
 9214TIP3    H151837   6.306   1.484  11.382 -0.1819 -0.0980  3.8977
 9214TIP3    H251838   6.165   1.525  11.344  0.8752 -0.4596 -1.0967
 9215TIP3   OH251839   2.308   1.035  11.974 -0.3748 -0.1278 -0.4308
 9215TIP3    H151840   2.284   1.035  11.881 -0.8550 -2.2999 -0.3654
 9215TIP3    H251841   2.401   1.058  11.975 -0.7910  1.8417 -1.2401
 9216TIP3   OH251842   7.187   2.604  12.480 -0.2845 -0.0220 -0.3602
 9216TIP3    H151843   7.129   2.577  12.409 -0.1081 -0.6193 -0.2802
 9216TIP3    H251844   7.241   2.527  12.498  0.9457  0.6984 -0.8355
 9217TIP3   OH251845   1.815   7.402  11.670  0.9525  0.6193 -0.4959
 9217TIP3    H151846   1.788   7.475  11.614 -0.1267  0.2046 -0.5513
 9217TIP3    H251847   1.888   7.361  11.624  2.5732  2.5140  0.2426
 9218TIP3   OH251848   6.657   7.447  11.756 -0.3840  0.0979  0.0887
 9218TIP3    H151849   6.576   7.472  11.800 -0.9492  0.6423 -1.2085
 9218TIP3    H251850   6.633   7.371  11.703 -0.2791  0.7572 -0.9370
 9219TIP3   OH251851   2.817   4.877  11.773  0.4918 -0.1588 -0.3952
 9219TIP3    H151852   2.769   4.896  11.854  0.0455  1.2748 -0.9636
 9219TIP3    H251853   2.762   4.914  11.704  1.1158 -0.9029 -1.3111
 9220TIP3   OH251854   2.224   3.133  13.267 -0.1718  0.5412  0.2052
 9220TIP3    H151855   2.312   3.125  13.303 -0.2175 -0.5267  0.0870
 9220TIP3    H251856   2.196   3.044  13.249 -1.3725  0.8462  0.4513
 9221TIP3   OH251857   2.293   0.630  12.223  0.0772  0.3323  0.4532
 9221TIP3    H151858   2.378   0.672  12.231 -0.0866  0.5756  0.9148
 9221TIP3    H251859   2.276   0.592  12.310 -0.1349  0.0016  0.2711
 9222TIP3   OH251860   5.098   0.552  12.042  0.0610 -0.4755 -0.1936
 9222TIP3    H151861   5.034   0.561  11.972  0.3535  0.9017 -0.3105
 9222TIP3    H251862   5.061   0.602  12.115 -0.4490 -2.2376  0.8227
 9223TIP3   OH251863   4.036   0.298  11.526 -0.6954  0.1198  0.5004
 9223TIP3    H151864   4.032   0.206  11.551  1.8299 -0.2774 -0.3324
 9223TIP3    H251865   4.112   0.333  11.573  0.2523  0.9524 -1.5139
 9224TIP3   OH251866   5.402   4.233  12.986 -0.5113  0.5564 -0.9448
 9224TIP3    H151867   5.363   4.320  12.982  1.0050  1.3145 -0.1805
 9224TIP3    H251868   5.427   4.214  12.896 -1.3695  0.6575 -1.2081
 9225TIP3   OH251869   3.772   1.619  13.379 -0.3829 -0.2103  0.6327
 9225TIP3    H151870   3.851   1.631  13.431  0.8511 -0.3256 -1.1054
 9225TIP3    H251871   3.715   1.693  13.402  0.8754  0.7133  0.8338
 9226TIP3   OH251872   5.636   4.461  12.031  0.0906 -0.3053  0.5717
 9226TIP3    H151873   5.718   4.510  12.033 -0.6985  1.1274 -0.1416
 9226TIP3    H251874   5.625   4.435  11.940 -0.9493  0.8533  0.3270
 9227TIP3   OH251875   7.008   0.860  12.093 -0.2825 -0.6019 -0.1851
 9227TIP3    H151876   6.973   0.869  12.005 -0.5512 -0.5670 -0.0733
 9227TIP3    H251877   6.934   0.832  12.147 -0.1867 -0.3531  0.0822
 9228TIP3   OH251878   3.706   2.670  12.438 -0.5539 -0.0557 -0.4562
 9228TIP3    H151879   3.697   2.686  12.344 -3.3308 -2.5615 -0.7623
 9228TIP3    H251880   3.787   2.618  12.445  0.4783  1.3690 -1.1960
 9229TIP3   OH251881   1.522   3.133  12.113 -0.2416 -0.2897 -0.5864
 9229TIP3    H151882   1.515   3.198  12.183 -1.4130 -0.3469 -0.6232
 9229TIP3    H251883   1.536   3.184  12.033  0.6880 -0.1999 -0.3718
 9230TIP3   OH251884   2.371   1.727  12.918  0.2274  0.0910 -0.3253
 9230TIP3    H151885   2.286   1.723  12.875 -0.4288 -2.3362  1.0075
 9230TIP3    H251886   2.431   1.681  12.858  0.1781  0.1479 -0.4179
 9231TIP3   OH251887   2.934   5.641  12.387  0.1446 -0.2010  0.1141
 9231TIP3    H151888   3.015   5.691  12.370  0.8920 -1.3485  0.2045
 9231TIP3    H251889   2.964   5.559  12.426 -1.1955  0.1611  2.0880
 9232TIP3   OH251890   1.998   4.015  12.366 -0.1490  0.8626 -0.4116
 9232TIP3    H151891   1.921   3.965  12.337 -1.0556  1.8899  0.1727
 9232TIP3    H251892   1.965   4.070  12.438  1.1615  1.2380 -0.0821
 9233TIP3   OH251893   5.345   2.303  13.727  0.0601 -0.4638  0.2399
 9233TIP3    H151894   5.345   2.344  13.640 -2.1871  0.1726  0.4691
 9233TIP3    H251895   5.437   2.298  13.751  0.6009  1.9903 -0.9776
 9234TIP3   OH251896   0.416   7.273  11.767 -0.3985 -0.0229  0.0859
 9234TIP3    H151897   0.450   7.198  11.718 -0.1949  1.2419 -1.7867
 9234TIP3    H251898   0.494   7.317  11.802 -0.2361  1.1473 -1.6315
 9235TIP3   OH251899   3.179   2.073  13.502 -0.2184 -0.3168  0.9505
 9235TIP3    H151900   3.189   1.992  13.552 -1.0825 -2.1189 -1.5611
 9235TIP3    H251901   3.172   2.044  13.411 -0.4204  2.6261 -0.0850
 9236TIP3   OH251902   1.420   3.116  11.242  0.4717  0.1753  0.3522
 9236TIP3    H151903   1.326   3.125  11.232  0.4680  0.3513  0.5411
 9236TIP3    H251904   1.458   3.170  11.174  0.4404  0.5348  0.6194
 9237TIP3   OH251905   2.136   4.580  10.741  0.3599 -0.7623 -0.2998
 9237TIP3    H151906   2.126   4.645  10.811 -0.7925 -2.6799  1.4434
 9237TIP3    H251907   2.131   4.630  10.660 -0.6231  1.2902  0.9587
 9238TIP3   OH251908   4.933   4.760  11.251 -0.0427 -0.3194  0.8449
 9238TIP3    H151909   4.926   4.714  11.167 -0.9295 -0.7619  1.1510
 9238TIP3    H251910   5.025   4.785  11.257  0.1715 -0.8824  0.0545
 9239TIP3   OH251911   0.833   3.024  10.855 -0.3299  0.3659 -0.0619
 9239TIP3    H151912   0.825   2.929  10.846 -0.1894  0.4050 -0.6344
 9239TIP3    H251913   0.743   3.056  10.854 -0.3700  0.2536 -0.0625
 9240TIP3   OH251914   0.848   1.040  10.911 -0.0259 -0.4574 -0.0374
 9240TIP3    H151915   0.756   1.013  10.907  0.0602 -0.5696 -1.5539
 9240TIP3    H251916   0.844   1.131  10.941 -0.4905 -1.0406  1.8193
 9241TIP3   OH251917   2.036   7.006  11.991  0.1001  0.0365 -0.6127
 9241TIP3    H151918   2.089   6.927  11.981 -0.5012 -0.5085  0.2860
 9241TIP3    H251919   2.032   7.019  12.086 -0.0447  0.9907 -0.7454
 9242TIP3   OH251920   0.374   3.694  11.144  0.1031 -0.2043 -0.4362
 9242TIP3    H151921   0.333   3.762  11.199  0.2140 -0.2040 -0.3550
 9242TIP3    H251922   0.442   3.656  11.199 -0.0626 -0.4919 -0.4263
 9243TIP3   OH251923   1.507   2.528  13.658 -0.4729 -0.1320 -0.5804
 9243TIP3    H151924   1.585   2.517  13.713  0.3574 -3.1638 -2.1370
 9243TIP3    H251925   1.521   2.612  13.613  1.6711 -0.3856 -0.4757
 9244TIP3   OH251926   2.774   5.758  11.028  0.0319  0.2115 -0.2206
 9244TIP3    H151927   2.686   5.720  11.037 -0.4151  0.9165 -1.4542
 9244TIP3    H251928   2.762   5.851  11.045  0.6373  0.2421  0.0750
 9245TIP3   OH251929   7.589   5.244  11.897 -0.0845  0.1549 -0.2215
 9245TIP3    H151930   7.499   5.278  11.896 -0.0298  0.3769  0.8741
 9245TIP3    H251931   7.612   5.234  11.805 -2.1221 -2.2717 -0.5883
 9246TIP3   OH251932   7.103   5.498  12.184  0.4226 -0.3702 -0.4768
 9246TIP3    H151933   7.121   5.579  12.136 -0.4848  0.0355 -0.1514
 9246TIP3    H251934   7.022   5.465  12.146 -0.3450 -0.0117  0.7961
 9247TIP3   OH251935   3.558   1.324  11.866  0.2954 -0.2894  0.5643
 9247TIP3    H151936   3.541   1.392  11.931  0.4527  0.7302 -0.4427
 9247TIP3    H251937   3.647   1.294  11.887  0.5497  0.4017  0.5020
 9248TIP3   OH251938   5.207   0.295  11.402  0.3476 -0.5115  0.3360
 9248TIP3    H151939   5.134   0.293  11.341  0.1066 -1.7262  0.6291
 9248TIP3    H251940   5.281   0.326  11.350 -0.5265  1.5508  0.2487
 9249TIP3   OH251941   1.112   4.386  12.733  0.0520  0.1330 -0.1297
 9249TIP3    H151942   1.050   4.396  12.806  0.4080 -0.2335  0.2196
 9249TIP3    H251943   1.187   4.440  12.758 -1.0262  2.4651 -1.5860
 9250TIP3   OH251944   5.892   0.483  11.109  0.3344 -0.4331  0.1823
 9250TIP3    H151945   5.863   0.392  11.113 -0.7770 -0.1340 -0.5534
 9250TIP3    H251946   5.987   0.478  11.110  0.3044 -1.5071  1.8057
 9251TIP3   OH251947   3.210   3.885  12.607  0.6924 -0.0026  0.1685
 9251TIP3    H151948   3.292   3.841  12.630  0.1547  0.0262  2.4389
 9251TIP3    H251949   3.163   3.823  12.552  2.1774 -0.0435 -1.1011
 9252TIP3   OH251950   0.524   2.803  12.561 -0.2605 -0.4745 -0.4027
 9252TIP3    H151951   0.581   2.878  12.542  0.6628 -1.3990 -1.4384
 9252TIP3    H251952   0.471   2.832  12.635  1.0102  0.7103  0.1021
 9253TIP3   OH251953   0.844   0.803  12.567  0.3098 -0.3844  0.2128
 9253TIP3    H151954   0.868   0.875  12.625 -2.0357  0.4659  0.2587
 9253TIP3    H251955   0.882   0.725  12.608 -0.0702  0.3795  2.1502
 9254TIP3   OH251956   3.908   6.328  12.642 -0.4797  0.0811  0.0913
 9254TIP3    H151957   3.817   6.317  12.613 -0.5022 -1.5143  0.6586
 9254TIP3    H251958   3.920   6.261  12.710  0.5689  1.5270  1.3937
 9255TIP3   OH251959   3.645   4.720  13.529  0.6130 -0.3214 -0.0178
 9255TIP3    H151960   3.555   4.703  13.501 -0.7150  0.5046  3.2776
 9255TIP3    H251961   3.673   4.638  13.572 -0.1193  0.5984  2.3882
 9256TIP3   OH251962   3.688   4.445  11.347 -0.0584  0.2346  0.3787
 9256TIP3    H151963   3.782   4.449  11.366  0.1162  0.6278 -0.5235
 9256TIP3    H251964   3.668   4.529  11.306 -0.1911 -0.8871 -2.0386
 9257TIP3   OH251965   0.991   0.296  12.526 -0.6131 -0.1776  0.1644
 9257TIP3    H151966   0.987   0.224  12.589 -0.9424 -2.1574 -2.0061
 9257TIP3    H251967   1.084   0.304  12.505 -0.1286  2.2274  2.6657
 9258TIP3   OH251968   7.588   6.988  11.123  0.2211 -0.1705 -0.3343
 9258TIP3    H151969   7.608   6.895  11.113  1.6388  0.0398  0.3947
 9258TIP3    H251970   7.612   7.026  11.038 -1.4037 -0.6102 -1.0282
 9259TIP3   OH251971   3.932   2.444  13.074  0.2882  0.0913  0.6038
 9259TIP3    H151972   3.951   2.369  13.129  0.9232  0.5044  0.9566
 9259TIP3    H251973   3.984   2.515  13.111  1.3757  0.1822 -1.0122
 9260TIP3   OH251974   0.843   6.605  12.183 -0.4048 -1.0955  0.2243
 9260TIP3    H151975   0.890   6.530  12.146 -0.5070 -0.4146 -1.3691
 9260TIP3    H251976   0.853   6.595  12.278  1.9233 -1.6520 -0.0124
 9261TIP3   OH251977   0.047   1.039  11.054  0.0815  0.1809  0.1454
 9261TIP3    H151978  -0.016   1.100  11.092 -1.0735 -1.1362  0.4297
 9261TIP3    H251979   0.003   0.954  11.057  1.9888 -0.8461  0.6110
 9262TIP3   OH251980   4.648   4.874  13.674  0.2831 -0.0435 -0.6820
 9262TIP3    H151981   4.685   4.959  13.698  2.1104 -1.0700  0.3379
 9262TIP3    H251982   4.612   4.839  13.756 -0.4124 -0.2805 -1.0808
 9263TIP3   OH251983   0.005   0.221  11.039 -0.2323  0.5347  0.8812
 9263TIP3    H151984   0.020   0.173  10.958 -0.0126  1.0973  0.5858
 9263TIP3    H251985   0.085   0.206  11.091  1.4469  3.3742 -0.6147
 9264TIP3   OH251986   6.690   0.601  11.842 -0.4071  0.4155  0.0158
 9264TIP3    H151987   6.627   0.655  11.889  0.2674  2.3638 -1.1863
 9264TIP3    H251988   6.771   0.653  11.842  0.8298 -1.4204  0.3664
 9265TIP3   OH251989   3.388   5.410  12.745 -0.1706 -0.4481  0.8007
 9265TIP3    H151990   3.396   5.505  12.750 -0.9667 -0.4130  1.6648
 9265TIP3    H251991   3.476   5.380  12.721  0.2570  0.4611  1.1849
 9266TIP3   OH251992   7.522   4.123  12.349  0.2870 -0.3475  0.2870
 9266TIP3    H151993   7.603   4.120  12.400  0.5229 -0.6558 -0.0974
 9266TIP3    H251994   7.549   4.099  12.260 -0.1274  0.1204  0.0259
 9267TIP3   OH251995   5.532   5.242  11.197  0.7643  0.5666 -0.2112
 9267TIP3    H151996   5.588   5.316  11.221  1.6814 -0.3441  0.5528
 9267TIP3    H251997   5.443   5.275  11.204  1.1797  1.7654 -0.4639
 9268TIP3   OH251998   2.708   3.568  10.992 -0.4384 -0.1729 -0.2153
 9268TIP3    H151999   2.616   3.555  10.970 -0.3012  2.0999 -2.6965
 9268TIP3    H252000   2.723   3.511  11.067 -3.8835 -0.5136  0.3857
 9269TIP3   OH252001   2.244   3.985  10.994 -0.3403  0.6460  0.2643
 9269TIP3    H152002   2.179   4.054  10.981 -0.5104  0.4941  0.3091
 9269TIP3    H252003   2.311   4.025  11.049 -0.3197  0.8508  0.0912
 9270TIP3   OH252004   7.037   1.889  12.626 -0.2424  0.4644  0.4556
 9270TIP3    H152005   7.091   1.890  12.705 -0.5517  0.0051  0.6759
 9270TIP3    H252006   6.966   1.829  12.646  1.0442 -1.7043 -1.0841
 9271TIP3   OH252007   2.185   1.031  11.721  0.5557  0.2974 -0.4206
 9271TIP3    H152008   2.266   1.068  11.684  1.3008 -0.7885  0.0779
 9271TIP3    H252009   2.116   1.060  11.660  1.1862  1.8704 -0.4449
 9272TIP3   OH252010   1.814   0.839  10.960  0.7790 -0.1381 -0.2114
 9272TIP3    H152011   1.837   0.930  10.980 -0.5684 -0.0346  1.0200
 9272TIP3    H252012   1.892   0.789  10.985  1.0508  0.5564  0.3548
 9273TIP3   OH252013   6.493   6.990  11.621 -0.0613 -0.4331 -0.0005
 9273TIP3    H152014   6.402   7.008  11.601  0.0672 -0.0616 -0.2693
 9273TIP3    H252015   6.498   6.895  11.629 -0.7279 -0.3719  1.3495
 9274TIP3   OH252016   7.197   3.496  11.822 -0.7360 -0.1455  0.2818
 9274TIP3    H152017   7.150   3.475  11.902 -0.1706  1.5770  1.1357
 9274TIP3    H252018   7.147   3.567  11.783 -0.5713 -0.4386 -0.4729
 9275TIP3   OH252019   0.015   1.313  11.336  0.4230 -0.2158  0.0636
 9275TIP3    H152020  -0.032   1.241  11.294 -1.4383  0.7778  0.3276
 9275TIP3    H252021  -0.000   1.388  11.279  0.5824  0.4222  0.8443
 9276TIP3   OH252022   3.782   5.748  11.130  0.2729 -0.0267 -0.0670
 9276TIP3    H152023   3.698   5.703  11.141 -1.1319  2.2566 -0.7568
 9276TIP3    H252024   3.806   5.777  11.218 -0.9128  1.3389 -0.1648
 9277TIP3   OH252025   7.638   5.183  11.011  0.2885  0.4920 -0.3523
 9277TIP3    H152026   7.587   5.124  10.956  1.1439 -1.1158  0.5012
 9277TIP3    H252027   7.633   5.268  10.967 -5.3699  1.2776  1.0203
 9278TIP3   OH252028   4.768   5.344  13.266 -0.2380 -0.1871  0.6876
 9278TIP3    H152029   4.834   5.330  13.334  0.0107 -0.5741  0.3684
 9278TIP3    H252030   4.776   5.437  13.244 -0.4868  0.0031  1.3557
 9279TIP3   OH252031   4.280   7.424  12.021  0.0542 -0.0426 -0.2041
 9279TIP3    H152032   4.303   7.470  12.102 -0.0603 -0.8243  0.2901
 9279TIP3    H252033   4.195   7.460  11.996 -0.3422 -0.4221  0.5352
 9280TIP3   OH252034   0.332   4.143  12.370 -0.1971 -0.0128 -0.2235
 9280TIP3    H152035   0.400   4.086  12.406 -0.1762  0.3731  0.3637
 9280TIP3    H252036   0.312   4.204  12.441  0.8378  1.6615 -1.3213
 9281TIP3   OH252037   0.813   1.721  12.403  0.1392 -0.0723 -0.2712
 9281TIP3    H152038   0.906   1.742  12.412 -0.0352  0.6151 -0.0060
 9281TIP3    H252039   0.782   1.777  12.332 -0.0021 -0.5511 -0.5934
 9282TIP3   OH252040   2.021   7.145  11.100 -0.4077  0.1642  0.2372
 9282TIP3    H152041   1.928   7.135  11.123 -0.6699 -0.4200 -1.0004
 9282TIP3    H252042   2.059   7.059  11.118 -0.6470 -0.3568 -1.4979
 9283TIP3   OH252043   6.198   4.663  11.435  0.1741 -0.7486 -0.0273
 9283TIP3    H152044   6.133   4.694  11.498  0.0520 -0.2969 -0.3734
 9283TIP3    H252045   6.148   4.645  11.356  0.6426  1.0377 -0.7937
 9284TIP3   OH252046   7.328   3.702  11.394 -0.6028  0.1268  0.1787
 9284TIP3    H152047   7.287   3.650  11.325 -2.5585  2.5541 -0.6350
 9284TIP3    H252048   7.402   3.745  11.352 -0.5073 -0.0333  0.1829
 9285TIP3   OH252049   1.921   3.910  11.575  0.6064  0.5713  0.0673
 9285TIP3    H152050   1.870   3.980  11.533  2.0035  1.3796 -0.3514
 9285TIP3    H252051   1.868   3.883  11.650 -0.3107  1.5574 -0.2012
 9286TIP3   OH252052   6.835   3.412  12.314  0.5113 -0.0713  0.1331
 9286TIP3    H152053   6.874   3.452  12.392 -0.6312 -0.0532  0.7207
 9286TIP3    H252054   6.807   3.326  12.343 -0.9735  0.3700  0.0744
 9287TIP3   OH252055   1.595   7.651  12.942 -0.0452  0.2434  0.3797
 9287TIP3    H152056   1.668   7.617  12.890 -1.5801 -0.2366 -1.5674
 9287TIP3    H252057   1.610   7.616  13.030  0.8915 -1.6692 -0.4882
 9288TIP3   OH252058   6.741   3.085  10.912  0.1389  0.3445 -0.1314
 9288TIP3    H152059   6.738   3.169  10.959 -0.6704  0.8588 -1.0729
 9288TIP3    H252060   6.755   3.020  10.981 -0.8200  1.1013  0.8147
 9289TIP3   OH252061   2.966   0.406  11.032 -0.6054  0.1079  0.1146
 9289TIP3    H152062   2.888   0.444  11.073 -0.6336  1.4302 -1.0798
 9289TIP3    H252063   2.951   0.311  11.034 -0.8249  0.1199  2.6346
 9290TIP3   OH252064   2.522   5.173  13.871 -0.1770  0.0674  0.3991
 9290TIP3    H152065   2.600   5.167  13.817  0.0926  0.4883  0.7376
 9290TIP3    H252066   2.461   5.109  13.833  0.5128 -0.6206  0.4326
 9291TIP3   OH252067   5.353   6.285  12.594  0.4469  0.7748 -0.0949
 9291TIP3    H152068   5.267   6.322  12.612 -0.4979 -1.3610  0.1546
 9291TIP3    H252069   5.378   6.240  12.676 -0.1651 -2.1263 -1.3692
 9292TIP3   OH252070   4.090   3.151  11.293 -0.6130  0.3296 -0.0893
 9292TIP3    H152071   4.046   3.141  11.378  1.9098 -1.0559  1.1527
 9292TIP3    H252072   4.031   3.208  11.243 -2.9888 -0.1079  1.9765
 9293TIP3   OH252073   3.374   7.069  13.585  0.1733  0.0997  0.0354
 9293TIP3    H152074   3.400   7.002  13.648 -0.1352 -1.4637 -1.4068
 9293TIP3    H252075   3.295   7.107  13.622 -0.7847 -1.7392  0.0087
 9294TIP3   OH252076   4.211   7.364  11.666 -0.1690  0.4899  0.5464
 9294TIP3    H152077   4.209   7.418  11.586 -0.5085 -0.8585 -0.3789
 9294TIP3    H252078   4.120   7.363  11.696 -0.0755  0.8338  0.8481
 9295TIP3   OH252079   5.443   1.076  12.174 -0.7697  0.0762  0.4303
 9295TIP3    H152080   5.408   1.040  12.093 -1.1674  2.1787 -0.3953
 9295TIP3    H252081   5.536   1.056  12.171 -0.8957 -0.4358 -0.2357
 9296TIP3   OH252082   4.493   3.737  13.904 -0.5911 -0.2550 -0.0740
 9296TIP3    H152083   4.498   3.793  13.982 -0.2485 -1.2840  0.6692
 9296TIP3    H252084   4.506   3.797  13.830  1.8289  0.3836  0.7697
 9297TIP3   OH252085   7.618   1.847  12.587  0.1353  0.2657 -0.0964
 9297TIP3    H152086   7.690   1.808  12.538 -0.5374 -1.2931  0.0890
 9297TIP3    H252087   7.650   1.852  12.677 -0.3598 -1.5767  0.2317
 9298TIP3   OH252088   6.787   2.796  12.553 -0.3674  0.0532  0.0155
 9298TIP3    H152089   6.868   2.841  12.574 -0.6635  0.3835  0.4681
 9298TIP3    H252090   6.793   2.777  12.460  0.7622 -1.0031  0.2816
 9299TIP3   OH252091   1.771   3.862  12.389  0.1169 -0.0060  0.1003
 9299TIP3    H152092   1.790   3.769  12.401  0.8183  0.0992 -0.1931
 9299TIP3    H252093   1.740   3.890  12.476  0.0324 -0.4715  0.2293
 9300TIP3   OH252094   6.518   3.118  11.112 -0.2394 -0.2915  0.0919
 9300TIP3    H152095   6.542   3.209  11.130 -0.5267 -0.5502  1.9975
 9300TIP3    H252096   6.597   3.068  11.133 -0.3121 -0.5452 -0.2313
 9301TIP3   OH252097   7.630   3.263  13.523 -0.4196  0.2908  0.2018
 9301TIP3    H152098   7.577   3.255  13.602 -0.7536  2.2547  0.2156
 9301TIP3    H252099   7.692   3.333  13.542  0.5781 -0.3135 -0.7097
 9302TIP3   OH252100   1.807   5.525  12.820 -0.6646 -0.2884  0.2047
 9302TIP3    H152101   1.744   5.453  12.816  0.7103 -1.5093 -0.0622
 9302TIP3    H252102   1.797   5.571  12.737  0.2329 -1.7626 -0.7679
 9303TIP3   OH252103   4.259   3.630  12.132  0.0318  0.3656  0.6190
 9303TIP3    H152104   4.261   3.725  12.125  2.2848  0.2777 -0.9090
 9303TIP3    H252105   4.193   3.602  12.069 -2.4174  0.9398  2.7832
 9304TIP3   OH252106   2.804   5.997  11.355  0.7079 -0.0792  0.0277
 9304TIP3    H152107   2.779   5.907  11.376 -2.9124  0.8328  0.2880
 9304TIP3    H252108   2.722   6.039  11.327  2.1180  3.3012  0.4641
 9305TIP3   OH252109   1.509   0.789  12.472  0.3681  0.3538 -0.0852
 9305TIP3    H152110   1.430   0.755  12.514  0.6515 -1.9551 -1.2035
 9305TIP3    H252111   1.576   0.784  12.539 -0.2566  1.6905  0.6748
 9306TIP3   OH252112   5.449   5.376  11.439  0.3184  0.4511  0.4376
 9306TIP3    H152113   5.442   5.434  11.363  1.1723 -0.6782 -0.5453
 9306TIP3    H252114   5.539   5.389  11.470  1.7045 -2.6576 -1.8202
 9307TIP3   OH252115   3.273   0.150  10.944 -0.4210  0.4987  0.0390
 9307TIP3    H152116   3.273   0.126  11.036  2.3392  1.4657  0.3771
 9307TIP3    H252117   3.216   0.084  10.902  0.9675 -2.0829  1.9255
 9308TIP3   OH252118   4.388   6.895  11.559  0.4353  0.0766  0.9377
 9308TIP3    H152119   4.342   6.832  11.615  0.6744 -0.5266  0.4599
 9308TIP3    H252120   4.320   6.957  11.532 -0.8657 -2.4973 -2.2536
 9309TIP3   OH252121   4.220   1.139  12.035 -0.0683 -0.0443  0.1233
 9309TIP3    H152122   4.268   1.071  12.083  0.8035  1.1656  1.0433
 9309TIP3    H252123   4.282   1.170  11.969  0.0365  0.7551  0.5830
 9310TIP3   OH252124   1.108   4.049  11.280 -0.2084 -0.2536  0.0558
 9310TIP3    H152125   1.094   3.962  11.317  0.2108 -0.2007  0.3441
 9310TIP3    H252126   1.040   4.058  11.213 -0.4614 -0.6697  0.2540
 9311TIP3   OH252127   7.060   5.698  11.155 -0.6105  0.3581  0.2203
 9311TIP3    H152128   7.014   5.726  11.234 -0.4092  2.5100 -0.3670
 9311TIP3    H252129   6.997   5.713  11.085 -0.5831 -0.9968 -0.1166
 9312TIP3   OH252130   1.767   7.085  11.214  0.0633 -0.0258 -0.0189
 9312TIP3    H152131   1.775   6.994  11.246 -0.0936 -0.6955 -1.7904
 9312TIP3    H252132   1.694   7.082  11.153  1.0261  0.9532 -1.2585
 9313TIP3   OH252133   1.197   0.469  11.378 -0.1152 -0.6135 -0.0381
 9313TIP3    H152134   1.186   0.386  11.332  1.7313 -0.0656 -1.5875
 9313TIP3    H252135   1.165   0.451  11.467 -1.9184 -2.2816 -0.9469
 9314TIP3   OH252136   3.181   6.121  11.266 -0.0855 -0.3228 -0.2118
 9314TIP3    H152137   3.101   6.162  11.233 -0.0518 -1.0383 -1.2133
 9314TIP3    H252138   3.251   6.158  11.213  0.2575  0.2378  0.6061
 9315TIP3   OH252139   1.629   2.724  13.486 -0.1118  0.0231  0.1254
 9315TIP3    H152140   1.723   2.710  13.472  0.1833  0.3443  1.6123
 9315TIP3    H252141   1.619   2.819  13.484 -0.0829  0.0760  1.7395
 9316TIP3   OH252142   7.482   0.959  13.550  0.2047 -0.0368  0.8329
 9316TIP3    H152143   7.403   0.942  13.499  1.6198 -0.6606 -1.3049
 9316TIP3    H252144   7.514   0.872  13.576  1.0013  0.0801  0.3018
 9317TIP3   OH252145   1.885   0.326  13.584 -0.2223 -0.4030 -0.6451
 9317TIP3    H152146   1.900   0.240  13.622  0.9817  0.1415  0.1533
 9317TIP3    H252147   1.815   0.311  13.520 -1.8591 -1.4684  1.2706
 9318TIP3   OH252148   2.518   5.815  11.800 -0.4051 -0.5062  0.0603
 9318TIP3    H152149   2.443   5.840  11.855 -1.4335 -0.2230 -1.4157
 9318TIP3    H252150   2.494   5.730  11.764  0.6303 -1.0712  0.6859
 9319TIP3   OH252151   5.757   3.612  11.766 -0.4586  0.4844 -0.2681
 9319TIP3    H152152   5.695   3.650  11.827  0.6994  1.3069  0.4225
 9319TIP3    H252153   5.741   3.517  11.772 -0.7309  0.5965  0.8781
 9320TIP3   OH252154   0.072   5.688  12.866 -0.0298  0.1524  0.1259
 9320TIP3    H152155  -0.019   5.691  12.838 -0.2794 -0.6880  0.8010
 9320TIP3    H252156   0.077   5.613  12.925  1.6255 -1.3562 -1.7465
 9321TIP3   OH252157   2.047   6.571  11.939 -0.2779  0.0137  0.5421
 9321TIP3    H152158   2.102   6.550  12.015 -3.3784 -1.1042  2.6744
 9321TIP3    H252159   2.033   6.486  11.896  0.3479  0.4427 -0.5709
 9322TIP3   OH252160   6.299   4.957  11.612  0.6424  0.4497 -0.1566
 9322TIP3    H152161   6.298   4.993  11.523 -0.3503  0.7764 -0.0221
 9322TIP3    H252162   6.270   5.029  11.667 -0.3841 -0.2546  0.2360
 9323TIP3   OH252163   1.985   7.326  12.102 -0.7401  0.0225  0.2791
 9323TIP3    H152164   1.905   7.337  12.050 -1.8699 -1.1578  1.6805
 9323TIP3    H252165   1.959   7.347  12.191  0.4613 -0.5941  0.7980
 9324TIP3   OH252166   5.983   3.634  13.086  0.3368 -0.2802  0.0282
 9324TIP3    H152167   5.947   3.630  12.997 -0.4352 -0.5604  0.3448
 9324TIP3    H252168   5.945   3.714  13.123 -0.9197 -1.1947  0.7646
 9325TIP3   OH252169   5.575   5.931  11.321 -0.6492  0.9069  0.0599
 9325TIP3    H152170   5.644   5.955  11.382  0.9591 -0.9072 -0.9463
 9325TIP3    H252171   5.574   6.001  11.256  0.0861  1.0610  0.2145
 9326TIP3   OH252172   2.798   4.582  13.017  0.2806 -0.1512  0.4548
 9326TIP3    H152173   2.713   4.594  12.975  0.3599 -1.5180 -0.1290
 9326TIP3    H252174   2.850   4.656  12.987 -1.3104  1.9775  2.5389
 9327TIP3   OH252175   5.346   2.703  12.542  0.4192 -0.5368 -0.3146
 9327TIP3    H152176   5.431   2.660  12.531 -0.1377 -1.7466 -0.0082
 9327TIP3    H252177   5.283   2.631  12.546 -0.5931  0.3353 -0.2502
 9328TIP3   OH252178   1.169   1.806  12.237  0.3920  0.5291 -0.2370
 9328TIP3    H152179   1.172   1.789  12.143  0.6997 -0.7279 -0.0251
 9328TIP3    H252180   1.257   1.836  12.259  0.1510  1.4195 -0.4335
 9329TIP3   OH252181   3.747   2.594  11.882  0.3749  0.5136  0.0789
 9329TIP3    H152182   3.805   2.537  11.933 -0.0278 -0.6059 -0.6521
 9329TIP3    H252183   3.695   2.533  11.829 -2.0721  1.4180  1.3082
 9330TIP3   OH252184   1.780   2.920  11.869 -0.4769 -0.0603  0.0089
 9330TIP3    H152185   1.874   2.910  11.856 -0.3394 -0.5656  1.2656
 9330TIP3    H252186   1.746   2.944  11.783  0.5206 -1.8581 -0.9340
 9331TIP3   OH252187   1.501   4.740  12.734  0.3566 -1.1314  0.0640
 9331TIP3    H152188   1.481   4.709  12.823  0.8739  1.1713  1.0559
 9331TIP3    H252189   1.512   4.835  12.744  0.5912 -0.8421 -2.4555
 9332TIP3   OH252190   2.976   1.516  10.765  0.7206  0.1555  0.1861
 9332TIP3    H152191   3.005   1.471  10.686  1.3018 -0.5838  0.8023
 9332TIP3    H252192   2.886   1.486  10.778  1.0618 -0.7528  0.5242
 9333TIP3   OH252193   1.262   1.066  12.751 -0.0426 -0.2512  0.4901
 9333TIP3    H152194   1.174   1.029  12.747  0.2329 -0.8997  0.2558
 9333TIP3    H252195   1.284   1.065  12.845  0.2158 -1.3252  0.4334
 9334TIP3   OH252196   3.748   5.508  11.377  0.2368  0.4676 -0.2649
 9334TIP3    H152197   3.727   5.447  11.447  1.9776 -1.7941 -1.5673
 9334TIP3    H252198   3.664   5.540  11.346 -0.7306 -1.1578  0.5792
 9335TIP3   OH252199   6.548   0.568  11.611 -0.4660 -0.2249 -0.3330
 9335TIP3    H152200   6.589   0.592  11.694  0.3789 -0.3376 -0.7111
 9335TIP3    H252201   6.492   0.643  11.589 -0.5045 -0.0897  0.2092
 9336TIP3   OH252202   4.913   3.382  13.707  0.1688  0.0530  0.3333
 9336TIP3    H152203   4.969   3.442  13.756 -0.5726  0.4684  0.6927
 9336TIP3    H252204   4.971   3.309  13.683  0.9266  0.6096  0.4363
 9337TIP3   OH252205   2.431   6.980  11.706 -0.5035  0.0295 -1.0103
 9337TIP3    H152206   2.422   6.997  11.800 -1.7344 -1.2076 -0.8713
 9337TIP3    H252207   2.524   6.961  11.695 -0.4785 -0.6336  0.1238
 9338TIP3   OH252208   0.925   1.570  11.109 -0.4951 -0.0840 -0.0323
 9338TIP3    H152209   0.869   1.592  11.034 -0.4838 -1.6959 -0.5464
 9338TIP3    H252210   0.958   1.655  11.139 -0.6977  0.6340 -1.6878
 9339TIP3   OH252211   2.012   1.937  11.753  0.1355  0.6072 -0.2684
 9339TIP3    H152212   2.033   1.933  11.660 -0.6127 -0.9326 -0.3902
 9339TIP3    H252213   2.026   1.848  11.785  4.1756  1.8097  2.0021
 9340TIP3   OH252214   6.464   7.642  12.395  0.4484  0.2981  0.2679
 9340TIP3    H152215   6.404   7.712  12.421  1.5281  1.1135  0.6364
 9340TIP3    H252216   6.504   7.614  12.477 -0.9489 -1.7492  0.3458
 9341TIP3   OH252217   6.490   2.936  12.344  0.0485  0.0194 -0.1002
 9341TIP3    H152218   6.558   2.977  12.397  0.2476 -0.7305  0.2313
 9341TIP3    H252219   6.456   2.865  12.398 -1.7929  1.0557  0.2063
 9342TIP3   OH252220   0.743   1.840  12.681  0.4632  0.0859 -0.1887
 9342TIP3    H152221   0.714   1.802  12.598 -0.4628  0.8895 -0.2650
 9342TIP3    H252222   0.816   1.896  12.658  1.2243 -0.8929 -0.2139
 9343TIP3   OH252223   6.879   1.775  11.592  0.0351 -0.1831 -0.1010
 9343TIP3    H152224   6.945   1.773  11.661  0.1492 -1.5976 -0.2409
 9343TIP3    H252225   6.797   1.754  11.637 -0.0151 -0.3364 -0.2658
 9344TIP3   OH252226   7.447   1.158  12.652 -0.7097 -0.0239 -0.3103
 9344TIP3    H152227   7.414   1.248  12.654  0.1955  0.3115  1.7331
 9344TIP3    H252228   7.476   1.146  12.562 -0.0176  2.0579 -0.4239
 9345TIP3   OH252229   3.178   3.407  11.745 -0.0158  0.2187  0.2428
 9345TIP3    H152230   3.118   3.345  11.704 -1.3671  0.9936  0.9815
 9345TIP3    H252231   3.166   3.394  11.839  0.5223  0.8047  0.4026
 9346TIP3   OH252232   1.278   7.446  11.053 -0.0290 -0.0378  0.5334
 9346TIP3    H152233   1.186   7.456  11.077 -0.5271 -0.3556 -1.1194
 9346TIP3    H252234   1.276   7.399  10.970  1.6094  0.4071  0.2088
 9347TIP3   OH252235   2.446   3.220  13.407  0.2827  0.1435  0.3716
 9347TIP3    H152236   2.415   3.198  13.495 -1.1852 -0.1877 -0.1982
 9347TIP3    H252237   2.494   3.302  13.419 -2.0634  1.5139  1.1499
 9348TIP3   OH252238   0.861   6.500  13.350 -0.6815  0.1183  0.3331
 9348TIP3    H152239   0.795   6.434  13.371  0.0046 -0.4185  0.8723
 9348TIP3    H252240   0.872   6.549  13.431 -0.7328  0.4916  0.1154
 9349TIP3   OH252241   6.581   2.055  13.149  0.3305 -0.2399 -0.2774
 9349TIP3    H152242   6.651   2.079  13.088  1.2880 -0.1645  0.8074
 9349TIP3    H252243   6.591   2.117  13.221  0.4252 -1.4786  0.8076
 9350TIP3   OH252244   3.812   2.608  11.523  0.0927  0.1230 -0.2368
 9350TIP3    H152245   3.903   2.626  11.502  0.3336  0.8679  1.2907
 9350TIP3    H252246   3.811   2.516  11.549  0.5782  0.3325  0.5463
 9351TIP3   OH252247   1.694   4.779  12.273 -0.3297 -0.2715 -0.2828
 9351TIP3    H152248   1.681   4.772  12.368  0.8585  0.3612 -0.0670
 9351TIP3    H252249   1.625   4.723  12.236 -0.1489 -1.3884  0.9777
 9352TIP3   OH252250   3.507   0.817  11.006 -0.5493 -0.1762  0.7161
 9352TIP3    H152251   3.556   0.868  10.942 -0.5421 -0.1007  0.7811
 9352TIP3    H252252   3.512   0.727  10.974 -1.4068 -0.0043  0.0640
 9353TIP3   OH252253   1.065   7.098  12.226  0.1511  0.2385  0.2151
 9353TIP3    H152254   1.138   7.089  12.165 -1.1176  0.4774 -1.4073
 9353TIP3    H252255   1.009   7.022  12.207 -1.9002  2.0142 -1.3064
 9354TIP3   OH252256   0.932   3.682  13.024 -0.0662 -0.8351  0.1017
 9354TIP3    H152257   0.851   3.731  13.013  0.3096  0.1604  1.5464
 9354TIP3    H252258   0.921   3.604  12.968 -1.2367  0.1871 -1.1467
 9355TIP3   OH252259   2.034   5.567  11.150 -0.3931 -0.1046 -0.6166
 9355TIP3    H152260   2.028   5.637  11.214 -2.2520  0.6105 -1.5100
 9355TIP3    H252261   2.074   5.608  11.073 -2.5072  0.3472 -1.5397
 9356TIP3   OH252262   3.741   5.365  13.529 -0.3428  0.0949 -0.1827
 9356TIP3    H152263   3.741   5.373  13.624  2.6720 -1.3919  0.0716
 9356TIP3    H252264   3.775   5.449  13.498 -1.0551  0.4761  0.0418
 9357TIP3   OH252265   6.011   2.707  12.908 -0.1996  0.2972 -0.4812
 9357TIP3    H152266   6.030   2.799  12.927 -1.0668  0.3462  0.2027
 9357TIP3    H252267   5.987   2.706  12.815 -0.6243  0.8438 -0.3843
 9358TIP3   OH252268   5.259   1.549  12.021 -0.0167  0.5394 -0.6022
 9358TIP3    H152269   5.276   1.509  12.106 -3.5500 -0.6481 -0.2683
 9358TIP3    H252270   5.340   1.537  11.971  1.0118 -1.8614  1.4420
 9359TIP3   OH252271   1.421   1.960  13.466 -0.6337  0.2408  0.0166
 9359TIP3    H152272   1.503   1.928  13.427 -0.0519  2.2281 -0.5329
 9359TIP3    H252273   1.423   1.926  13.555  0.1243 -0.8702 -0.3985
 9360TIP3   OH252274   4.599   1.324  11.152 -0.5009 -0.1228 -0.4140
 9360TIP3    H152275   4.552   1.402  11.182 -1.2168 -0.7852  0.2390
 9360TIP3    H252276   4.536   1.277  11.098 -0.0019 -0.1564 -0.9841
 9361TIP3   OH252277   7.269   0.774  12.445 -0.5021  0.2079  0.2535
 9361TIP3    H152278   7.190   0.730  12.477  0.6442 -1.3709  1.0321
 9361TIP3    H252279   7.342   0.724  12.482  0.8912  0.4198 -1.9954
 9362TIP3   OH252280   6.426   2.187  11.270 -0.7401 -0.8761  0.4537
 9362TIP3    H152281   6.343   2.160  11.230  0.3242 -0.7863 -1.9628
 9362TIP3    H252282   6.435   2.280  11.248 -0.0369 -0.8601  0.7728
 9363TIP3   OH252283   4.853   5.477  12.136  0.2739 -0.0723  0.4512
 9363TIP3    H152284   4.825   5.387  12.122 -0.7548  0.0970  1.2970
 9363TIP3    H252285   4.821   5.499  12.224  2.3353  0.4286  1.1285
 9364TIP3   OH252286   7.610   3.314  10.679 -0.6429  0.1178 -0.5518
 9364TIP3    H152287   7.588   3.357  10.596 -1.3636 -0.7125 -0.8007
 9364TIP3    H252288   7.697   3.347  10.700 -0.8465  1.0922 -1.1351
 9365TIP3   OH252289   7.409   4.891  13.389  0.1413 -0.5390  0.3557
 9365TIP3    H152290   7.341   4.829  13.414  1.3469 -2.1285 -0.1908
 9365TIP3    H252291   7.363   4.975  13.383 -1.4490 -1.2869  1.4645
 9366TIP3   OH252292   1.099   4.729  12.391 -0.3353  0.2767  0.1140
 9366TIP3    H152293   1.125   4.748  12.481  1.0717 -1.7322  0.1986
 9366TIP3    H252294   1.164   4.774  12.337  0.1728 -0.3673  0.1806
 9367TIP3   OH252295   1.709   0.245  13.343 -0.4237  0.2771 -0.1464
 9367TIP3    H152296   1.680   0.223  13.254 -0.7170  0.4149 -0.0858
 9367TIP3    H252297   1.692   0.166  13.394  0.7315 -0.1741 -0.4389
 9368TIP3   OH252298   4.907   2.181  12.275  0.0847  0.0663 -0.0789
 9368TIP3    H152299   4.952   2.259  12.242  1.6588 -0.7017  0.1704
 9368TIP3    H252300   4.814   2.198  12.256  0.2014  2.5785  1.1945
 9369TIP3   OH252301   0.200   4.413  12.839 -0.4747  0.3774  0.0034
 9369TIP3    H152302   0.235   4.355  12.906  0.1101 -0.7477 -1.2163
 9369TIP3    H252303   0.274   4.470  12.816  0.3791 -1.3530 -1.8798
 9370TIP3   OH252304   4.199   1.428  11.232 -0.2490 -0.2701 -0.2563
 9370TIP3    H152305   4.132   1.387  11.177 -0.4818 -0.0045 -0.1742
 9370TIP3    H252306   4.174   1.521  11.235 -1.0921 -0.5110  1.5062
 9371TIP3   OH252307   5.634   0.624  12.941  0.2596 -0.4153 -0.7273
 9371TIP3    H152308   5.713   0.577  12.913  0.5451  0.1728 -0.9214
 9371TIP3    H252309   5.583   0.635  12.860  0.2213 -0.3382 -0.6927
 9372TIP3   OH252310   4.184   2.938  11.566  0.4587 -0.1305 -0.3454
 9372TIP3    H152311   4.128   2.990  11.624 -0.5687 -0.6096 -0.8684
 9372TIP3    H252312   4.222   2.871  11.622 -0.0744 -0.2402 -0.1038
 9373TIP3   OH252313   3.761   4.953  12.483 -0.3196  0.4680  0.5229
 9373TIP3    H152314   3.775   4.866  12.519 -3.6904 -0.2497  0.4958
 9373TIP3    H252315   3.810   4.954  12.401 -1.6530 -2.1800 -0.4136
 9374TIP3   OH252316   2.083   0.543  11.271 -0.3401 -0.5282  0.0824
 9374TIP3    H152317   2.043   0.456  11.267  0.9724 -1.2162  1.1299
 9374TIP3    H252318   2.041   0.586  11.346  1.5086 -1.6460  1.8647
 9375TIP3   OH252319   0.063   3.983  12.774  0.2281  0.3833  0.1908
 9375TIP3    H152320   0.143   3.945  12.809  0.6669 -0.4961 -1.6840
 9375TIP3    H252321  -0.004   3.959  12.839  1.2413  0.1081  1.1810
 9376TIP3   OH252322   2.083   3.343  12.034  0.4225 -0.3112 -0.1857
 9376TIP3    H152323   2.097   3.279  12.104 -0.7544 -1.2986 -0.8226
 9376TIP3    H252324   2.047   3.292  11.962 -0.6256  1.0810 -0.6916
 9377TIP3   OH252325   4.697   4.217  13.623 -0.5776 -0.6090 -0.5500
 9377TIP3    H152326   4.741   4.247  13.543  0.2522 -0.5250 -0.0812
 9377TIP3    H252327   4.749   4.142  13.652 -1.2468 -1.0294 -0.4314
 9378TIP3   OH252328   0.972   0.557  12.670 -0.1346 -0.1508  0.3798
 9378TIP3    H152329   0.947   0.552  12.762  0.4079 -0.2362  0.5240
 9378TIP3    H252330   0.974   0.467  12.640 -0.1767 -0.1325  0.3215
 9379TIP3   OH252331   2.708   4.681  13.617  0.2026 -0.2069 -0.1552
 9379TIP3    H152332   2.628   4.693  13.668  1.0761 -1.0941  1.5324
 9379TIP3    H252333   2.704   4.749  13.549 -3.5571 -2.3338 -2.3715
 9380TIP3   OH252334   2.226   2.217  11.402 -0.8760 -0.1099 -0.5339
 9380TIP3    H152335   2.251   2.138  11.354  3.0812  0.8573 -0.4139
 9380TIP3    H252336   2.206   2.281  11.333 -0.5920 -0.2358 -0.7344
 9381TIP3   OH252337   2.625   5.733  13.170  0.4606 -0.1603 -0.1162
 9381TIP3    H152338   2.641   5.682  13.249  1.0759 -0.7570 -0.6154
 9381TIP3    H252339   2.707   5.781  13.156  0.3238  0.0090 -0.3494
 9382TIP3   OH252340   3.219   6.711  11.465 -0.3540  0.0993 -0.1090
 9382TIP3    H152341   3.292   6.671  11.512 -0.6382  0.0890  0.3389
 9382TIP3    H252342   3.181   6.773  11.528 -1.4234 -0.7071  0.0763
 9383TIP3   OH252343   4.017   4.939  11.012  0.3294  1.2028  0.3187
 9383TIP3    H152344   3.986   4.872  11.073 -0.6801  1.1921 -0.1827
 9383TIP3    H252345   3.958   4.932  10.937  1.6932  1.0637 -0.7654
 9384TIP3   OH252346   4.208   2.484  12.279 -0.3831 -0.2520  0.4768
 9384TIP3    H152347   4.231   2.458  12.190  1.6641 -0.4261  1.0079
 9384TIP3    H252348   4.152   2.561  12.267 -1.7282 -1.3758 -0.9671
 9385TIP3   OH252349   6.560   4.797  11.986  0.5635  0.0068 -0.2665
 9385TIP3    H152350   6.555   4.701  11.982  3.0561 -0.1726 -0.7156
 9385TIP3    H252351   6.591   4.815  12.074  2.4154  0.1950 -0.9137
 9386TIP3   OH252352   0.364   0.078  12.424 -0.7189 -0.4404  0.7371
 9386TIP3    H152353   0.459   0.081  12.418 -0.6842 -0.9697  0.9558
 9386TIP3    H252354   0.338   0.169  12.439 -0.4815  0.2558 -2.4620
 9387TIP3   OH252355   0.840   4.259  12.668 -0.0187 -0.9784  0.7215
 9387TIP3    H152356   0.773   4.308  12.716  0.7282  0.6191  0.1916
 9387TIP3    H252357   0.864   4.316  12.595  1.4996 -1.7676  0.5654
 9388TIP3   OH252358   3.415   0.774  13.894  0.4158 -0.6646 -0.2851
 9388TIP3    H152359   3.390   0.791  13.803 -0.1170  0.1378 -0.0008
 9388TIP3    H252360   3.338   0.797  13.945  1.5058  1.3940  0.5716
 9389TIP3   OH252361   3.374   7.318  13.150 -0.0559  0.1136  1.1155
 9389TIP3    H152362   3.382   7.371  13.230 -0.2726  1.7478  0.0950
 9389TIP3    H252363   3.335   7.377  13.086 -1.4762 -1.6781  0.2610
 9390TIP3   OH252364   4.313   6.909  13.451  0.1915  0.4237 -0.1190
 9390TIP3    H152365   4.397   6.930  13.411 -1.3587  1.8239 -2.9343
 9390TIP3    H252366   4.257   6.984  13.431 -1.0610  0.9912  4.2611
 9391TIP3   OH252367   3.509   3.068  12.868 -0.2775 -0.3984  0.2960
 9391TIP3    H152368   3.542   3.050  12.956 -0.1235  2.0281  0.7985
 9391TIP3    H252369   3.587   3.088  12.817 -0.5080 -0.0459  0.0773
 9392TIP3   OH252370   2.035   5.438  11.843  0.3281  0.4827 -0.0650
 9392TIP3    H152371   2.052   5.480  11.927  0.4598 -1.3094  0.8670
 9392TIP3    H252372   2.091   5.360  11.844 -0.3393 -0.0440 -1.4278
 9393TIP3   OH252373   7.513   5.247  13.226  0.0516 -0.8623 -0.0673
 9393TIP3    H152374   7.474   5.321  13.274 -0.6343 -0.4056 -1.2887
 9393TIP3    H252375   7.438   5.193  13.202  0.2957 -0.6673 -1.3091
 9394TIP3   OH252376   3.691   4.423  12.526 -0.0711 -0.4329 -0.1188
 9394TIP3    H152377   3.600   4.392  12.524 -0.7087  1.2369  1.4208
 9394TIP3    H252378   3.712   4.432  12.619  0.6186  2.0987 -0.4486
 9395TIP3   OH252379   5.520   1.679  13.642 -0.0827 -0.6889  0.3124
 9395TIP3    H152380   5.490   1.753  13.694 -0.1126  0.6122 -1.4602
 9395TIP3    H252381   5.604   1.655  13.680  0.8476  1.5204 -0.2211
 9396TIP3   OH252382   0.008   4.169  11.002 -0.2756 -0.0036 -0.1641
 9396TIP3    H152383   0.012   4.227  10.926 -1.7788 -0.5120 -0.6767
 9396TIP3    H252384   0.034   4.223  11.076  1.3876  0.4548 -1.0477
 9397TIP3   OH252385   5.221   2.283  12.896  0.2353 -0.3692 -0.3826
 9397TIP3    H152386   5.215   2.208  12.838 -0.2352 -0.9593  0.4021
 9397TIP3    H252387   5.178   2.254  12.977 -0.7803  1.0559 -0.3798
 9398TIP3   OH252388   3.049   5.988  11.482  0.1498 -0.4391  0.1931
 9398TIP3    H152389   3.097   6.013  11.404 -1.3120  3.1233  0.2472
 9398TIP3    H252390   2.957   5.986  11.455 -0.3426  0.3603  1.6762
 9399TIP3   OH252391   5.702   7.241  11.856 -0.3031  0.0075  0.1307
 9399TIP3    H152392   5.747   7.291  11.924  1.4043 -1.4326  0.1306
 9399TIP3    H252393   5.677   7.159  11.899 -1.2328 -0.0106 -0.4026
 9400TIP3   OH252394   2.865   5.492  13.597 -0.6780  0.3162 -0.4757
 9400TIP3    H152395   2.898   5.559  13.537 -0.2809 -0.3463 -1.0115
 9400TIP3    H252396   2.903   5.410  13.565  0.0409  0.0185  1.0377
 9401TIP3   OH252397   1.326   6.676  11.559  0.2912 -0.4048  0.2851
 9401TIP3    H152398   1.322   6.582  11.545  0.3595 -0.5164  0.9790
 9401TIP3    H252399   1.357   6.686  11.649 -1.5143  0.2501  0.8809
 9402TIP3   OH252400   1.493   0.521  13.538  0.0696  0.5055  0.1837
 9402TIP3    H152401   1.573   0.509  13.589 -1.7840 -1.4859  2.8844
 9402TIP3    H252402   1.523   0.529  13.448  3.3600  1.3269  1.2005
 9403TIP3   OH252403   5.014   2.774  12.650  0.1388  0.3023 -0.1240
 9403TIP3    H152404   5.098   2.793  12.693 -0.2137  1.4663  0.0937
 9403TIP3    H252405   4.986   2.859  12.615 -1.4608  0.1634  0.7538
 9404TIP3   OH252406   0.164   4.913  11.982 -0.0095  0.3892 -0.1552
 9404TIP3    H152407   0.135   5.004  11.980  1.5357  0.9368  0.7994
 9404TIP3    H252408   0.250   4.915  11.941  0.9452 -0.2507  1.7180
 9405TIP3   OH252409   2.087   3.349  11.397  0.6025  0.7444 -0.4207
 9405TIP3    H152410   2.149   3.335  11.469 -0.5144 -0.5810  0.3042
 9405TIP3    H252411   2.106   3.279  11.335 -0.7978 -0.2711  0.2646
 9406TIP3   OH252412   4.202   7.539  13.480  0.2486 -0.5080  0.1460
 9406TIP3    H152413   4.137   7.501  13.540 -0.5193  0.5041 -0.0137
 9406TIP3    H252414   4.237   7.464  13.432  0.6527 -1.3156  1.6120
 9407TIP3   OH252415   0.568   2.551  12.596  0.1063  0.1017 -1.0257
 9407TIP3    H152416   0.643   2.530  12.652 -1.7694 -0.6470  1.4051
 9407TIP3    H252417   0.582   2.642  12.570  0.7217  0.7710  1.3984
 9408TIP3   OH252418   2.866   0.099  12.957 -0.3973 -0.2845  0.2255
 9408TIP3    H152419   2.891   0.069  12.870 -2.5565 -1.9962  0.1282
 9408TIP3    H252420   2.810   0.176  12.941 -1.6857 -1.2341 -0.0220
 9409TIP3   OH252421   2.206   5.296  12.150 -0.2149  0.0075  0.1211
 9409TIP3    H152422   2.224   5.323  12.240 -0.1410 -3.1738  1.1657
 9409TIP3    H252423   2.175   5.206  12.157 -3.3395  0.6262 -2.7954
 9410TIP3   OH252424   7.049   1.769  11.070  1.1449 -0.3064  0.3156
 9410TIP3    H152425   7.144   1.760  11.070  1.4200  1.9187 -1.1657
 9410TIP3    H252426   7.033   1.858  11.040 -1.4421 -0.8644 -0.2133
 9411TIP3   OH252427   0.129   1.472  12.260 -0.2989  0.2739 -0.0406
 9411TIP3    H152428   0.187   1.446  12.187  0.5056 -0.6970  0.9084
 9411TIP3    H252429   0.074   1.396  12.274  0.6857 -0.2009  1.4369
 9412TIP3   OH252430   2.270   6.344  11.905  0.3847  0.5080 -0.2551
 9412TIP3    H152431   2.192   6.324  11.853  0.5438  0.4040 -0.4622
 9412TIP3    H252432   2.342   6.342  11.841  0.5852  0.3744 -0.0310
 9413TIP3   OH252433   4.444   4.166  13.766  0.2634  0.5401  0.5490
 9413TIP3    H152434   4.504   4.207  13.703 -2.3624 -0.8230 -3.2479
 9413TIP3    H252435   4.470   4.074  13.767 -1.4253 -0.0113 -0.9285
 9414TIP3   OH252436   4.844   2.112  11.116 -0.0805 -0.1848  0.4062
 9414TIP3    H152437   4.791   2.177  11.070  1.0964  0.5364  0.0075
 9414TIP3    H252438   4.812   2.028  11.085 -0.1750  0.2652 -0.7763
 9415TIP3   OH252439   1.803   6.121  11.392 -0.6738 -0.0812  0.2095
 9415TIP3    H152440   1.744   6.055  11.357 -1.0299  0.7751 -0.8805
 9415TIP3    H252441   1.838   6.082  11.472 -0.0297 -2.0192 -0.9496
 9416TIP3   OH252442   6.594   1.788  13.233  0.2768  0.2536 -0.3134
 9416TIP3    H152443   6.606   1.882  13.224 -0.9792  0.3464 -1.3596
 9416TIP3    H252444   6.505   1.772  13.201  0.6518 -1.3478 -0.6483
 9417TIP3   OH252445   1.107   4.613  11.875 -0.0290  0.0015  0.3672
 9417TIP3    H152446   1.052   4.686  11.843  0.7161  0.7618  0.7751
 9417TIP3    H252447   1.127   4.563  11.796 -2.0080 -0.8206  0.3131
 9418TIP3   OH252448   6.608   2.803  11.456  0.1957 -0.4161 -0.0749
 9418TIP3    H152449   6.518   2.834  11.444  0.5476  0.4405 -0.5970
 9418TIP3    H252450   6.602   2.739  11.527 -0.9616 -1.0057 -0.6748
 9419TIP3   OH252451   1.668   6.925  12.331  0.1177 -0.1416  0.5638
 9419TIP3    H152452   1.740   6.893  12.277  0.2246  1.5781 -0.3792
 9419TIP3    H252453   1.708   6.991  12.388 -0.4465 -0.2033  1.0469
 9420TIP3   OH252454   1.600   5.464  11.635  0.0105  0.1269 -0.0473
 9420TIP3    H152455   1.580   5.389  11.691 -0.4450  0.9963  0.9908
 9420TIP3    H252456   1.535   5.530  11.660  0.7637  1.0712 -0.5303
 9421TIP3   OH252457   5.587   7.035  12.015  0.2498 -0.2090 -0.2859
 9421TIP3    H152458   5.525   7.009  12.083  1.0358 -1.1626  0.0804
 9421TIP3    H252459   5.576   6.970  11.946 -0.2820  0.5447 -0.9249
 9422TIP3   OH252460   6.116   4.025  11.372 -0.4871  0.3976 -0.6662
 9422TIP3    H152461   6.164   4.030  11.289 -0.4034  0.6326 -0.6050
 9422TIP3    H252462   6.140   3.940  11.408 -0.3541  0.3846 -0.7806
 9423TIP3   OH252463   7.662   4.008  11.806  0.0938  0.2187  0.1467
 9423TIP3    H152464   7.630   4.084  11.759 -0.6417  0.1594  0.5376
 9423TIP3    H252465   7.583   3.967  11.843  0.5529 -0.2978  0.5775
 9424TIP3   OH252466   4.288   7.170  12.147  0.4516  0.0676  0.1174
 9424TIP3    H152467   4.238   7.190  12.068 -1.4769  0.0230  1.2365
 9424TIP3    H252468   4.296   7.254  12.193 -0.4757 -0.2601  0.9288
 9425TIP3   OH252469   3.469   4.058  12.565 -0.0676 -0.2154 -0.5319
 9425TIP3    H152470   3.402   4.064  12.632  2.8661 -3.0404  3.0299
 9425TIP3    H252471   3.439   3.987  12.507  0.1213 -2.0940  1.5476
 9426TIP3   OH252472   4.048   2.699  12.185 -0.6229  0.0909 -0.3022
 9426TIP3    H152473   4.103   2.716  12.109 -0.3598 -0.4777 -0.2462
 9426TIP3    H252474   4.016   2.785  12.212 -2.1178  0.1718 -2.1023
 9427TIP3   OH252475   5.170   1.733  12.952  0.3743 -0.2214  0.5321
 9427TIP3    H152476   5.205   1.809  12.997  0.4670 -0.4546  0.8647
 9427TIP3    H252477   5.227   1.661  12.979  1.0963 -0.1902 -0.8024
 9428TIP3   OH252478   1.898   2.570  12.632 -0.3691  0.5698 -0.5344
 9428TIP3    H152479   1.981   2.597  12.593 -0.4272  0.7734 -0.5195
 9428TIP3    H252480   1.880   2.484  12.594  1.3098 -0.8396  1.6134
 9429TIP3   OH252481   7.471   6.130  12.514 -0.4528 -0.4024  0.1304
 9429TIP3    H152482   7.553   6.115  12.562 -0.3242 -0.9187 -0.2395
 9429TIP3    H252483   7.446   6.219  12.537  0.2344 -0.2222  0.2199
 9430TIP3   OH252484   0.912   4.519  12.580  0.0860  0.1240 -0.9681
 9430TIP3    H152485   0.995   4.471  12.589  1.4295  2.0207 -2.4036
 9430TIP3    H252486   0.904   4.537  12.486 -2.0023 -0.0241 -0.8673
 9431TIP3   OH252487   1.307   1.426  13.190 -0.6113 -0.0927  0.1940
 9431TIP3    H152488   1.278   1.352  13.243  1.0808 -1.2947 -0.4659
 9431TIP3    H252489   1.392   1.450  13.226  0.7869 -1.2092 -2.1089
 9432TIP3   OH252490   7.486   6.459  10.910  0.0059 -0.2776 -0.0349
 9432TIP3    H152491   7.456   6.541  10.873 -2.3562 -1.5968 -1.2503
 9432TIP3    H252492   7.444   6.454  10.996  0.0589 -0.2862 -0.0089
 9433TIP3   OH252493   0.024   5.492  11.726  0.3798 -0.2884  0.2393
 9433TIP3    H152494   0.031   5.443  11.644  2.7169  1.0263 -0.4466
 9433TIP3    H252495  -0.059   5.540  11.718  0.4445 -0.3736 -1.2738
 9434TIP3   OH252496   1.533   2.421  12.149 -0.2330 -0.3603 -0.0203
 9434TIP3    H152497   1.528   2.380  12.236  1.2647 -0.5149  0.0166
 9434TIP3    H252498   1.620   2.398  12.117 -0.0302  1.3354 -0.7594
 9435TIP3   OH252499   1.602   6.668  13.711 -0.0162 -0.1859 -0.3526
 9435TIP3    H152500   1.668   6.602  13.730 -0.8377 -0.6915  0.8532
 9435TIP3    H252501   1.620   6.739  13.773 -1.3246 -0.8650  0.8684
 9436TIP3   OH252502   4.361   7.610  12.214 -0.3970  0.4163 -0.0516
 9436TIP3    H152503   4.446   7.582  12.180 -0.6363 -1.5959  0.8629
 9436TIP3    H252504   4.382   7.656  12.295 -0.1965 -1.0601  0.7672
 9437TIP3   OH252505   4.956   3.542  12.781  0.1792  0.3213  0.2062
 9437TIP3    H152506   4.869   3.527  12.817  0.2513  2.2214  1.3047
 9437TIP3    H252507   4.946   3.618  12.724  1.3433  1.3552  1.3373
 9438TIP3   OH252508   1.538   1.766  13.095 -0.4631 -0.1402  0.5878
 9438TIP3    H152509   1.520   1.732  13.183 -1.7512  1.0347  0.8062
 9438TIP3    H252510   1.632   1.750  13.082 -0.4774 -1.3232  1.7272
 9439TIP3   OH252511   6.132   6.369  11.836 -0.1475  0.1078 -0.4505
 9439TIP3    H152512   6.197   6.429  11.873 -0.4740  0.6665 -0.7627
 9439TIP3    H252513   6.051   6.389  11.883  0.1068 -1.2891  0.6628
 9440TIP3   OH252514   0.734   1.693  11.382 -0.5447  0.3138 -0.0501
 9440TIP3    H152515   0.669   1.740  11.434  0.0272 -0.0315  1.0101
 9440TIP3    H252516   0.690   1.612  11.357 -0.6003  0.1763  0.4778
 9441TIP3   OH252517   3.358   6.266  12.063  0.0620  0.2433 -0.7090
 9441TIP3    H152518   3.436   6.219  12.032 -0.5796 -0.0748 -1.8685
 9441TIP3    H252519   3.293   6.255  11.994 -1.0249  0.5252  0.2307
 9442TIP3   OH252520   3.080   4.041  11.999 -0.5050 -0.8511 -0.0503
 9442TIP3    H152521   3.151   3.984  12.028 -0.1427 -0.5479 -0.3227
 9442TIP3    H252522   3.050   4.085  12.078 -0.8808 -1.5263  0.1810
 9443TIP3   OH252523   0.291   7.101  12.352  0.8864  0.2197 -0.0304
 9443TIP3    H152524   0.212   7.053  12.374  0.1003  1.2290 -0.5527
 9443TIP3    H252525   0.305   7.085  12.259  0.4899  1.1509 -0.2619
 9444TIP3   OH252526   5.673   4.513  11.422  0.7353  0.2816  0.0250
 9444TIP3    H152527   5.674   4.575  11.349  2.9411  1.2294  0.7675
 9444TIP3    H252528   5.745   4.453  11.403  0.6380 -0.1194  0.8919
 9445TIP3   OH252529   1.009   4.721  12.778 -0.0673 -0.1264  0.3865
 9445TIP3    H152530   0.976   4.676  12.700 -0.0453  0.0172  0.2940
 9445TIP3    H252531   1.046   4.802  12.745  1.7604 -0.9508  0.3092
 9446TIP3   OH252532   2.420   3.609  12.894 -0.2827 -0.4570  0.2234
 9446TIP3    H152533   2.506   3.566  12.890  1.1363  2.2061 -2.8819
 9446TIP3    H252534   2.360   3.547  12.852  0.6337 -1.3840  0.2402
 9447TIP3   OH252535   2.987   2.908  11.320  0.0207  0.5278  0.3429
 9447TIP3    H152536   3.041   2.885  11.245 -0.6991 -0.0272 -0.0207
 9447TIP3    H252537   2.995   2.834  11.380 -0.1647  0.5422  0.3870
 9448TIP3   OH252538   3.460   3.606  13.934  0.2766  0.8509  0.1504
 9448TIP3    H152539   3.435   3.677  13.875  0.2505  0.2880 -0.5406
 9448TIP3    H252540   3.457   3.527  13.879  1.3951  0.4679  0.6021
 9449TIP3   OH252541   2.121   7.077  12.268  0.3188 -0.1606 -0.6254
 9449TIP3    H152542   2.189   7.021  12.306  0.3795 -0.5038 -1.2262
 9449TIP3    H252543   2.170   7.150  12.228  0.2365  0.3647  0.2087
 9450TIP3   OH252544   5.873   2.007  11.329 -0.0926 -0.3791 -1.2506
 9450TIP3    H152545   5.836   2.053  11.404  1.7113 -0.5558 -0.1971
 9450TIP3    H252546   5.801   1.953  11.296 -0.7823 -0.7141  0.6977
 9451TIP3   OH252547   3.401   6.146  13.318 -0.0816  1.0279 -0.6395
 9451TIP3    H152548   3.487   6.112  13.342 -0.3796 -0.2653 -1.3209
 9451TIP3    H252549   3.409   6.241  13.330  1.5343  0.9728 -1.0110
 9452TIP3   OH252550   5.602   2.275  13.724 -0.6941  0.2776  0.2592
 9452TIP3    H152551   5.675   2.280  13.785 -0.0217  0.6330 -0.5582
 9452TIP3    H252552   5.599   2.183  13.697 -0.5734  0.2595  0.3092
 9453TIP3   OH252553   1.863   7.134  12.354  0.0592  0.5250 -0.0630
 9453TIP3    H152554   1.942   7.123  12.300  0.5920  0.0243  0.7964
 9453TIP3    H252555   1.880   7.082  12.432 -0.5167  1.5842  0.7954
 9454TIP3   OH252556   1.413   6.206  12.466 -0.1720  0.4193 -0.1348
 9454TIP3    H152557   1.452   6.206  12.553  0.7425  2.4986 -0.4968
 9454TIP3    H252558   1.326   6.243  12.478 -0.5344 -0.4544  0.0486
 9455TIP3   OH252559   5.992   5.903  12.779  0.0338  0.2246 -0.1461
 9455TIP3    H152560   5.919   5.916  12.719 -0.5055 -1.7281  0.0160
 9455TIP3    H252561   5.959   5.931  12.864  0.2636  1.4974 -0.4671
 9456TIP3   OH252562   7.578   5.020  12.205 -0.2485 -0.1001 -0.4370
 9456TIP3    H152563   7.607   5.075  12.278  0.4554 -1.1336  0.0867
 9456TIP3    H252564   7.635   5.045  12.132 -0.7570  0.7278 -0.5638
 9457TIP3   OH252565   0.835   1.746  13.349  0.1479 -0.2000 -0.0534
 9457TIP3    H152566   0.836   1.739  13.253 -1.4275 -2.5694  0.0153
 9457TIP3    H252567   0.755   1.794  13.369  1.9669  3.0464  0.0918
 9458TIP3   OH252568   5.292   6.975  11.865  0.4249 -0.6953 -0.1319
 9458TIP3    H152569   5.278   6.884  11.891 -0.3540 -0.3113  0.8979
 9458TIP3    H252570   5.217   6.995  11.809 -0.6544 -0.0769  1.4332
 9459TIP3   OH252571   5.379   0.785  12.409  0.1080  0.0141  0.3932
 9459TIP3    H152572   5.357   0.839  12.333  1.1347  2.9820  2.0395
 9459TIP3    H252573   5.372   0.695  12.377 -0.2577  1.0823 -2.9587
 9460TIP3   OH252574   6.290   3.448  11.131  0.3119 -0.2508 -0.2728
 9460TIP3    H152575   6.293   3.513  11.061 -2.0854  0.8386  0.5172
 9460TIP3    H252576   6.239   3.376  11.094 -1.8167  0.7461  0.5816
 9461TIP3   OH252577   2.448   0.746  11.549  0.1073 -0.3461 -0.5171
 9461TIP3    H152578   2.469   0.807  11.620 -0.3755 -1.0947  0.2851
 9461TIP3    H252579   2.524   0.749  11.492  0.4631  0.3397 -0.0241
 9462TIP3   OH252580   0.685   7.500  12.219  0.5824  0.0652  0.2795
 9462TIP3    H152581   0.742   7.577  12.218  0.9076 -0.1728  0.3121
 9462TIP3    H252582   0.745   7.426  12.222  0.2726 -0.1610  1.7981
 9463TIP3   OH252583   2.083   7.029  13.210  0.0143 -0.6008 -0.0378
 9463TIP3    H152584   2.171   7.039  13.176  0.3080  1.0597  1.0757
 9463TIP3    H252585   2.038   7.110  13.186 -0.8717 -0.9556  0.3605
 9464TIP3   OH252586   7.383   5.419  11.145  0.1986 -0.0880 -0.0875
 9464TIP3    H152587   7.406   5.453  11.059 -0.5063  0.1653 -0.1839
 9464TIP3    H252588   7.334   5.338  11.127  0.7489 -0.4699  0.1026
 9465TIP3   OH252589   7.036   2.747  12.815  0.0447 -0.1188  0.5638
 9465TIP3    H152590   6.950   2.754  12.857 -1.0825  0.4210 -1.6563
 9465TIP3    H252591   7.039   2.823  12.756  1.7363 -0.5551  0.0584
 9466TIP3   OH252592   4.137   3.652  12.363 -0.4199  0.8346 -0.5686
 9466TIP3    H152593   4.119   3.746  12.374 -0.0866  1.2222 -2.7980
 9466TIP3    H252594   4.205   3.649  12.295  1.8560 -0.9344  1.6280
 9467TIP3   OH252595   1.243   6.899  12.756  0.3048  0.1914 -0.2598
 9467TIP3    H152596   1.194   6.822  12.728 -0.0869 -0.6846  2.5167
 9467TIP3    H252597   1.211   6.970  12.699 -2.4286 -0.8465 -0.1482
 9468TIP3   OH252598   3.045   3.768  11.812 -0.1517 -0.0413  0.5331
 9468TIP3    H152599   3.059   3.851  11.765  0.5009 -1.0676 -1.1671
 9468TIP3    H252600   3.104   3.706  11.769 -0.1256 -1.2513  2.2186
 9469TIP3   OH252601   6.442   3.679  11.737  0.2479  0.4725  1.1759
 9469TIP3    H152602   6.436   3.769  11.771  2.3722  0.8277  0.7250
 9469TIP3    H252603   6.493   3.632  11.802 -0.9094 -0.4602  1.4382
 9470TIP3   OH252604   4.890   4.504  12.738 -0.4838  0.1483  0.0330
 9470TIP3    H152605   4.935   4.498  12.822 -0.9927  1.2556  0.4011
 9470TIP3    H252606   4.874   4.413  12.713 -0.7196 -0.1920  1.3364
 9471TIP3   OH252607   2.826   0.078  10.805  0.1073  0.5047 -0.1580
 9471TIP3    H152608   2.801  -0.006  10.844 -1.7938  1.2344  0.2890
 9471TIP3    H252609   2.900   0.056  10.748 -2.5298 -2.1917 -2.9094
 9472TIP3   OH252610   0.867   1.710  13.080 -0.5151 -0.1771 -0.5757
 9472TIP3    H152611   0.919   1.789  13.066 -0.4676 -0.3760 -1.5978
 9472TIP3    H252612   0.862   1.669  12.994  0.2789 -1.8066  0.1168
 9473TIP3   OH252613   4.337   5.415  11.936 -0.7028 -0.0372 -0.0575
 9473TIP3    H152614   4.346   5.333  11.984 -0.1740 -0.8391 -1.4638
 9473TIP3    H252615   4.426   5.446  11.924 -0.5320 -1.3368 -2.9012
 9474TIP3   OH252616   3.113   6.340  12.821 -0.2754 -0.1254 -0.1441
 9474TIP3    H152617   3.207   6.319  12.826 -0.6630 -1.8356  0.3494
 9474TIP3    H252618   3.070   6.272  12.871 -1.7552  1.0914  0.3087
 9475TIP3   OH252619   2.595   6.075  12.407 -0.1994 -0.5739 -0.3399
 9475TIP3    H152620   2.611   6.099  12.315  0.5672 -2.4608 -0.7429
 9475TIP3    H252621   2.673   6.025  12.433 -0.3264  0.0762  1.4152
 9476TIP3   OH252622   3.771   1.557  11.663 -0.5772  0.6128  0.8249
 9476TIP3    H152623   3.818   1.474  11.667 -1.6850 -0.0146  1.2699
 9476TIP3    H252624   3.721   1.553  11.581 -0.0941  1.1555  0.4928
 9477TIP3   OH252625   1.640   0.374  12.237 -0.2277  0.0822  0.0348
 9477TIP3    H152626   1.584   0.451  12.228 -0.2732  0.0010 -0.3993
 9477TIP3    H252627   1.660   0.348  12.147 -0.0173 -0.2711  0.1809
 9478TIP3   OH252628   0.262   0.333  12.386  0.1516 -0.3284 -0.2271
 9478TIP3    H152629   0.244   0.381  12.305  3.3255 -0.5239 -1.1865
 9478TIP3    H252630   0.316   0.393  12.438 -0.0639 -1.0023  0.8043
 9479TIP3   OH252631   4.992   0.316  11.827  0.0752 -0.0532  0.5078
 9479TIP3    H152632   5.019   0.407  11.821  1.2097 -0.2879  1.6473
 9479TIP3    H252633   5.045   0.280  11.899  0.1992 -1.8004 -0.4171
 9480TIP3   OH252634   2.473   0.652  13.569  0.1907 -0.3020 -0.2741
 9480TIP3    H152635   2.380   0.661  13.590  0.5192 -0.5202  1.5151
 9480TIP3    H252636   2.494   0.730  13.519 -1.4481 -1.3974 -2.8830
 9481TIP3   OH252637   3.687   5.401  11.080 -0.4846 -0.4822 -0.2079
 9481TIP3    H152638   3.725   5.324  11.036 -2.1231 -0.9574 -0.8637
 9481TIP3    H252639   3.762   5.460  11.093  0.7981 -2.1304  0.2291
 9482TIP3   OH252640   7.570   4.836  13.923 -0.6141  0.0264  0.1364
 9482TIP3    H152641   7.634   4.802  13.986  0.9835  1.3087 -0.7228
 9482TIP3    H252642   7.558   4.927  13.947  1.6372  1.1800 -2.5325
 9483TIP3   OH252643   3.747   2.017  12.750  1.0050 -0.4865  0.3667
 9483TIP3    H152644   3.766   1.937  12.799 -1.4631 -0.7427  1.0938
 9483TIP3    H252645   3.696   1.987  12.675  2.3725  0.1909 -0.8692
 9484TIP3   OH252646   4.757   6.965  11.551  0.8316  0.0420 -0.2952
 9484TIP3    H152647   4.725   6.975  11.641  0.6533 -0.0727 -0.3465
 9484TIP3    H252648   4.693   6.909  11.508  0.6661  0.4846 -0.6312
 9485TIP3   OH252649   7.455   4.763  13.651 -0.3283 -0.1936 -0.1222
 9485TIP3    H152650   7.449   4.847  13.605 -0.6181 -0.1687 -0.0424
 9485TIP3    H252651   7.534   4.771  13.705 -0.1748 -0.0969 -0.3622
 9486TIP3   OH252652   0.246   2.879  13.648  0.3631  0.5466  0.1586
 9486TIP3    H152653   0.280   2.920  13.568  1.0974 -1.9804 -0.9268
 9486TIP3    H252654   0.222   2.790  13.621  1.3541 -0.6719  2.9039
 9487TIP3   OH252655   5.992   0.506  11.403 -0.2211  0.2836 -0.1766
 9487TIP3    H152656   6.030   0.419  11.410 -0.5195  0.0396 -1.2985
 9487TIP3    H252657   5.994   0.525  11.309 -0.0259  1.5470  0.0635
 9488TIP3   OH252658   0.193   5.479  13.591  0.1833 -0.2242 -0.5095
 9488TIP3    H152659   0.286   5.460  13.603  0.2080 -0.5588 -1.1749
 9488TIP3    H252660   0.148   5.409  13.638  0.2596  0.1661  0.1591
 9489TIP3   OH252661   7.363   4.590  11.366  0.2558 -0.2504 -0.1997
 9489TIP3    H152662   7.295   4.525  11.348 -0.8337  0.8672 -0.2668
 9489TIP3    H252663   7.395   4.616  11.280  0.0384 -0.0455 -0.2220
 9490TIP3   OH252664   6.774   5.134  12.078  0.8740  0.4100  0.0589
 9490TIP3    H152665   6.730   5.157  12.160  1.4699  0.5526  0.3461
 9490TIP3    H252666   6.716   5.166  12.009 -1.2049 -2.4457  0.3144
 9491TIP3   OH252667   0.506   0.961  13.809 -0.0561 -0.9771  0.0268
 9491TIP3    H152668   0.579   0.932  13.754 -0.3833 -2.1614  0.1921
 9491TIP3    H252669   0.542   1.032  13.862 -0.3668  2.0883 -3.4594
 9492TIP3   OH252670   1.148   3.107  12.964  0.0795 -0.1159  0.3873
 9492TIP3    H152671   1.145   3.195  13.003 -0.5328 -0.5954  1.4416
 9492TIP3    H252672   1.227   3.109  12.910  0.0569  1.0989  0.3606
 9493TIP3   OH252673   6.281   5.786  11.533  0.4276 -0.6634 -0.0833
 9493TIP3    H152674   6.356   5.814  11.481  0.5494 -2.0349 -0.6739
 9493TIP3    H252675   6.317   5.719  11.593  0.4393  1.2814  2.2498
 9494TIP3   OH252676   2.816   1.395  12.358 -0.3615  0.5113  0.2159
 9494TIP3    H152677   2.768   1.342  12.422  1.1598 -1.7091 -0.3621
 9494TIP3    H252678   2.887   1.436  12.409 -0.3709  0.4026  0.3176
 9495TIP3   OH252679   3.387   6.307  12.473 -0.4337  0.2313 -0.2423
 9495TIP3    H152680   3.359   6.382  12.419  2.2718  0.0322 -2.1855
 9495TIP3    H252681   3.349   6.231  12.430 -0.1682  0.2489 -0.5160
 9496TIP3   OH252682   4.478   0.225  13.772  0.2472  0.5920  0.3498
 9496TIP3    H152683   4.435   0.154  13.725 -1.2127  0.3426  1.9635
 9496TIP3    H252684   4.407   0.277  13.809  1.2962  2.4268 -0.0527
 9497TIP3   OH252685   7.413   5.663  13.663  0.4481 -0.3514 -0.2883
 9497TIP3    H152686   7.350   5.698  13.600  0.8158 -1.0076 -1.0368
 9497TIP3    H252687   7.359   5.620  13.729  0.0657  0.1158 -0.2942
 9498TIP3   OH252688   5.757   3.565  12.262  0.7351 -0.7018  0.3349
 9498TIP3    H152689   5.778   3.652  12.228  0.7020 -0.4066  1.0401
 9498TIP3    H252690   5.759   3.508  12.185  0.1247  0.0345 -0.2520
 9499TIP3   OH252691   0.731   6.308  11.330 -0.0027 -0.5145  0.3238
 9499TIP3    H152692   0.647   6.291  11.287 -0.3121 -1.2613  1.2064
 9499TIP3    H252693   0.712   6.303  11.423  0.0426  3.8354  0.7883
 9500TIP3   OH252694   5.894   3.168  10.986 -0.4169  0.3114  0.4976
 9500TIP3    H152695   5.819   3.225  11.002 -1.0565 -0.7748  1.5410
 9500TIP3    H252696   5.859   3.097  10.931  0.0991  0.3531  0.1129
 9501TIP3   OH252697   3.123   5.520  11.665  0.8209 -0.2685 -0.2497
 9501TIP3    H152698   3.181   5.454  11.628 -0.4577 -1.3004 -0.4584
 9501TIP3    H252699   3.105   5.580  11.593  1.9137  0.2841 -0.0824
 9502TIP3   OH252700   3.562   4.162  11.999  0.2482  0.0203 -0.4799
 9502TIP3    H152701   3.488   4.219  12.019  0.9798  0.5189  0.9118
 9502TIP3    H252702   3.637   4.220  11.993  0.5105 -0.4300 -2.2982
 9503TIP3   OH252703   3.840   4.442  13.935  0.5342  0.1865 -0.2115
 9503TIP3    H152704   3.896   4.382  13.885  0.1729  0.1123 -0.5325
 9503TIP3    H252705   3.897   4.474  14.005  1.0073  0.1724 -0.5772
 9504TIP3   OH252706   0.618   4.513  12.516  0.0613  0.3214 -0.0413
 9504TIP3    H152707   0.570   4.450  12.570 -0.1831  0.5256 -0.0136
 9504TIP3    H252708   0.688   4.545  12.573  1.5699 -1.5329 -0.7557
 9505TIP3   OH252709   1.824   7.606  12.814 -0.9524  0.0462  0.1762
 9505TIP3    H152710   1.866   7.530  12.853 -0.2475  0.0662 -0.5375
 9505TIP3    H252711   1.846   7.602  12.721 -0.5127  1.3554  0.1931
 9506TIP3   OH252712   0.724   6.563  11.504 -0.4429 -0.5208  0.4952
 9506TIP3    H152713   0.738   6.579  11.411 -1.9773 -1.8515  0.0043
 9506TIP3    H252714   0.813   6.553  11.540  0.2345  1.3270 -0.5258
 9507TIP3   OH252715   2.487   3.536  11.691  0.3062  0.0325  0.0828
 9507TIP3    H152716   2.415   3.598  11.679  0.3896  0.0409 -0.4061
 9507TIP3    H252717   2.461   3.484  11.767  0.3441  0.8134  0.6422
 9508TIP3   OH252718   1.627   0.780  12.717 -0.0992  0.4347 -0.2519
 9508TIP3    H152719   1.659   0.690  12.725 -0.9989  0.1165 -0.1599
 9508TIP3    H252720   1.570   0.793  12.792 -1.3606  0.4842 -1.1813
 9509TIP3   OH252721   0.543   2.343  11.200  0.3357 -0.1061 -0.1898
 9509TIP3    H152722   0.638   2.334  11.199  0.3556  0.0542  0.2127
 9509TIP3    H252723   0.527   2.435  11.220  0.0938 -0.1452 -0.1915
 9510TIP3   OH252724   1.763   5.540  11.189 -0.2260 -0.5063 -0.1249
 9510TIP3    H152725   1.855   5.564  11.174 -0.8469  1.3678 -1.2724
 9510TIP3    H252726   1.714   5.598  11.131 -2.1148 -1.9816 -0.0773
 9511TIP3   OH252727   4.108   0.477  11.986  0.1943 -0.3432 -0.5454
 9511TIP3    H152728   4.116   0.406  11.922 -1.2867 -1.1437  0.1254
 9511TIP3    H252729   4.192   0.477  12.032  0.0517 -2.0182 -0.2223
 9512TIP3   OH252730   3.557   1.165  11.628 -0.2462  0.2069 -0.7069
 9512TIP3    H152731   3.544   1.210  11.711 -0.1840 -1.1769  0.0792
 9512TIP3    H252732   3.474   1.176  11.581 -0.6578  0.0766 -0.0101
 9513TIP3   OH252733   6.184   1.118  11.353  0.3313  0.1843 -0.0396
 9513TIP3    H152734   6.229   1.202  11.345  0.2314  0.0912 -1.9752
 9513TIP3    H252735   6.254   1.053  11.347  0.4662  0.0901  1.9222
 9514TIP3   OH252736   5.381   0.322  12.998 -0.1383  0.3911 -0.0387
 9514TIP3    H152737   5.349   0.381  12.930 -1.1795  0.8185  0.7993
 9514TIP3    H252738   5.334   0.348  13.077 -0.0766 -1.0651  0.5170
 9515TIP3   OH252739   7.459   4.489  11.956 -0.6528  0.6115  0.3828
 9515TIP3    H152740   7.540   4.515  12.000  0.2074  0.7865 -1.2571
 9515TIP3    H252741   7.487   4.431  11.885 -2.1238 -0.7012  0.8091
 9516TIP3   OH252742   2.556   2.531  13.159 -0.1873  0.2877  0.1433
 9516TIP3    H152743   2.499   2.517  13.234 -0.9602 -0.2108 -0.5192
 9516TIP3    H252744   2.547   2.451  13.107 -0.6196  1.1215 -1.0932
 9517TIP3   OH252745   5.727   6.724  12.512 -0.1690 -0.2694 -0.3629
 9517TIP3    H152746   5.685   6.638  12.509  0.3976 -0.6252  1.0045
 9517TIP3    H252747   5.664   6.780  12.558  1.0954 -1.0339  2.5518
 9518TIP3   OH252748   6.308   6.128  13.254  0.0766 -0.1345  0.2382
 9518TIP3    H152749   6.374   6.153  13.319  1.8910 -0.2008 -1.4774
 9518TIP3    H252750   6.242   6.198  13.259  0.8848  0.5947  1.1812
 9519TIP3   OH252751   3.899   7.111  12.063 -0.4728  0.1340  0.0026
 9519TIP3    H152752   3.946   7.111  11.979 -0.9765 -0.3800 -0.2870
 9519TIP3    H252753   3.932   7.035  12.109  1.1152  1.4016  1.0400
 9520TIP3   OH252754   1.076   1.904  13.094  0.0327 -0.4784 -0.6080
 9520TIP3    H152755   1.123   1.966  13.149 -1.2006  1.6935 -1.8857
 9520TIP3    H252756   1.110   1.818  13.121  2.4805  0.7554  0.5794
 9521TIP3   OH252757   5.320   1.491  12.894  0.2789  0.9647 -0.0290
 9521TIP3    H152758   5.362   1.474  12.978  0.7588  0.7125 -0.3172
 9521TIP3    H252759   5.392   1.501  12.832 -0.0593 -1.8321 -1.0169
 9522TIP3   OH252760   3.873   6.626  12.168  0.2406  0.4092  0.0723
 9522TIP3    H152761   3.933   6.553  12.164  0.1362  0.3238  0.0631
 9522TIP3    H252762   3.800   6.595  12.222 -0.3555  0.1047 -0.8816
 9523TIP3   OH252763   1.306   6.699  13.660  0.7301  0.4565 -0.8381
 9523TIP3    H152764   1.259   6.781  13.677  0.5653  0.0650  0.7752
 9523TIP3    H252765   1.398   6.720  13.679  0.7165  0.3400 -0.6340
 9524TIP3   OH252766   6.230   1.072  11.901 -0.0774  0.8965 -0.1897
 9524TIP3    H152767   6.209   1.084  11.993  1.7662 -0.8986  0.5309
 9524TIP3    H252768   6.147   1.046  11.861 -0.2524 -1.8769  1.7098
 9525TIP3   OH252769   6.636   7.041  11.294 -0.0671  0.0285 -0.3983
 9525TIP3    H152770   6.549   7.013  11.267  0.1860 -1.4050  0.1932
 9525TIP3    H252771   6.679   6.961  11.325  0.3815  1.1818  2.2512
 9526TIP3   OH252772   6.633   2.526  12.427 -0.2968 -0.2357 -0.2273
 9526TIP3    H152773   6.725   2.542  12.404 -0.0893  1.1897  1.3915
 9526TIP3    H252774   6.629   2.541  12.521 -2.1487 -0.5765 -0.2201
 9527TIP3   OH252775   1.105   2.086  12.102  0.2744 -0.2692 -0.3425
 9527TIP3    H152776   1.178   2.023  12.100  0.2653 -0.2858 -0.1615
 9527TIP3    H252777   1.092   2.104  12.195 -0.1138 -0.4561 -0.3573
 9528TIP3   OH252778   5.970   2.480  11.300 -0.2897 -0.2288 -0.1767
 9528TIP3    H152779   5.960   2.521  11.386 -0.4500 -1.1914  0.2694
 9528TIP3    H252780   5.961   2.552  11.238 -3.1963  0.0594  0.4570
 9529TIP3   OH252781   4.699   5.401  12.532 -0.0462 -0.3947  0.0097
 9529TIP3    H152782   4.643   5.391  12.455  0.7983 -1.7107 -0.4576
 9529TIP3    H252783   4.644   5.376  12.605 -0.7544  0.5423 -0.1846
 9530TIP3   OH252784   5.101   4.583  11.610 -0.0281  0.2247 -0.2245
 9530TIP3    H152785   5.172   4.615  11.553 -0.2321 -1.0468 -1.2405
 9530TIP3    H252786   5.035   4.652  11.606 -0.3711 -0.1427 -2.1977
 9531TIP3   OH252787   5.604   5.185  12.959 -0.4427  0.1417 -0.7108
 9531TIP3    H152788   5.685   5.234  12.945  1.3064 -2.2161  0.5708
 9531TIP3    H252789   5.568   5.175  12.871  1.5722 -0.2068 -1.5572
 9532TIP3   OH252790   5.793   7.417  11.065  0.3940 -0.3090 -0.4727
 9532TIP3    H152791   5.787   7.434  11.159 -0.2315  0.5847 -0.6628
 9532TIP3    H252792   5.886   7.409  11.048  0.4789 -1.3026  0.3581
 9533TIP3   OH252793   0.897   1.413  12.184 -0.1171 -0.3678 -0.4092
 9533TIP3    H152794   0.933   1.325  12.193  0.2154 -0.0026  3.1222
 9533TIP3    H252795   0.974   1.469  12.171 -0.3203 -0.4877 -2.5424
 9534TIP3   OH252796   0.457   1.404  11.803  0.1702  0.4089  0.0480
 9534TIP3    H152797   0.371   1.433  11.772  0.5440  1.2264 -0.2569
 9534TIP3    H252798   0.460   1.310  11.781 -1.3836 -0.1088  1.8034
 9535TIP3   OH252799   2.748   5.138  13.686  0.3380  0.4860 -0.3943
 9535TIP3    H152800   2.824   5.128  13.629  1.3809  1.1515  0.8243
 9535TIP3    H252801   2.766   5.081  13.761 -0.7337  0.0672 -0.4410
 9536TIP3   OH252802   6.089   3.806  11.578  0.0454  0.7189  0.5314
 9536TIP3    H152803   5.999   3.813  11.609 -0.0440 -0.0865  0.4664
 9536TIP3    H252804   6.142   3.806  11.658  0.0354  1.6622  0.5561
 9537TIP3   OH252805   2.299   7.090  13.029  0.2675 -0.3207 -0.6560
 9537TIP3    H152806   2.325   7.182  13.020  0.8639 -0.2413  1.4733
 9537TIP3    H252807   2.226   7.081  12.968  0.8138  1.3065 -1.6232
 9538TIP3   OH252808   7.288   3.163  12.536  0.6484 -0.0264 -0.2013
 9538TIP3    H152809   7.362   3.224  12.528  0.6759  0.1006  0.8284
 9538TIP3    H252810   7.257   3.176  12.625 -0.6088 -0.1121 -0.6162
 9539TIP3   OH252811   2.346   7.345  13.767  0.3260  0.1892  0.4699
 9539TIP3    H152812   2.334   7.362  13.860  1.4620  0.7023  0.5394
 9539TIP3    H252813   2.376   7.428  13.731  0.6475 -0.2090 -0.2088
 9540TIP3   OH252814   6.490   2.578  12.119 -0.6340  0.0953 -0.2507
 9540TIP3    H152815   6.473   2.603  12.209 -1.8386 -0.4248 -0.3126
 9540TIP3    H252816   6.584   2.558  12.116 -0.7565 -0.7955  1.1086
 9541TIP3   OH252817   2.203   7.342  12.727 -0.1472  0.1796  0.3569
 9541TIP3    H152818   2.204   7.419  12.784  1.9493  1.0522 -0.7421
 9541TIP3    H252819   2.293   7.333  12.697 -0.5796 -2.0319 -0.4852
 9542TIP3   OH252820   0.418   4.903  12.569  0.7355 -0.1737 -0.2138
 9542TIP3    H152821   0.452   4.992  12.558  0.7600 -0.1913 -0.2854
 9542TIP3    H252822   0.478   4.862  12.631 -0.0939  0.2992  0.9268
 9543TIP3   OH252823   5.560   0.044  12.140 -0.4760  0.5557 -0.3414
 9543TIP3    H152824   5.553   0.134  12.110 -0.2645  1.4690  2.1232
 9543TIP3    H252825   5.488   0.033  12.202  1.2276  0.0409  1.6620
 9544TIP3   OH252826   5.611   0.662  11.257  0.3194 -0.6852  0.5443
 9544TIP3    H152827   5.633   0.619  11.340 -0.2841 -0.3818  0.8645
 9544TIP3    H252828   5.649   0.605  11.190 -0.6709 -1.8498  0.9506
 9545TIP3   OH252829   6.675   5.078  11.635 -0.0785  0.0172  0.1642
 9545TIP3    H152830   6.642   4.988  11.638  0.5338 -0.2787 -1.1742
 9545TIP3    H252831   6.695   5.099  11.726 -0.2039 -1.2213  0.4975
 9546TIP3   OH252832   4.743   2.029  11.597 -0.3384  0.4360 -0.1024
 9546TIP3    H152833   4.813   2.000  11.538 -0.1389  1.8137 -0.5970
 9546TIP3    H252834   4.668   2.043  11.540 -0.2960  1.2811  0.0341
 9547TIP3   OH252835   3.912   0.374  12.475 -0.8105 -0.2556  0.3987
 9547TIP3    H152836   3.861   0.364  12.394  0.0788 -1.1562 -0.0731
 9547TIP3    H252837   3.877   0.453  12.515 -2.7321 -0.9487  0.2071
 9548TIP3   OH252838   0.132   4.404  10.777  0.3175  0.4078 -0.4749
 9548TIP3    H152839   0.110   4.458  10.853 -1.1602  0.2645 -0.7684
 9548TIP3    H252840   0.181   4.331  10.813 -1.2305 -0.1926  0.5270
 9549TIP3   OH252841   3.881   7.091  11.461  0.2582 -0.2139 -0.0374
 9549TIP3    H152842   3.862   7.002  11.489  1.7166 -0.0431  1.7136
 9549TIP3    H252843   3.965   7.084  11.416  0.3255  0.2443  0.0152
 9550TIP3   OH252844   3.634   3.308  11.890  0.3034 -0.2257  0.4083
 9550TIP3    H152845   3.726   3.320  11.864 -0.3887 -0.1716 -2.3432
 9550TIP3    H252846   3.594   3.262  11.816 -0.7016 -5.7606  3.8145
 9551TIP3   OH252847   4.209   4.559  11.559  0.1224  0.0349 -0.2359
 9551TIP3    H152848   4.225   4.605  11.641 -2.1859  0.2417  0.1664
 9551TIP3    H252849   4.296   4.535  11.527  1.0749 -0.1472  2.3047
 9552TIP3   OH252850   3.366   5.475  12.093  0.7197 -0.4427 -0.0812
 9552TIP3    H152851   3.339   5.567  12.090  1.5744 -0.1560  0.6659
 9552TIP3    H252852   3.431   5.467  12.024 -0.8710 -1.0337 -1.5981
 9553TIP3   OH252853   2.909   6.172  11.187  0.4257 -0.2380  0.3274
 9553TIP3    H152854   2.850   6.237  11.224  1.1752  0.3115  0.5851
 9553TIP3    H252855   2.905   6.097  11.246  0.7094  0.1725  0.8731
 9554TIP3   OH252856   4.764   5.553  11.558 -0.1686  0.2853 -0.6262
 9554TIP3    H152857   4.686   5.608  11.552  0.2856  1.2172  1.3287
 9554TIP3    H252858   4.738   5.470  11.516 -1.5599  1.2226 -1.7048
 9555TIP3   OH252859   1.139   6.041  12.733 -0.9792  0.0410  0.1937
 9555TIP3    H152860   1.066   6.047  12.794 -0.9748  0.9293  0.1267
 9555TIP3    H252861   1.099   6.049  12.647 -0.7208  1.8866  0.1856
 9556TIP3   OH252862   1.671   7.494  13.166  0.1945  0.2297  0.0964
 9556TIP3    H152863   1.577   7.508  13.158  0.1568 -0.5980 -1.1837
 9556TIP3    H252864   1.680   7.429  13.235 -0.2744 -0.6060 -0.6116
 9557TIP3   OH252865   6.758   4.346  10.635 -0.6986  0.3537 -0.1733
 9557TIP3    H152866   6.771   4.412  10.567  2.3673  0.8629  0.7340
 9557TIP3    H252867   6.841   4.299  10.639 -1.2085 -0.4982  2.3305
 9558TIP3   OH252868   3.316   5.325  13.411  0.7136  0.3101  0.2392
 9558TIP3    H152869   3.388   5.277  13.372  0.3378 -2.1699  2.2818
 9558TIP3    H252870   3.251   5.332  13.341  1.2629 -1.2107 -0.4788
 9559TIP3   OH252871   4.783   6.678  11.042 -0.0029  0.4899 -0.2777
 9559TIP3    H152872   4.859   6.621  11.052  0.5246  0.8028 -2.0995
 9559TIP3    H252873   4.711   6.630  11.084  0.8859 -0.4544  0.2145
 9560TIP3   OH252874   4.938   0.268  11.563  0.0871  0.1293 -0.4489
 9560TIP3    H152875   4.973   0.341  11.512 -2.5990  1.6570 -0.2676
 9560TIP3    H252876   4.976   0.279  11.650 -0.9695  1.9298 -0.1676
 9561TIP3   OH252877   1.883   5.599  10.760 -0.1681 -0.2836  0.1112
 9561TIP3    H152878   1.922   5.522  10.719 -1.3377 -0.2245 -1.1836
 9561TIP3    H252879   1.806   5.565  10.806  0.3918 -0.1513  1.1661
 9562TIP3   OH252880   0.442   0.863  13.101  0.3392 -0.0298 -0.1115
 9562TIP3    H152881   0.450   0.897  13.190  1.2903 -1.3017  0.3249
 9562TIP3    H252882   0.394   0.930  13.053 -1.7814 -0.0979  1.7751
 9563TIP3   OH252883   2.637   0.802  11.322 -0.0825 -0.4108 -0.2863
 9563TIP3    H152884   2.665   0.819  11.232 -0.3410  0.6426 -0.1785
 9563TIP3    H252885   2.556   0.752  11.313 -0.5660  0.4242 -0.6612
 9564TIP3   OH252886   5.741   7.283  12.487 -0.1888  0.1132  0.7635
 9564TIP3    H152887   5.697   7.228  12.422 -0.0995 -1.7285  2.1760
 9564TIP3    H252888   5.834   7.260  12.478 -0.0508  0.6259  0.8481
 9565TIP3   OH252889   0.904   5.475  13.400 -0.0521  0.7658 -0.0751
 9565TIP3    H152890   0.993   5.511  13.396  1.3243 -2.3782 -0.3947
 9565TIP3    H252891   0.861   5.512  13.322  1.0682  2.0069 -0.1549
 9566TIP3   OH252892   2.277   1.404  12.540  0.3911 -0.2199  0.4072
 9566TIP3    H152893   2.373   1.405  12.548  0.3679  0.0837  0.6318
 9566TIP3    H252894   2.257   1.482  12.489  0.3324 -0.7726 -0.4608
 9567TIP3   OH252895   3.367   0.599  11.935  0.3600 -0.1939  0.1840
 9567TIP3    H152896   3.406   0.687  11.934  0.7037 -0.3420 -1.1250
 9567TIP3    H252897   3.276   0.614  11.963  0.2560  0.6597 -0.5446
 9568TIP3   OH252898   2.264   6.288  13.339  0.0839 -0.3282 -0.0786
 9568TIP3    H152899   2.213   6.333  13.272 -0.6705 -1.5894 -0.3804
 9568TIP3    H252900   2.225   6.200  13.345 -0.0036 -0.2088  2.1365
 9569TIP3   OH252901   0.768   4.291  12.299  0.3564 -0.1973  0.0234
 9569TIP3    H152902   0.851   4.311  12.256  0.3412  0.0975  0.1263
 9569TIP3    H252903   0.728   4.377  12.314 -0.8368 -0.4037 -1.7127
 9570TIP3   OH252904   5.201   6.757  13.701 -0.0267 -0.7774 -0.3921
 9570TIP3    H152905   5.183   6.851  13.702 -0.8304 -0.9220  0.5775
 9570TIP3    H252906   5.272   6.747  13.638 -2.2709  0.0391 -3.2781
 9571TIP3   OH252907   3.947   6.903  12.239 -0.0169  0.2019  0.6988
 9571TIP3    H152908   4.042   6.901  12.229 -0.1888 -1.3550 -1.2557
 9571TIP3    H252909   3.920   6.811  12.230 -1.5812  0.3311  3.1877
 9572TIP3   OH252910   0.424   5.903  10.710  0.7366  0.0227  0.0302
 9572TIP3    H152911   0.334   5.881  10.734  0.3927 -2.3290 -2.7789
 9572TIP3    H252912   0.416   5.940  10.622  2.4926  0.5901  0.0809
 9573TIP3   OH252913   2.140   2.487  10.972  0.3116 -0.0772 -0.3506
 9573TIP3    H152914   2.068   2.546  10.951  0.2018 -0.9210 -2.5793
 9573TIP3    H252915   2.185   2.473  10.889  2.2939 -0.5954  0.7390
 9574TIP3   OH252916   0.085   3.707  12.164 -0.1466 -0.1892 -0.6826
 9574TIP3    H152917   0.077   3.618  12.131 -2.2621  0.1612 -1.2854
 9574TIP3    H252918  -0.004   3.731  12.190  0.4850  1.5262  0.0606
 9575TIP3   OH252919   4.066   6.263  11.918 -0.5076  0.0455  0.0183
 9575TIP3    H152920   4.150   6.221  11.937  0.3480  1.7636  0.3118
 9575TIP3    H252921   4.021   6.265  12.003  0.6179  2.0378  0.6621
 9576TIP3   OH252922   3.098   0.254  10.688  0.3512  0.3221 -0.3368
 9576TIP3    H152923   3.069   0.300  10.767 -2.0509  0.0794 -1.0110
 9576TIP3    H252924   3.123   0.324  10.627  1.9642  0.5147  0.4883
 9577TIP3   OH252925   2.954   5.024  12.267  0.1172 -0.0378  0.3341
 9577TIP3    H152926   3.007   5.096  12.299 -0.2239  0.5360 -0.3656
 9577TIP3    H252927   3.017   4.962  12.230  0.3389  0.4909 -0.1956
 9578TIP3   OH252928   1.654   2.443  11.503 -0.5135 -0.0710 -0.3427
 9578TIP3    H152929   1.590   2.419  11.570 -1.4282  1.6483 -0.5371
 9578TIP3    H252930   1.634   2.535  11.483  1.0557  0.0566 -1.5022
 9579TIP3   OH252931   3.393   2.141  12.217  0.1442 -0.5652  0.0293
 9579TIP3    H152932   3.373   2.155  12.309  1.2985 -1.4123  0.4318
 9579TIP3    H252933   3.308   2.140  12.173 -0.4116 -0.1529  1.0745
 9580TIP3   OH252934   2.884   6.818  10.990  0.3231  0.0020  0.1047
 9580TIP3    H152935   2.890   6.837  10.897  0.0108  2.0911  0.4629
 9580TIP3    H252936   2.901   6.902  11.033 -0.6334 -0.6631  1.8960
 9581TIP3   OH252937   7.308   3.964  13.066 -0.1206 -0.1370 -0.9781
 9581TIP3    H152938   7.286   4.056  13.080  0.3640 -0.3562  1.6407
 9581TIP3    H252939   7.231   3.916  13.096 -0.2586 -0.6286 -2.0650
 9582TIP3   OH252940   4.919   4.256  12.290  0.4799  0.2082 -0.0330
 9582TIP3    H152941   4.898   4.168  12.321 -0.5352  1.1802  2.2393
 9582TIP3    H252942   4.890   4.257  12.198 -1.6492 -1.1517  0.5483
 9583TIP3   OH252943   7.267   0.859  12.189 -0.1769  0.0736  0.6423
 9583TIP3    H152944   7.269   0.817  12.276 -0.3910 -0.7881  0.2452
 9583TIP3    H252945   7.174   0.873  12.172 -0.1980 -0.5347  0.2037
 9584TIP3   OH252946   5.076   5.812  12.828 -0.0048  0.0069 -0.2261
 9584TIP3    H152947   5.036   5.839  12.746 -0.7483  1.1107  0.4703
 9584TIP3    H252948   5.103   5.894  12.870  0.5344 -0.5474  0.5498
 9585TIP3   OH252949   5.092   1.126  11.718 -0.3931  0.0275  0.1359
 9585TIP3    H152950   5.162   1.145  11.656 -0.3006 -0.6793  0.0066
 9585TIP3    H252951   5.095   1.197  11.782 -0.4555  0.7433 -0.6368
 9586TIP3   OH252952   5.522   3.692  11.103  0.1196  0.4325 -0.6048
 9586TIP3    H152953   5.605   3.658  11.138 -0.4067 -0.6415 -0.3608
 9586TIP3    H252954   5.530   3.787  11.110  1.0660  0.3204  0.0296
 9587TIP3   OH252955   1.440   5.657  12.629  0.1078 -0.3502 -0.1278
 9587TIP3    H152956   1.388   5.707  12.692 -1.3966 -1.5026 -0.4063
 9587TIP3    H252957   1.422   5.699  12.544 -1.2386 -1.3450 -0.3783
 9588TIP3   OH252958   1.980   4.132  10.740  0.3359  0.9090  0.0297
 9588TIP3    H152959   2.010   4.112  10.829  0.7508 -0.3924 -0.3911
 9588TIP3    H252960   1.886   4.118  10.743  0.6501 -1.8101 -0.3769
 9589TIP3   OH252961   6.366   3.588  13.661  0.3031  0.0677 -0.3746
 9589TIP3    H152962   6.318   3.548  13.588  0.8334  1.2608 -1.4178
 9589TIP3    H252963   6.419   3.657  13.620  0.4774  0.8999  1.1743
 9590TIP3   OH252964   4.682   7.493  12.908 -1.0603  0.5055 -0.5657
 9590TIP3    H152965   4.734   7.557  12.956 -0.1406 -0.4127 -0.2957
 9590TIP3    H252966   4.728   7.483  12.824  0.2613 -1.5585  0.3130
 9591TIP3   OH252967   6.198   7.270  13.094  0.6724  0.0389 -1.0067
 9591TIP3    H152968   6.190   7.190  13.146 -3.8351  1.5092  1.1724
 9591TIP3    H252969   6.128   7.263  13.029 -0.4016  2.4191 -0.2266
 9592TIP3   OH252970   2.822   6.427  12.219  0.0254 -0.0586  0.2980
 9592TIP3    H152971   2.741   6.379  12.237  1.0154 -2.1957 -0.5491
 9592TIP3    H252972   2.847   6.466  12.303 -0.1564 -2.1677  1.3975
 9593TIP3   OH252973   2.224   4.260  12.589 -0.0928 -0.1135 -0.0591
 9593TIP3    H152974   2.213   4.340  12.641  1.8453 -1.0412  1.9491
 9593TIP3    H252975   2.309   4.225  12.617 -0.4128 -2.3468 -1.6367
 9594TIP3   OH252976   3.315   2.922  11.065  0.5358 -0.0122 -0.3343
 9594TIP3    H152977   3.391   2.979  11.074  1.2460 -0.7183 -1.6132
 9594TIP3    H252978   3.348   2.834  11.082  0.0143 -0.3234 -0.8683
 9595TIP3   OH252979   1.214   6.776  12.299 -0.0712  0.2618  0.1231
 9595TIP3    H152980   1.282   6.745  12.240 -0.0689  1.1599 -0.3553
 9595TIP3    H252981   1.262   6.820  12.369 -0.1422  0.6846 -0.0904
 9596TIP3   OH252982   6.746   2.496  11.999  0.2126  0.1964 -0.2660
 9596TIP3    H152983   6.766   2.589  12.000 -1.9591  0.7458 -1.6479
 9596TIP3    H252984   6.757   2.470  11.908  1.6952 -1.1694  0.2517
 9597TIP3   OH252985   6.376   1.881  12.661 -0.0452  0.1487 -0.6605
 9597TIP3    H152986   6.410   1.970  12.654  2.5275 -0.7142 -0.1453
 9597TIP3    H252987   6.353   1.871  12.754 -0.4136  0.2699 -0.7339
 9598TIP3   OH252988   5.424   0.842  11.508  0.3623  0.2388 -0.4558
 9598TIP3    H152989   5.446   0.934  11.490 -1.0095  0.7178  0.1647
 9598TIP3    H252990   5.451   0.795  11.429  0.2412  1.3207 -1.1646
 9599TIP3   OH252991   2.430   1.875  13.631 -0.1562 -0.0473  0.1750
 9599TIP3    H152992   2.427   1.783  13.607  0.6741 -0.2476  0.7840
 9599TIP3    H252993   2.509   1.908  13.588  1.2665 -0.3748  2.4037
 9600TIP3   OH252994   6.010   2.489  11.895  0.0659 -0.0236  0.4397
 9600TIP3    H152995   6.038   2.401  11.921 -0.5182 -0.3166  0.1035
 9600TIP3    H252996   5.920   2.477  11.865 -0.5282  0.9255  1.7176
 9601TIP3   OH252997   7.183   4.425  11.121  0.5827  0.3796  0.2221
 9601TIP3    H152998   7.131   4.476  11.183  0.8182 -0.2812  0.9696
 9601TIP3    H252999   7.229   4.361  11.174 -1.0018 -1.7718 -0.8286
 9602TIP3   OH253000   0.888   0.464  11.755  0.7482 -0.0827  0.5090
 9602TIP3    H153001   0.844   0.409  11.690 -0.3784  2.7361 -1.3271
 9602TIP3    H253002   0.823   0.477  11.823 -0.3294  1.6560 -0.7563
 9603TIP3   OH253003   2.111   1.671  11.863  1.0317  0.3368  0.1705
 9603TIP3    H153004   2.174   1.712  11.923  0.1826  0.3557  1.0650
 9603TIP3    H253005   2.060   1.613  11.918 -1.1365  1.8702 -0.1248
 9604TIP3   OH253006   2.679   6.967  13.147  0.0318  0.6381 -0.0198
 9604TIP3    H153007   2.609   6.910  13.115  0.5149 -0.3991  0.7186
 9604TIP3    H253008   2.756   6.942  13.095 -0.1582  1.8897 -0.9473
 9605TIP3   OH253009   1.375   2.682  11.183 -0.5773  0.2782 -0.4200
 9605TIP3    H153010   1.430   2.637  11.120 -0.2914  0.7232 -0.4887
 9605TIP3    H253011   1.350   2.614  11.246 -0.0357  0.0545 -0.4438
 9606TIP3   OH253012   2.715   5.588  12.925  0.1531  0.1217 -0.6324
 9606TIP3    H153013   2.652   5.548  12.985  0.6008 -2.1576 -1.5723
 9606TIP3    H253014   2.667   5.595  12.842 -0.2361  2.5962 -0.2806
 9607TIP3   OH253015   7.513   5.910  12.729 -0.1836 -0.4737  0.2155
 9607TIP3    H153016   7.549   5.980  12.675 -2.5075  1.5544  1.1403
 9607TIP3    H253017   7.429   5.889  12.690  0.0936 -2.2304  0.4565
 9608TIP3   OH253018   6.968   5.749  11.394 -0.3881  0.3713  0.1215
 9608TIP3    H153019   6.879   5.715  11.405 -0.7722  1.4443  0.4778
 9608TIP3    H253020   7.012   5.728  11.477 -0.6592  0.8067  0.3858
 9609TIP3   OH253021   6.155   0.083  12.115 -0.5087 -0.0673 -0.0511
 9609TIP3    H153022   6.202   0.003  12.137 -1.6849 -1.0279 -0.8898
 9609TIP3    H253023   6.087   0.055  12.054 -0.3165  1.7276 -1.1889
 9610TIP3   OH253024   4.015   1.915  12.670  0.6870  0.6692 -0.4238
 9610TIP3    H153025   3.991   1.822  12.673  1.6198  0.4438  1.5899
 9610TIP3    H253026   3.939   1.960  12.707  1.4228  0.3884  1.5158
 9611TIP3   OH253027   1.030   1.064  12.934  0.1181 -0.2980 -0.4283
 9611TIP3    H153028   1.069   1.140  12.977  0.4643  0.2380 -1.6432
 9611TIP3    H253029   1.087   0.991  12.957  0.0736 -0.1064  0.3236
 9612TIP3   OH253030   3.379   3.044  12.622  0.3526 -0.1322  0.5983
 9612TIP3    H153031   3.284   3.048  12.615  0.2727 -1.5491  0.6869
 9612TIP3    H253032   3.396   3.029  12.715  0.8516  3.7751  1.3029
 9613TIP3   OH253033   3.428   3.615  12.945 -0.4343 -0.2460 -0.1557
 9613TIP3    H153034   3.492   3.675  12.984 -0.1425 -1.0346  0.6318
 9613TIP3    H253035   3.478   3.535  12.928 -0.6093  0.0029 -2.0074
 9614TIP3   OH253036   4.284   0.073  13.609  0.0621  0.0701 -0.0229
 9614TIP3    H153037   4.230   0.132  13.556  0.7785  1.2785  0.5508
 9614TIP3    H253038   4.245  -0.014  13.595 -1.7032  0.8148 -0.0325
 9615TIP3   OH253039   1.579   6.307  12.654 -0.2540 -0.2762  0.3201
 9615TIP3    H153040   1.672   6.292  12.663  0.3052  1.6426 -1.3485
 9615TIP3    H253041   1.542   6.283  12.739  1.7869 -0.7373  1.1379
 9616TIP3   OH253042   0.280   4.177  10.846  0.3329  0.5087 -0.4541
 9616TIP3    H153043   0.357   4.147  10.797  0.0711 -0.8866 -0.0302
 9616TIP3    H253044   0.214   4.109  10.832  0.1793  0.1605  1.6468
 9617TIP3   OH253045   6.212   2.658  12.087  0.1946  0.4571  0.0062
 9617TIP3    H153046   6.176   2.574  12.058 -0.2975  0.0487  1.7194
 9617TIP3    H253047   6.307   2.648  12.075  0.0656  0.0942 -0.8297
 9618TIP3   OH253048   1.118   5.348  10.848  0.2925  0.0559  0.1011
 9618TIP3    H153049   1.062   5.365  10.925  0.4254 -1.7409  0.6430
 9618TIP3    H253050   1.120   5.252  10.841 -1.3039  0.1275 -3.3281
 9619TIP3   OH253051   3.867   2.933  10.889 -0.4829  0.6641 -0.3399
 9619TIP3    H153052   3.846   3.000  10.824 -0.4703 -0.6876 -1.7847
 9619TIP3    H253053   3.876   2.982  10.971 -0.2320  2.4560 -1.3783
 9620TIP3   OH253054   0.543   6.079  11.411  0.1532  0.3156  0.0530
 9620TIP3    H153055   0.519   6.162  11.453 -2.0174 -0.1049 -0.2433
 9620TIP3    H253056   0.466   6.056  11.359  2.5394  0.7166 -4.0831
 9621TIP3   OH253057   7.608   4.805  11.893  0.2185 -0.1058 -1.4326
 9621TIP3    H153058   7.691   4.830  11.933 -0.6838  0.6932  0.0131
 9621TIP3    H253059   7.576   4.732  11.946 -2.1422  2.4629  1.0455
 9622TIP3   OH253060   7.568   3.194  13.248  0.2453 -0.1227 -0.1616
 9622TIP3    H153061   7.552   3.240  13.330 -0.4575  0.0940 -0.4083
 9622TIP3    H253062   7.663   3.187  13.242  0.2817 -1.1783  1.2332
 9623TIP3   OH253063   4.792   5.199  12.133  0.0778 -0.0073  0.2201
 9623TIP3    H153064   4.871   5.145  12.131 -0.2739 -0.5083 -1.5643
 9623TIP3    H253065   4.721   5.137  12.118 -0.6183  0.5245  1.2320
 9624TIP3   OH253066   0.723   1.940  11.166  0.3591 -0.1752 -0.0024
 9624TIP3    H153067   0.722   1.868  11.104  1.2422 -0.3723  0.2012
 9624TIP3    H253068   0.662   2.005  11.129 -1.6167 -1.6224  0.5594
 9625TIP3   OH253069   3.900   4.146  13.099  0.6520  0.0827  0.2917
 9625TIP3    H153070   3.812   4.160  13.062 -0.6517 -2.4764  2.1179
 9625TIP3    H253071   3.884   4.133  13.193  2.7712 -2.0531  0.4424
 9626TIP3   OH253072   2.016   6.043  12.152 -0.1410  0.1584  0.4352
 9626TIP3    H153073   2.012   5.977  12.083  0.2447 -0.9651  1.4475
 9626TIP3    H253074   2.031   6.125  12.106 -0.3721 -0.4923 -0.8443
 9627TIP3   OH253075   1.466   0.419  11.441  0.4928  0.2454 -0.0752
 9627TIP3    H153076   1.423   0.473  11.375 -1.6688 -2.5150 -1.1186
 9627TIP3    H253077   1.395   0.391  11.499  0.7991 -3.7829 -1.3273
 9628TIP3   OH253078   3.727   4.989  11.763 -0.4114  0.2595 -0.2894
 9628TIP3    H153079   3.673   5.045  11.706 -0.7504  0.4424  0.2055
 9628TIP3    H253080   3.664   4.952  11.825  0.3629  2.5620  2.0291
 9629TIP3   OH253081   5.342   4.185  12.602 -0.0981  0.0495 -0.0694
 9629TIP3    H153082   5.357   4.276  12.576  1.9102 -0.0966  0.4334
 9629TIP3    H253083   5.372   4.133  12.527  1.7669 -0.2551  0.8505
 9630TIP3   OH253084   4.462   7.679  12.905  0.3396 -0.6693 -0.2566
 9630TIP3    H153085   4.388   7.635  12.946  1.3350 -1.1233  1.1629
 9630TIP3    H253086   4.518   7.609  12.872  1.9597 -0.6207  2.0626
 9631TIP3   OH253087   1.701   1.790  11.962 -0.4068 -0.2416  0.4279
 9631TIP3    H153088   1.768   1.811  12.027  1.3497  0.8401 -1.5811
 9631TIP3    H253089   1.663   1.875  11.939  1.3512 -0.0537 -2.2457
 9632TIP3   OH253090   3.405   3.485  13.675  0.6685  0.6946 -0.3724
 9632TIP3    H153091   3.408   3.444  13.589  0.0900  0.9557 -0.5184
 9632TIP3    H253092   3.313   3.502  13.691  0.8206  1.1526  0.0611
 9633TIP3   OH253093   0.598   1.973  10.830  0.1973  0.6249 -0.2905
 9633TIP3    H153094   0.559   2.016  10.906 -1.1567  0.5720 -0.9391
 9633TIP3    H253095   0.652   1.903  10.867 -0.9893  0.1650  0.5978
 9634TIP3   OH253096   6.654   3.044  12.529 -0.0763 -0.1009  0.3781
 9634TIP3    H153097   6.710   3.083  12.597 -1.1319  1.2663  0.5019
 9634TIP3    H253098   6.679   2.952  12.528  0.6177  0.0348  1.9764
 9635TIP3   OH253099   2.715   3.733  13.370  0.6087 -0.1450  0.1200
 9635TIP3    H153100   2.796   3.686  13.391  0.3667  0.1253  1.7925
 9635TIP3    H253101   2.731   3.823  13.397  0.1957  0.2027 -0.7532
 9636TIP3   OH253102   2.099   6.034  10.886 -0.0067 -0.9260  0.0129
 9636TIP3    H153103   2.036   6.061  10.820  0.9272 -1.9576 -1.3500
 9636TIP3    H253104   2.048   6.030  10.967 -1.1504  0.4796 -0.5832
 9637TIP3   OH253105   0.806   6.025  12.077  0.0820  0.4476 -0.3658
 9637TIP3    H153106   0.787   6.113  12.112  0.6123 -0.0937  1.3655
 9637TIP3    H253107   0.842   6.041  11.990  2.2368  2.1112  0.7435
 9638TIP3   OH253108   3.793   0.523  13.298 -0.4701  0.1851 -0.5493
 9638TIP3    H153109   3.815   0.441  13.254 -0.5278 -1.2552  1.8980
 9638TIP3    H253110   3.726   0.563  13.242 -1.0053 -1.8324 -1.4545
 9639TIP3   OH253111   4.269   0.704  11.446 -0.6070  0.1932 -0.0392
 9639TIP3    H153112   4.238   0.765  11.380  0.1764  0.3499 -0.2733
 9639TIP3    H253113   4.320   0.757  11.506  1.4185 -0.4365 -1.1134
 9640TIP3   OH253114   4.756   0.338  12.171  0.0115  1.0987 -0.2080
 9640TIP3    H153115   4.666   0.363  12.191  0.0738  1.5761 -0.4986
 9640TIP3    H253116   4.755   0.316  12.078  0.2164  1.2162 -0.2396
 9641TIP3   OH253117   1.248   2.346  13.119 -0.2155  0.1205 -0.4635
 9641TIP3    H153118   1.339   2.318  13.111 -0.1088  0.6761 -1.3847
 9641TIP3    H253119   1.220   2.362  13.029 -0.8539  1.1106 -0.1021
 9642TIP3   OH253120   5.243   4.916  12.981 -0.0333  0.2113  0.3770
 9642TIP3    H153121   5.266   4.966  12.903  1.5534  0.8048  1.1733
 9642TIP3    H253122   5.327   4.884  13.015 -0.4871  1.1642  2.6157
 9643TIP3   OH253123   3.049   0.440  12.539  0.4548  0.7315 -0.0990
 9643TIP3    H153124   3.104   0.442  12.618  2.6682  2.1828 -1.5447
 9643TIP3    H253125   3.110   0.416  12.469 -1.3689 -0.1620 -1.4470
 9644TIP3   OH253126   3.929   7.299  11.644  0.3153 -0.3631 -0.3509
 9644TIP3    H153127   3.852   7.330  11.692  1.1686  1.3417 -0.0375
 9644TIP3    H253128   3.897   7.221  11.598 -1.4598 -0.0146  0.1835
 9645TIP3   OH253129   7.290   2.849  12.432  0.0650  0.1510 -0.0794
 9645TIP3    H153130   7.268   2.918  12.370  2.0872 -0.4417 -1.5535
 9645TIP3    H253131   7.235   2.775  12.407 -0.9754  0.6968  0.5172
 9646TIP3   OH253132   3.328   0.770  13.050  0.1726  0.5326  0.1679
 9646TIP3    H153133   3.402   0.719  13.083 -0.5803 -0.5977  0.1466
 9646TIP3    H253134   3.273   0.784  13.127 -1.1703 -1.3931 -0.3723
 9647TIP3   OH253135   3.589   1.644  11.892  0.0776 -0.0490  0.0729
 9647TIP3    H153136   3.655   1.599  11.840 -1.0191 -0.3988 -1.0596
 9647TIP3    H253137   3.537   1.693  11.828 -0.3571  0.7497  1.0048
 9648TIP3   OH253138   5.797   1.773  11.695 -0.1064 -0.4474 -0.3012
 9648TIP3    H153139   5.795   1.677  11.694 -0.4414 -0.5293  2.1867
 9648TIP3    H253140   5.727   1.799  11.635  0.2387 -1.7229 -1.3007
 9649TIP3   OH253141   5.718   5.282  12.681 -0.5412  0.3646 -0.1071
 9649TIP3    H153142   5.765   5.277  12.764  0.3434 -0.9276 -0.6585
 9649TIP3    H253143   5.717   5.375  12.660 -1.8552  0.8860  1.9209
 9650TIP3   OH253144   5.730   0.749  12.573 -0.4531 -0.6149 -0.1433
 9650TIP3    H153145   5.820   0.759  12.606 -0.8061 -0.3713  0.7605
 9650TIP3    H253146   5.740   0.692  12.496  0.4543 -0.7646  0.0661
 9651TIP3   OH253147   1.379   7.480  13.155 -0.2013 -0.5971  0.0613
 9651TIP3    H153148   1.322   7.556  13.146  1.3277  0.3346 -4.3289
 9651TIP3    H253149   1.335   7.411  13.106  2.2626  0.2512 -3.7593
 9652TIP3   OH253150   2.362   2.596  11.096 -0.3595  0.1166  0.2644
 9652TIP3    H153151   2.418   2.561  11.027 -0.4214  0.9101 -0.1996
 9652TIP3    H253152   2.275   2.598  11.058 -0.5509 -0.2757  0.6750
 9653TIP3   OH253153   3.891   0.725  11.831  0.3139 -0.2652  0.0201
 9653TIP3    H153154   3.929   0.669  11.899 -2.5282 -0.6633  1.4020
 9653TIP3    H253155   3.903   0.814  11.865 -0.2596 -0.4050  0.6000
 9654TIP3   OH253156   4.503   0.618  12.461  0.4020 -0.1260  0.2384
 9654TIP3    H153157   4.451   0.583  12.389  1.4395  0.9188 -1.0568
 9654TIP3    H253158   4.440   0.669  12.513 -0.0958  0.2197 -0.6885
 9655TIP3   OH253159   3.336   2.643  12.731 -0.2060  0.1501  0.2394
 9655TIP3    H153160   3.276   2.591  12.678  1.7372 -1.4286 -0.5396
 9655TIP3    H253161   3.348   2.592  12.811 -1.9658  1.7997  1.6485
 9656TIP3   OH253162   4.551   1.006  11.747 -0.4730 -0.0839  0.3680
 9656TIP3    H153163   4.632   0.968  11.712 -0.7734  0.6510 -1.2495
 9656TIP3    H253164   4.549   0.978  11.838  0.4259 -2.0723 -0.1478
 9657TIP3   OH253165   0.140   6.459  12.323 -0.2490 -0.4191 -0.0271
 9657TIP3    H153166   0.210   6.471  12.259 -0.4034  2.2830  0.1948
 9657TIP3    H253167   0.186   6.433  12.403  0.2122 -1.1090 -0.4989
 9658TIP3   OH253168   3.917   0.220  12.031 -0.7141 -0.0687  0.2544
 9658TIP3    H153169   4.004   0.235  11.994 -0.1201 -1.8598  0.8327
 9658TIP3    H253170   3.877   0.155  11.973 -0.4021 -1.6621  1.7456
 9659TIP3   OH253171   5.790   2.567  12.985 -0.3035 -0.0329 -0.6390
 9659TIP3    H153172   5.858   2.632  13.006 -0.8668  0.9708 -1.7682
 9659TIP3    H253173   5.727   2.575  13.056  0.0772  0.0332 -0.3066
 9660TIP3   OH253174   4.683   2.418  13.311 -0.0981  0.1674  0.3226
 9660TIP3    H153175   4.763   2.417  13.362  0.1143  1.5630  0.0590
 9660TIP3    H253176   4.656   2.510  13.310 -1.4734 -0.2115  0.0573
 9661TIP3   OH253177   1.154   1.094  10.854  0.0641  0.2611 -0.1876
 9661TIP3    H153178   1.062   1.079  10.831  0.5596 -1.1211 -1.4296
 9661TIP3    H253179   1.176   1.021  10.913  0.2619  0.8302  0.4563
 9662TIP3   OH253180   2.262   0.488  11.791  0.3217 -0.4957  0.2388
 9662TIP3    H153181   2.180   0.440  11.780 -0.0321  0.5795 -2.4640
 9662TIP3    H253182   2.243   0.552  11.859 -1.4409  0.3430 -0.9584
 9663TIP3   OH253183   0.284   0.235  11.070  0.2724 -0.5760 -0.0617
 9663TIP3    H153184   0.290   0.173  11.143  1.2132 -0.9143 -0.4146
 9663TIP3    H253185   0.339   0.308  11.097 -0.3985 -0.1244  0.1107
 9664TIP3   OH253186   7.615   1.449  12.521 -0.1716 -0.0002  0.2664
 9664TIP3    H153187   7.646   1.400  12.445 -0.7364 -1.1589  0.7671
 9664TIP3    H253188   7.529   1.483  12.495  0.4925  1.3219 -0.3146
 9665TIP3   OH253189   1.382   5.996  13.688 -0.0568 -0.1552 -0.3508
 9665TIP3    H153190   1.434   6.072  13.716  0.3668 -0.7111  0.4151
 9665TIP3    H253191   1.352   6.019  13.600 -0.6944  1.2907  0.2068
 9666TIP3   OH253192   2.079   7.064  11.516  0.0344 -0.2969  0.2498
 9666TIP3    H153193   2.079   7.088  11.609 -1.2596 -0.1041  0.2235
 9666TIP3    H253194   2.026   7.132  11.474  1.6788  0.3616 -0.8548
 9667TIP3   OH253195   2.846   0.917  11.005 -0.4555 -0.0207  0.1371
 9667TIP3    H153196   2.820   0.887  10.918 -0.4433  2.5537 -0.8517
 9667TIP3    H253197   2.939   0.897  11.010 -0.6600 -1.0504 -0.0383
 9668TIP3   OH253198   3.168   6.028  12.946  0.4615 -0.4245  0.1653
 9668TIP3    H153199   3.075   6.046  12.933  0.9764  2.4306 -0.2651
 9668TIP3    H253200   3.178   6.024  13.041  0.0788  0.7313  0.2762
 9669TIP3   OH253201   2.497   5.666  12.417  0.1239  0.1628 -0.6180
 9669TIP3    H153202   2.435   5.594  12.428  0.3942 -0.0276 -0.3012
 9669TIP3    H253203   2.468   5.732  12.480  2.0144 -1.1638  1.8681
 9670TIP3   OH253204   1.143   3.156  12.153  0.2553 -0.4330  0.0182
 9670TIP3    H153205   1.200   3.154  12.230 -0.7522  0.4461  0.8020
 9670TIP3    H253206   1.067   3.103  12.178 -1.6381  2.5070  0.9433
 9671TIP3   OH253207   7.562   0.243  11.268 -0.3526  0.7739 -0.2915
 9671TIP3    H153208   7.644   0.264  11.312 -0.5442 -1.2626  1.2201
 9671TIP3    H253209   7.585   0.237  11.175  0.9207  1.4545 -0.0431
 9672TIP3   OH253210   0.549   0.389  11.620  0.1392 -0.0403 -0.4921
 9672TIP3    H153211   0.545   0.446  11.544  0.5763  0.1403 -0.3796
 9672TIP3    H253212   0.613   0.322  11.596  0.7954  0.4168 -0.0084
 9673TIP3   OH253213   6.737   3.707  11.090 -0.1645  0.1427  0.5179
 9673TIP3    H153214   6.776   3.660  11.163 -0.1597 -0.7046 -0.0114
 9673TIP3    H253215   6.728   3.641  11.021  2.5514  1.4888 -1.3146
 9674TIP3   OH253216   3.882   4.892  13.826 -0.4410 -0.3931 -0.1267
 9674TIP3    H153217   3.966   4.846  13.815 -1.1486 -1.2450 -2.5343
 9674TIP3    H253218   3.905   4.985  13.820  0.3151 -0.6270 -1.3978
 9675TIP3   OH253219   4.700   4.626  13.538  0.1997 -0.1322  0.0851
 9675TIP3    H153220   4.660   4.703  13.579 -1.8697 -2.2637  2.4135
 9675TIP3    H253221   4.771   4.601  13.598 -0.6623 -1.3313  0.6468
 9676TIP3   OH253222   5.276   2.326  11.587  0.1624  0.4761  0.8434
 9676TIP3    H153223   5.208   2.351  11.524 -0.3221 -1.7735  0.3650
 9676TIP3    H253224   5.253   2.373  11.667 -2.1257 -0.3340  0.7492
 9677TIP3   OH253225   5.360   0.017  11.803  0.3220  0.0546 -0.4869
 9677TIP3    H153226   5.275   0.003  11.763  0.0069 -2.4187  0.8588
 9677TIP3    H253227   5.395   0.095  11.759 -2.2168  0.6067 -1.6858
 9678TIP3   OH253228   5.275   2.454  12.682 -0.2278  0.2357 -0.1442
 9678TIP3    H153229   5.314   2.528  12.728 -0.2237  0.5773 -0.6947
 9678TIP3    H253230   5.252   2.392  12.752 -1.0875  1.1446  0.4133
 9679TIP3   OH253231   0.251   3.921  11.270  0.7209  0.2662  0.2120
 9679TIP3    H153232   0.231   4.008  11.306 -2.0970 -0.4253  0.5516
 9679TIP3    H253233   0.270   3.867  11.347 -1.8329 -0.3723  0.4835
 9680TIP3   OH253234   6.133   0.639  12.445  0.2417  0.1257 -0.8493
 9680TIP3    H153235   6.103   0.605  12.529  1.4224  0.8271 -0.1009
 9680TIP3    H253236   6.200   0.576  12.416 -1.3723 -1.0676 -2.1713
 9681TIP3   OH253237   3.800   1.158  12.540  0.2136  0.2134 -0.3053
 9681TIP3    H153238   3.879   1.116  12.506 -0.2497  0.0353 -1.1787
 9681TIP3    H253239   3.802   1.139  12.634  1.2128  0.2210 -0.3172
 9682TIP3   OH253240   5.192   5.392  11.590  0.6828 -0.0522  0.3488
 9682TIP3    H153241   5.201   5.428  11.678 -0.9268  1.1451  0.0787
 9682TIP3    H253242   5.280   5.364  11.566  1.1848 -0.2379  2.2556
 9683TIP3   OH253243   6.115   5.538  13.329 -0.1573  0.0058  0.0332
 9683TIP3    H153244   6.133   5.449  13.357 -0.2140 -0.4795 -1.3832
 9683TIP3    H253245   6.199   5.584  13.339  0.3843 -0.7173 -1.0251
 9684TIP3   OH253246   1.164   0.911  12.410 -1.0049  0.2515  0.2385
 9684TIP3    H153247   1.108   0.916  12.487 -0.7920 -0.1284  0.4233
 9684TIP3    H253248   1.246   0.872  12.442  0.0986  2.5186  0.3628
 9685TIP3   OH253249   3.688   6.619  11.518  0.1243 -0.7719  0.0045
 9685TIP3    H153250   3.723   6.604  11.430  0.3179 -0.4158  0.0186
 9685TIP3    H253251   3.714   6.542  11.568  3.2561  0.6259  0.7391
 9686TIP3   OH253252   4.442   6.631  12.426  0.5987  0.7513 -0.3444
 9686TIP3    H153253   4.471   6.540  12.435 -0.0255  0.5461 -0.4007
 9686TIP3    H253254   4.351   6.625  12.397  0.6857  1.3958 -0.7667
 9687TIP3   OH253255   0.541   5.344  12.201  0.1184  0.4706 -0.0377
 9687TIP3    H153256   0.486   5.273  12.233  0.2209  0.2985 -0.2470
 9687TIP3    H253257   0.542   5.334  12.106  1.5769 -0.3199  0.0310
 9688TIP3   OH253258   0.907   3.207  11.503 -0.1916 -0.5277  0.2607
 9688TIP3    H153259   0.821   3.167  11.505 -1.0990  1.2050  3.3384
 9688TIP3    H253260   0.938   3.202  11.594  1.8717  1.0816 -0.2653
 9689TIP3   OH253261   0.790   2.318  12.180  0.0231 -0.0369 -0.1504
 9689TIP3    H153262   0.698   2.329  12.157  0.2606  0.7183 -0.7645
 9689TIP3    H253263   0.838   2.335  12.099  0.7079 -0.4253  0.1611
 9690TIP3   OH253264   6.330   7.080  12.043 -0.2508  0.1682 -0.3674
 9690TIP3    H153265   6.327   7.034  12.127  1.1071  1.8985  0.7051
 9690TIP3    H253266   6.242   7.072  12.007 -1.0195 -0.1389  1.4959
 9691TIP3   OH253267   5.981   6.612  12.385  0.0443 -0.1325  0.5794
 9691TIP3    H153268   6.017   6.660  12.310  0.7818 -0.2296  0.8592
 9691TIP3    H253269   5.892   6.645  12.394 -0.1479 -0.3159 -0.5024
 9692TIP3   OH253270   4.452   0.660  12.870  0.3210  0.3230  0.1791
 9692TIP3    H153271   4.433   0.729  12.806 -0.8258 -0.8169 -0.7735
 9692TIP3    H253272   4.536   0.685  12.908  1.1647  0.9530 -1.9431
 9693TIP3   OH253273   4.608   3.624  12.153  0.3049 -0.0479  0.5227
 9693TIP3    H153274   4.615   3.567  12.076 -1.6660 -0.5887  0.6948
 9693TIP3    H253275   4.681   3.596  12.210  0.1283 -1.5577  0.0544
 9694TIP3   OH253276   7.518   7.620  12.370 -0.4653  0.2378 -0.6668
 9694TIP3    H153277   7.489   7.608  12.461  0.8058 -0.2121 -0.2957
 9694TIP3    H253278   7.603   7.663  12.377 -1.1330  1.8137 -1.7340
 9695TIP3   OH253279   3.024   6.052  12.263  0.1225 -0.1077  0.0915
 9695TIP3    H153280   2.992   6.142  12.266 -1.5888 -0.6865  0.4285
 9695TIP3    H253281   3.031   6.032  12.169  0.2125  0.2743  0.0170
 9696TIP3   OH253282   0.370   4.377  11.338  0.2090 -0.0840 -0.2316
 9696TIP3    H153283   0.463   4.358  11.331 -0.0322 -1.0692 -0.9855
 9696TIP3    H253284   0.366   4.461  11.385  1.4803  0.2430 -0.6715
 9697TIP3   OH253285   0.124   5.489  12.506  0.8742 -0.1401 -0.2643
 9697TIP3    H153286   0.102   5.579  12.483  1.2995  0.7869  2.5648
 9697TIP3    H253287   0.040   5.445  12.517  0.5755  0.6808  0.9089
 9698TIP3   OH253288   7.573   2.276  13.327  0.4342  0.5567  0.5275
 9698TIP3    H153289   7.528   2.359  13.345  0.4039  0.5617  0.4279
 9698TIP3    H253290   7.539   2.216  13.393 -2.4186 -0.4446 -1.6393
 9699TIP3   OH253291   7.192   6.247  11.173 -0.0533  0.3052  0.3706
 9699TIP3    H153292   7.181   6.185  11.245 -0.6296 -0.6417 -0.4935
 9699TIP3    H253293   7.104   6.278  11.155  0.3687  2.4244  1.6307
 9700TIP3   OH253294   1.469   7.020  11.407  0.1238  1.1050  0.1746
 9700TIP3    H153295   1.517   6.941  11.434 -0.3020  0.9325  0.4517
 9700TIP3    H253296   1.393   7.022  11.466 -0.8093  0.7440 -0.9720
 9701TIP3   OH253297   2.540   7.554  12.697 -0.0325  0.4445 -0.2749
 9701TIP3    H153298   2.546   7.459  12.687  0.1567  0.3524  0.6015
 9701TIP3    H253299   2.485   7.583  12.624  2.1615  0.0102 -2.1867
 9702TIP3   OH253300   1.533   1.605  12.231  1.1622 -0.0507 -0.3742
 9702TIP3    H153301   1.599   1.625  12.297  1.4692  0.5958 -0.8659
 9702TIP3    H253302   1.492   1.689  12.212  0.6068 -0.3482 -0.5128
 9703TIP3   OH253303   5.312   3.911  11.917  0.6389  0.4008 -0.0707
 9703TIP3    H153304   5.273   3.824  11.906  1.5603  0.0823 -1.0277
 9703TIP3    H253305   5.361   3.926  11.836 -0.4294  2.3171 -0.4366
 9704TIP3   OH253306   5.772   3.829  11.608 -0.1148  0.3785  0.2790
 9704TIP3    H153307   5.684   3.863  11.624  0.2657  1.2859  0.5115
 9704TIP3    H253308   5.766   3.736  11.628 -0.8052  0.5994  1.1385
 9705TIP3   OH253309   4.881   7.321  12.094 -0.4807  0.3167  0.1572
 9705TIP3    H153310   4.929   7.290  12.018 -1.3937 -1.9614  0.4399
 9705TIP3    H253311   4.822   7.389  12.060 -3.2631 -2.8455 -1.9749
 9706TIP3   OH253312   4.116   5.542  12.291  0.4078  0.8416 -0.0512
 9706TIP3    H153313   4.114   5.583  12.378 -0.3603  1.2589 -0.2636
 9706TIP3    H253314   4.078   5.455  12.305  2.8205 -0.2018  0.5748
 9707TIP3   OH253315   4.840   2.008  12.064  0.0420  0.1122  0.1469
 9707TIP3    H153316   4.790   2.089  12.049 -1.6312 -0.8022  0.5488
 9707TIP3    H253317   4.888   2.025  12.145  1.4365  1.4706 -0.9042
 9708TIP3   OH253318   2.338   1.491  11.538 -0.0890  0.2312  0.0240
 9708TIP3    H153319   2.305   1.416  11.489 -1.0158  0.1920  0.6708
 9708TIP3    H253320   2.415   1.459  11.583  0.4938  0.1394 -1.0183
 9709TIP3   OH253321   1.398   3.599  13.281  0.0888 -0.3887  0.4983
 9709TIP3    H153322   1.439   3.522  13.321  0.8829 -0.0960  0.2693
 9709TIP3    H253323   1.332   3.626  13.344  2.8262  1.4558  2.8490
 9710TIP3   OH253324   5.419   4.086  10.885 -0.2826 -0.2130  0.4818
 9710TIP3    H153325   5.327   4.107  10.871 -0.4363 -0.7273  0.7074
 9710TIP3    H253326   5.445   4.034  10.809 -0.2906 -0.4143  0.6158
 9711TIP3   OH253327   3.286   5.446  11.226 -0.1342  0.4754  0.2972
 9711TIP3    H153328   3.277   5.445  11.131  1.8727  2.1798  0.0315
 9711TIP3    H253329   3.198   5.463  11.258 -0.7215  0.5655 -1.2815
 9712TIP3   OH253330   5.200   4.584  12.740 -0.3419  0.3773 -0.3742
 9712TIP3    H153331   5.183   4.670  12.701  0.5902  0.4613 -0.6170
 9712TIP3    H253332   5.274   4.598  12.799 -2.3610  0.4748  2.3287
 9713TIP3   OH253333   0.920   7.577  12.827  0.2558 -0.5792 -0.2458
 9713TIP3    H153334   1.016   7.584  12.821  0.3384 -0.6046  0.8104
 9713TIP3    H253335   0.901   7.593  12.920 -0.8096 -0.1450 -0.5324
 9714TIP3   OH253336   6.129   6.221  11.391 -0.2645  0.0678  0.4899
 9714TIP3    H153337   6.136   6.295  11.331  0.0129 -1.1353 -1.0340
 9714TIP3    H253338   6.171   6.251  11.471  1.2010  1.0785 -0.5970
 9715TIP3   OH253339   6.375   1.198  11.716 -0.4464 -0.0798  0.0958
 9715TIP3    H153340   6.311   1.264  11.691  0.0784  0.5001  0.2516
 9715TIP3    H253341   6.333   1.149  11.787 -1.8571 -1.6028 -1.6837
 9716TIP3   OH253342   4.455   5.072  12.367  0.4002  0.1530 -0.0004
 9716TIP3    H153343   4.367   5.040  12.346  0.3450  0.8060 -0.8329
 9716TIP3    H253344   4.467   5.051  12.459 -2.0750  3.2104  1.2101
 9717TIP3   OH253345   7.148   0.316  12.205 -0.1337  0.0184 -0.4576
 9717TIP3    H153346   7.227   0.320  12.260 -0.7295 -4.7229  1.2162
 9717TIP3    H253347   7.077   0.339  12.264 -0.3731 -0.2263 -0.6504
 9718TIP3   OH253348   6.540   5.868  11.961  0.0095 -0.4173  0.4354
 9718TIP3    H153349   6.555   5.854  12.055  0.2560  0.8049  0.5920
 9718TIP3    H253350   6.488   5.948  11.957 -0.1582 -0.5590 -0.4785
 9719TIP3   OH253351   3.989   3.790  12.782  0.5003 -0.2109  0.9399
 9719TIP3    H153352   4.006   3.873  12.827  0.1855  0.1713  0.3576
 9719TIP3    H253353   3.896   3.793  12.760  1.3745  1.6323 -3.6765
 9720TIP3   OH253354   3.127   5.663  11.894 -0.1413 -0.3778  0.5209
 9720TIP3    H153355   3.163   5.603  11.828 -1.9811  0.2313 -1.1331
 9720TIP3    H253356   3.048   5.620  11.925 -0.0013 -0.0381  1.3585
 9721TIP3   OH253357   2.060   6.696  14.017 -1.0372  0.2349  0.3161
 9721TIP3    H153358   2.140   6.712  14.067  0.2255 -1.2111 -1.1372
 9721TIP3    H253359   2.078   6.732  13.931 -3.2057  2.7379  0.7640
 9722TIP3   OH253360   1.297   5.765  12.372  0.0671 -0.1661 -0.2374
 9722TIP3    H153361   1.345   5.789  12.293 -0.4489  2.2067  0.0951
 9722TIP3    H253362   1.224   5.826  12.376  0.7034  0.5799  2.6308
 9723TIP3   OH253363   3.099   7.226  11.319 -0.4546 -0.2570 -0.1929
 9723TIP3    H153364   3.094   7.203  11.412  1.6149  1.8624  0.5518
 9723TIP3    H253365   3.053   7.309  11.312  1.0899  0.6011 -0.6111
 9724TIP3   OH253366   6.702   2.275  13.556 -0.3560  0.9302  0.4032
 9724TIP3    H153367   6.673   2.323  13.633 -2.4230  2.1452 -1.0186
 9724TIP3    H253368   6.634   2.208  13.542  0.0942  0.5966 -0.2383
 9725TIP3   OH253369   6.763   5.391  13.242  0.4033 -0.0275 -0.4404
 9725TIP3    H153370   6.771   5.329  13.170 -0.1206 -0.6614  0.0287
 9725TIP3    H253371   6.672   5.420  13.239  0.5353  0.3899 -0.3996
 9726TIP3   OH253372   6.723   3.743  12.377 -0.0767  0.1291 -0.1359
 9726TIP3    H153373   6.773   3.800  12.319  0.5286 -1.1187 -0.8704
 9726TIP3    H253374   6.701   3.666  12.324  0.2333 -0.9085  1.1805
 9727TIP3   OH253375   2.765   7.627  13.169  0.3890  0.2246  0.3724
 9727TIP3    H153376   2.748   7.678  13.090 -0.7432  0.4657  0.7534
 9727TIP3    H253377   2.710   7.668  13.237 -0.4747 -1.4009  0.7153
 9728TIP3   OH253378   3.489   4.255  12.332 -0.5452 -0.1185  0.2107
 9728TIP3    H153379   3.413   4.198  12.340 -1.1158  0.7898  1.6898
 9728TIP3    H253380   3.557   4.201  12.291 -1.9374 -0.9762 -1.0527
 9729TIP3   OH253381   3.541   0.144  11.499  0.7498 -0.7363 -0.1675
 9729TIP3    H153382   3.515   0.097  11.419 -0.6489  0.7724 -0.6405
 9729TIP3    H253383   3.479   0.114  11.566 -1.2925  1.5856 -0.8820
 9730TIP3   OH253384   0.791   5.189  13.769  0.1645 -0.3382 -0.0308
 9730TIP3    H153385   0.750   5.271  13.797 -0.2661 -1.1582  1.8929
 9730TIP3    H253386   0.718   5.134  13.741  0.4947  0.0668 -1.7573
 9731TIP3   OH253387   7.489   7.450  12.164  0.1263 -0.2051  0.1475
 9731TIP3    H153388   7.566   7.439  12.108 -0.2468  0.5894 -0.5492
 9731TIP3    H253389   7.522   7.499  12.240  0.4518 -0.4799  0.1849
 9732TIP3   OH253390   7.117   6.372  12.286  0.3534  0.4625 -0.1135
 9732TIP3    H153391   7.062   6.301  12.253  0.9808  0.1043 -0.4277
 9732TIP3    H253392   7.204   6.351  12.252  0.3082  2.0744 -1.3142
 9733TIP3   OH253393   5.197   5.561  11.226 -0.5704  0.0012  0.2217
 9733TIP3    H153394   5.195   5.475  11.184  0.2231 -0.6683  1.4554
 9733TIP3    H253395   5.128   5.556  11.293 -1.7249  0.9951 -0.8471
 9734TIP3   OH253396   2.414   7.364  13.010  0.2599 -0.3296  0.2727
 9734TIP3    H153397   2.472   7.329  13.077 -0.3975  0.4658  1.2911
 9734TIP3    H253398   2.467   7.429  12.964  1.5366 -2.6077 -1.7247
 9735TIP3   OH253399   5.317   0.059  12.291  0.1405 -0.1371  0.3155
 9735TIP3    H153400   5.264  -0.017  12.267 -0.5767  0.2690  0.5766
 9735TIP3    H253401   5.263   0.107  12.355  0.4711  0.7178 -0.0279
 9736TIP3   OH253402   7.403   6.070  11.406 -0.3141 -0.4718  0.2296
 9736TIP3    H153403   7.438   6.111  11.485 -0.1913  1.9031 -0.9553
 9736TIP3    H253404   7.310   6.091  11.407 -0.0983  0.7439 -0.8200
 9737TIP3   OH253405   6.583   6.548  10.984  0.5977 -0.0926  0.6093
 9737TIP3    H153406   6.612   6.462  11.014  0.7580  0.1069  1.0333
 9737TIP3    H253407   6.557   6.534  10.893  0.6533 -0.5819  0.6649
 9738TIP3   OH253408   0.465   7.211  11.229  0.0148  0.1047  0.5650
 9738TIP3    H153409   0.437   7.180  11.143 -2.2844  1.9070  0.5325
 9738TIP3    H253410   0.405   7.168  11.290 -0.2947  1.0267  0.9316
 9739TIP3   OH253411   1.230   0.956  11.248  0.2893  0.3609 -0.0241
 9739TIP3    H153412   1.310   0.981  11.293  0.4447 -0.4519  0.1643
 9739TIP3    H253413   1.260   0.907  11.172 -0.0362 -0.2139  0.2158
 9740TIP3   OH253414   4.823   6.196  12.748 -0.2498  0.2389 -0.0162
 9740TIP3    H153415   4.800   6.287  12.731  1.5090  0.4839 -1.3531
 9740TIP3    H253416   4.894   6.201  12.812 -1.2646 -0.3004  1.1813
 9741TIP3   OH253417   2.646   3.484  11.482  0.2003  0.1514  0.3939
 9741TIP3    H153418   2.602   3.466  11.565  0.9364  2.2193  1.2707
 9741TIP3    H253419   2.589   3.547  11.437  1.0056  0.9232  0.4321
 9742TIP3   OH253420   1.455   2.086  13.121 -0.3732  0.1227 -0.2924
 9742TIP3    H153421   1.422   2.066  13.034 -0.1179 -0.0856 -0.3445
 9742TIP3    H253422   1.550   2.075  13.113 -0.1801  1.7175 -0.4099
 9743TIP3   OH253423   5.788   1.513  13.678 -0.1787  0.2808 -0.1820
 9743TIP3    H153424   5.823   1.538  13.764 -0.4617 -0.4900  0.1601
 9743TIP3    H253425   5.828   1.428  13.660  0.3549  0.7089 -1.0956
 9744TIP3   OH253426   0.247   5.957  12.800  0.4345 -0.0213  0.3776
 9744TIP3    H153427   0.167   5.921  12.763  0.9829 -1.3311  0.4261
 9744TIP3    H253428   0.219   6.006  12.877 -0.2225 -1.3505  1.0057
 9745TIP3   OH253429   1.574   6.876  11.676 -0.1089 -0.4643  0.2811
 9745TIP3    H153430   1.549   6.954  11.726  0.3880 -0.2847  0.2548
 9745TIP3    H253431   1.663   6.894  11.646 -1.1056  0.3442 -2.4748
 9746TIP3   OH253432   0.702   0.514  12.859  0.1162 -0.1117  0.7319
 9746TIP3    H153433   0.790   0.510  12.897  0.5233  1.0218 -0.0350
 9746TIP3    H253434   0.678   0.607  12.864 -1.4654 -0.5444  1.8506
 9747TIP3   OH253435   4.052   4.304  11.398 -0.1160  0.2198 -0.7344
 9747TIP3    H153436   4.146   4.313  11.386  0.4047 -2.2234  0.6282
 9747TIP3    H253437   4.019   4.393  11.405  2.1694  1.1233 -0.8034
 9748TIP3   OH253438   6.911   5.784  11.760 -0.7050  0.6142  0.1938
 9748TIP3    H153439   6.990   5.819  11.719 -0.2576 -0.5874 -0.0065
 9748TIP3    H253440   6.930   5.691  11.775 -2.0583  0.3073  0.1752
 9749TIP3   OH253441   0.196   0.782  10.884  0.1675 -0.1916 -0.2260
 9749TIP3    H153442   0.111   0.815  10.914  0.1663 -0.3290 -0.0758
 9749TIP3    H253443   0.178   0.692  10.858  0.1230 -0.0042 -0.8443
 9750TIP3   OH253444   1.616   5.967  11.930  0.7437 -0.0740 -0.1457
 9750TIP3    H153445   1.599   5.917  12.010  0.5557  0.2948  0.0477
 9750TIP3    H253446   1.540   5.949  11.874  0.5336  0.2264  0.0412
 9751TIP3   OH253447   2.849   6.427  13.769 -0.1668  0.4285 -0.1532
 9751TIP3    H153448   2.815   6.339  13.756 -2.6960  1.2949  0.0889
 9751TIP3    H253449   2.874   6.430  13.862  1.3947 -0.4354 -0.5049
 9752TIP3   OH253450   6.516   0.235  12.035  0.1003 -0.1479 -0.4699
 9752TIP3    H153451   6.435   0.241  12.086 -0.0299 -1.8572 -0.4158
 9752TIP3    H253452   6.552   0.149  12.057  2.4355  0.9334  0.2176
 9753TIP3   OH253453   4.427   6.423  11.743 -0.8935  0.0438 -0.2594
 9753TIP3    H153454   4.488   6.496  11.730 -0.3994 -0.0600  1.3019
 9753TIP3    H253455   4.349   6.463  11.782 -0.0091 -0.4116  2.1448
 9754TIP3   OH253456   4.789   6.018  12.541 -0.2279  0.2588 -0.0711
 9754TIP3    H153457   4.849   5.944  12.547 -1.6863 -1.0902 -1.0121
 9754TIP3    H253458   4.816   6.077  12.611 -0.1899 -2.0855  2.0393
 9755TIP3   OH253459   7.031   6.916  11.643 -0.4996 -0.0760  0.2286
 9755TIP3    H153460   7.026   6.932  11.548 -2.2155  1.0128  0.4446
 9755TIP3    H253461   6.940   6.923  11.672  0.2729  2.5490  2.3759
 9756TIP3   OH253462   0.763   2.442  10.803  0.0243  0.6451 -0.1222
 9756TIP3    H153463   0.695   2.375  10.796 -0.4036  1.1851 -1.7615
 9756TIP3    H253464   0.840   2.403  10.761 -0.0066  0.8923 -0.4177
 9757TIP3   OH253465   2.748   5.957  11.883 -0.4986 -0.3442  0.0900
 9757TIP3    H153466   2.684   5.904  11.836 -2.4106  0.0737  2.0758
 9757TIP3    H253467   2.698   6.031  11.917  1.1504  0.2959  1.2406
 9758TIP3   OH253468   2.868   1.461  11.895 -0.9097  0.4012 -0.2059
 9758TIP3    H153469   2.908   1.531  11.948 -1.0533  0.1247  0.2706
 9758TIP3    H253470   2.837   1.397  11.959  2.8541 -2.1745 -0.6040
 9759TIP3   OH253471   0.764   4.954  13.511  0.3004  0.4183 -0.2304
 9759TIP3    H153472   0.722   5.033  13.546 -0.2262 -0.6225  1.6366
 9759TIP3    H253473   0.694   4.889  13.508  0.6772  0.0474 -1.9567
 9760TIP3   OH253474   0.304   5.607  10.579  0.0260 -0.7346 -0.1390
 9760TIP3    H153475   0.359   5.540  10.619  1.0250 -0.2471 -0.6393
 9760TIP3    H253476   0.365   5.678  10.558 -0.8896  0.0412 -0.2492
 9761TIP3   OH253477   7.309   1.767  11.086  0.3343 -0.0293 -0.2633
 9761TIP3    H153478   7.298   1.827  11.159 -0.4157  1.2190 -1.3422
 9761TIP3    H253479   7.389   1.796  11.042  0.9736 -0.9910  0.2387
 9762TIP3   OH253480   1.821   0.507  13.262  0.7501  0.4226  0.4136
 9762TIP3    H153481   1.803   0.422  13.303  0.0064  0.8602  1.0328
 9762TIP3    H253482   1.910   0.528  13.290  1.4201 -0.6928 -0.7416
 9763TIP3   OH253483   7.048   5.527  11.839 -0.3260  0.0833 -0.0657
 9763TIP3    H153484   7.135   5.493  11.819  0.0930  0.1775  1.4314
 9763TIP3    H253485   6.999   5.451  11.869 -0.8073  0.0140 -0.9940
 9764TIP3   OH253486   6.377   6.095  12.403 -0.2126  0.1871 -0.0469
 9764TIP3    H153487   6.329   6.146  12.337  1.2243  0.1689 -1.1734
 9764TIP3    H253488   6.313   6.031  12.435 -0.7864 -0.3270 -2.0220
 9765TIP3   OH253489   2.292   3.559  13.519  0.6871  0.2133  0.1990
 9765TIP3    H153490   2.229   3.630  13.532  1.2564  0.4907  1.5939
 9765TIP3    H253491   2.338   3.583  13.438  0.8899  1.4648  0.6597
 9766TIP3   OH253492   3.175   2.437  12.337 -0.4530 -0.1468  0.2117
 9766TIP3    H153493   3.227   2.500  12.288 -0.3421 -1.1750 -1.0468
 9766TIP3    H253494   3.098   2.422  12.282  0.2765 -2.2728 -0.2963
 9767TIP3   OH253495   3.140   1.553  11.010 -0.0384 -0.2541  0.3608
 9767TIP3    H153496   3.092   1.565  10.928 -2.5672 -0.4739  1.7014
 9767TIP3    H253497   3.073   1.523  11.072  1.8948 -0.6123  2.3710
 9768TIP3   OH253498   1.431   0.188  13.339 -0.2661 -0.2622 -0.1743
 9768TIP3    H153499   1.370   0.231  13.399  0.9319 -0.9990  1.6779
 9768TIP3    H253500   1.449   0.103  13.380 -0.5629 -1.4679 -2.4012
 9769TIP3   OH253501   0.694   2.931  13.061 -0.4724 -0.8596  0.5435
 9769TIP3    H153502   0.606   2.934  13.099 -0.7104 -1.9897  0.1046
 9769TIP3    H253503   0.751   2.967  13.130 -1.2714 -0.0055  0.7878
 9770TIP3   OH253504   4.382   3.106  11.468  0.1016  0.5072  0.7737
 9770TIP3    H153505   4.310   3.088  11.529 -0.2209  0.7443  0.4637
 9770TIP3    H253506   4.345   3.166  11.404  0.7271  1.0553  0.9105
 9771TIP3   OH253507   3.848   4.071  11.842 -0.4099 -0.3682 -0.3338
 9771TIP3    H153508   3.844   4.146  11.901 -2.9209 -1.0503  0.4805
 9771TIP3    H253509   3.857   4.109  11.755  1.6770  0.6977  0.2671
 9772TIP3   OH253510   2.306   3.412  11.870  0.1906  0.0390 -0.2546
 9772TIP3    H153511   2.326   3.489  11.924  0.3597  0.2984 -0.6810
 9772TIP3    H253512   2.217   3.388  11.895  1.3909 -1.9832  2.7272
 9773TIP3   OH253513   5.322   7.188  12.351  0.1591  0.1095  0.0363
 9773TIP3    H153514   5.291   7.255  12.411  0.4823  1.1483 -0.9117
 9773TIP3    H253515   5.289   7.215  12.265  2.3085  0.4333 -0.7621
 9774TIP3   OH253516   3.293   3.336  12.567 -0.4270 -0.6263  0.4593
 9774TIP3    H153517   3.289   3.262  12.507  0.6459  0.2798 -0.7762
 9774TIP3    H253518   3.360   3.394  12.530 -0.1188  0.2319  2.2333
 9775TIP3   OH253519   6.958   3.174  12.999 -0.4583 -0.0370 -0.1076
 9775TIP3    H153520   6.903   3.235  13.049  0.7537 -0.3648  1.7154
 9775TIP3    H253521   7.046   3.211  13.004  0.0575 -1.2192 -0.1633
 9776TIP3   OH253522   3.829   0.292  13.191  0.0531 -0.2570  0.2925
 9776TIP3    H153523   3.912   0.249  13.170 -0.0027 -0.0127 -0.4384
 9776TIP3    H253524   3.781   0.295  13.109 -0.3733  0.2796  0.5498
 9777TIP3   OH253525   0.443   6.743  12.734  0.0806  0.2316 -0.0453
 9777TIP3    H153526   0.352   6.752  12.703  0.8109  0.9078 -2.2298
 9777TIP3    H253527   0.437   6.746  12.829 -2.1936  0.1695 -0.1324
 9778TIP3   OH253528   1.498   5.574  13.440 -0.0048  0.0964 -0.0621
 9778TIP3    H153529   1.570   5.514  13.419 -0.2851 -0.5957  0.8759
 9778TIP3    H253530   1.453   5.587  13.357  0.2479 -0.7466 -0.3416
 9779TIP3   OH253531   2.572   4.190  12.387 -0.2174 -0.1722 -0.1409
 9779TIP3    H153532   2.530   4.243  12.319 -0.6758 -0.4506 -0.0826
 9779TIP3    H253533   2.501   4.134  12.420 -0.0468  0.1129  0.7184
 9780TIP3   OH253534   5.325   1.278  12.651  0.4404 -0.2508 -0.4376
 9780TIP3    H153535   5.316   1.244  12.562  0.3052 -0.2677 -0.4180
 9780TIP3    H253536   5.367   1.363  12.640  1.8743 -0.9341 -0.3984
 9781TIP3   OH253537   6.151   5.893  13.237 -0.7518 -0.4907  0.7252
 9781TIP3    H153538   6.201   5.820  13.272  1.5237 -0.9693 -3.0379
 9781TIP3    H253539   6.213   5.965  13.231 -1.2029 -0.1991 -1.3535
 9782TIP3   OH253540   3.848   6.218  11.782  0.4233  0.0313 -0.4461
 9782TIP3    H153541   3.939   6.219  11.810 -0.0177 -0.2252  1.1373
 9782TIP3    H253542   3.845   6.155  11.710  1.3998 -0.4487 -0.0857
 9783TIP3   OH253543   1.117   6.479  11.364 -0.0180  0.1441 -0.1474
 9783TIP3    H153544   1.198   6.445  11.401  1.0748  2.3255 -0.3996
 9783TIP3    H253545   1.062   6.496  11.440  0.0190 -0.6742  0.0715
 9784TIP3   OH253546   6.736   4.634  13.094 -0.1486 -0.8255 -0.3375
 9784TIP3    H153547   6.796   4.559  13.094 -1.2644 -1.7759  1.5295
 9784TIP3    H253548   6.755   4.679  13.011  2.2537 -1.7668 -0.3860
 9785TIP3   OH253549   4.155   6.494  11.814  0.3681 -0.0782  0.1843
 9785TIP3    H153550   4.112   6.432  11.872 -1.8762  1.1677 -0.0426
 9785TIP3    H253551   4.151   6.453  11.727  3.1632 -1.6542  0.6777
 9786TIP3   OH253552   4.943   5.358  13.466  0.2311 -0.1710 -0.1806
 9786TIP3    H153553   4.911   5.376  13.555  0.2190  1.8245 -0.5319
 9786TIP3    H253554   5.018   5.299  13.479 -1.2638 -1.9325  0.9198
 9787TIP3   OH253555   2.425   0.857  12.512 -0.0459  0.0619 -0.3671
 9787TIP3    H153556   2.398   0.785  12.569 -1.0590  0.4202 -0.3722
 9787TIP3    H253557   2.346   0.911  12.503  1.1190  2.2255  1.2056
 9788TIP3   OH253558   3.265   0.403  11.373  0.4875  0.1269  0.0245
 9788TIP3    H153559   3.311   0.481  11.403  1.5496 -0.0716 -0.9920
 9788TIP3    H253560   3.274   0.405  11.278  0.3101 -1.0838 -0.0386
 9789TIP3   OH253561   5.266   0.067  13.134 -0.0831  0.0461 -0.1268
 9789TIP3    H153562   5.309   0.104  13.056 -1.2675  1.7722 -0.0348
 9789TIP3    H253563   5.262   0.140  13.196 -4.1489  0.4506 -0.5810
 9790TIP3   OH253564   0.971   2.972  11.126 -0.1841 -0.0420 -0.5307
 9790TIP3    H153565   0.933   3.006  11.046  0.3104  2.5503  0.2439
 9790TIP3    H253566   1.065   2.964  11.108 -0.2717 -0.9737 -0.6589
 9791TIP3   OH253567   1.284   6.271  12.760 -0.7019  0.0122  0.3212
 9791TIP3    H153568   1.211   6.319  12.800 -1.0046 -1.1460  1.2250
 9791TIP3    H253569   1.251   6.182  12.750 -0.7999  0.2894 -2.9691
 9792TIP3   OH253570   6.050   4.802  12.362 -0.4080  0.5302  0.0020
 9792TIP3    H153571   6.131   4.752  12.362 -0.6343  0.1097 -1.7862
 9792TIP3    H253572   5.999   4.767  12.288 -1.2518  2.3123 -0.3308
 9793TIP3   OH253573   3.925   3.752  11.019 -0.1432  0.1088 -0.2184
 9793TIP3    H153574   3.868   3.758  10.943  0.2057 -0.5316 -0.5422
 9793TIP3    H253575   3.872   3.783  11.092 -2.0829 -3.4736  0.1043
 9794TIP3   OH253576   0.255   6.940  13.220 -0.6169 -0.0610 -0.0961
 9794TIP3    H153577   0.310   6.864  13.240  0.3213  0.1457 -1.7353
 9794TIP3    H253578   0.310   7.015  13.242 -0.6963  0.1465 -0.6023
 9795TIP3   OH253579   3.201   1.397  11.999 -0.1647  0.1067 -0.0662
 9795TIP3    H153580   3.159   1.311  11.988  0.7155 -0.3842  0.2832
 9795TIP3    H253581   3.218   1.403  12.093 -1.5841  1.3391  0.1442
 9796TIP3   OH253582   4.597   3.406  13.276 -0.4193 -0.1745  0.4725
 9796TIP3    H153583   4.519   3.355  13.256 -0.4135 -0.9344  2.2654
 9796TIP3    H253584   4.666   3.341  13.290  0.2105  0.4293  0.2815
 9797TIP3   OH253585   1.101   3.944  11.570  0.0132  0.2373 -0.6739
 9797TIP3    H153586   1.168   4.004  11.602  0.7353  0.0422 -1.7776
 9797TIP3    H253587   1.140   3.903  11.493 -1.1944 -0.2432 -1.0510
 9798TIP3   OH253588   2.197   0.509  12.431  0.2404 -0.5042 -0.6747
 9798TIP3    H153589   2.118   0.531  12.481  0.9454 -0.4175  0.4403
 9798TIP3    H253590   2.219   0.421  12.459  0.9753 -0.2346 -0.3689
 9799TIP3   OH253591   5.631   2.958  11.414 -0.3231  0.4132  0.1556
 9799TIP3    H153592   5.697   2.998  11.356  0.3290  2.4981  2.1412
 9799TIP3    H253593   5.547   2.980  11.374  0.1443  0.2729 -0.9182
 9800TIP3   OH253594   4.212   3.920  12.079 -0.5158 -0.6229 -0.0848
 9800TIP3    H153595   4.200   3.928  11.984  0.3095 -0.1786 -0.1539
 9800TIP3    H253596   4.298   3.957  12.096 -0.8938 -0.1767  0.9210
 9801TIP3   OH253597   7.187   4.433  10.806 -0.7432  0.0298  0.1985
 9801TIP3    H153598   7.147   4.410  10.890  0.4453  0.5018  0.9157
 9801TIP3    H253599   7.251   4.500  10.827 -0.2095 -0.0515 -1.0549
 9802TIP3   OH253600   1.095   5.251  12.280 -0.3894  1.1475 -0.5696
 9802TIP3    H153601   1.059   5.336  12.306 -2.1131  0.8053 -1.6549
 9802TIP3    H253602   1.079   5.247  12.186 -0.9135 -0.6381 -0.4303
 9803TIP3   OH253603   7.276   2.667  11.981 -0.9232 -0.0571  0.4534
 9803TIP3    H153604   7.269   2.687  11.888 -0.3808 -0.1268  0.3922
 9803TIP3    H253605   7.313   2.746  12.020 -1.0483 -0.0662  0.5936
 9804TIP3   OH253606   1.021   6.754  13.359  0.4147  0.1589  0.0703
 9804TIP3    H153607   0.957   6.822  13.340  0.0986 -0.3181 -0.5806
 9804TIP3    H253608   0.984   6.706  13.433 -0.7531 -1.0874 -1.2657
 9805TIP3   OH253609   3.668   4.666  13.847 -0.2207 -0.2915 -0.7108
 9805TIP3    H153610   3.734   4.596  13.854 -0.3240 -0.4648 -1.3983
 9805TIP3    H253611   3.717   4.746  13.864 -0.3890 -0.6004  1.6789
 9806TIP3   OH253612   0.427   6.593  11.783  0.2507  0.3015 -0.5414
 9806TIP3    H153613   0.522   6.576  11.786  1.2632  4.7004 -0.3877
 9806TIP3    H253614   0.412   6.621  11.692 -0.8129  0.1458 -0.4152
 9807TIP3   OH253615   1.089   5.715  13.234 -0.3580 -0.7533  0.4065
 9807TIP3    H153616   1.064   5.796  13.277  0.6483  0.6609 -1.4959
 9807TIP3    H253617   1.128   5.661  13.303 -1.7409  0.0290  1.8563
 9808TIP3   OH253618   0.888   0.715  12.085 -0.5248  0.6691 -0.5778
 9808TIP3    H153619   0.908   0.664  12.164 -1.0516 -1.7978 -1.9192
 9808TIP3    H253620   0.950   0.788  12.088 -0.6610  0.7962  2.1766
 9809TIP3   OH253621   7.127   6.065  11.372  0.3114 -0.3079  0.0106
 9809TIP3    H153622   7.110   5.996  11.437  2.0631  0.3804  1.2873
 9809TIP3    H253623   7.048   6.068  11.319 -0.1283 -2.7726  0.3819
 9810TIP3   OH253624   4.015   2.270  12.743 -0.0744  0.0254  0.1534
 9810TIP3    H153625   3.940   2.316  12.780  1.0602  2.5670 -0.5296
 9810TIP3    H253626   3.994   2.262  12.650  0.6085  1.0160 -0.0949
 9811TIP3   OH253627   2.497   0.443  13.743  0.6955  0.2210 -0.3081
 9811TIP3    H153628   2.497   0.531  13.703  1.0079  0.0551 -0.6843
 9811TIP3    H253629   2.520   0.385  13.671 -1.8918 -0.4723 -0.6733
 9812TIP3   OH253630   2.436   3.155  11.745 -0.0115  0.0203 -0.3919
 9812TIP3    H153631   2.455   3.110  11.828 -1.7973  0.0554  0.0764
 9812TIP3    H253632   2.413   3.244  11.771  1.6834  0.7292 -1.1637
 9813TIP3   OH253633   6.949   6.066  11.173 -0.3016 -0.1934 -0.3341
 9813TIP3    H153634   6.864   6.093  11.206 -0.7201  0.0106 -1.5613
 9813TIP3    H253635   6.933   6.037  11.084  1.0759  0.8241 -0.9519
 9814TIP3   OH253636   3.580   3.602  10.988 -0.1288 -0.5499  0.2081
 9814TIP3    H153637   3.606   3.692  10.971  0.1066 -0.4572  0.9927
 9814TIP3    H253638   3.509   3.585  10.927  0.5728 -0.2079 -0.7246
 9815TIP3   OH253639   4.296   3.021  13.440 -0.2047 -0.3413  0.4355
 9815TIP3    H153640   4.276   3.020  13.346 -0.2925  0.9092  0.4290
 9815TIP3    H253641   4.305   3.113  13.462  1.7488 -0.6786  1.2639
 9816TIP3   OH253642   0.511   4.283  12.656 -0.0733  0.5425 -0.1015
 9816TIP3    H153643   0.524   4.341  12.731 -2.8639  0.0054  0.9052
 9816TIP3    H253644   0.417   4.285  12.639  0.2257 -0.7834 -2.4599
 9817TIP3   OH253645   0.658   1.178  13.861  0.4506  0.2771 -0.5186
 9817TIP3    H153646   0.715   1.231  13.917 -0.9383  0.7575  0.4988
 9817TIP3    H253647   0.700   1.181  13.775  1.4697  1.3786 -0.0209
 9818TIP3   OH253648   4.204   6.360  12.983  0.1962  0.3382  0.5687
 9818TIP3    H153649   4.155   6.298  13.037 -0.3993  0.2138 -0.0949
 9818TIP3    H253650   4.186   6.332  12.893  0.3846  1.1290  0.2769
 9819TIP3   OH253651   1.443   1.444  11.709 -0.1196 -0.0243  0.2657
 9819TIP3    H153652   1.489   1.413  11.787  1.1237 -1.2267 -0.8752
 9819TIP3    H253653   1.405   1.528  11.734  2.0466  0.6483  1.5342
 9820TIP3   OH253654   5.463   5.161  12.723  0.1652  0.1272 -0.1318
 9820TIP3    H153655   5.437   5.247  12.757 -4.7244 -0.3585 -1.8759
 9820TIP3    H253656   5.531   5.182  12.658 -0.1205  2.5309  0.2277
 9821TIP3   OH253657   3.192   3.139  12.032  0.7043 -0.6027  0.3786
 9821TIP3    H153658   3.267   3.199  12.034 -0.2709  0.7541 -0.8050
 9821TIP3    H253659   3.117   3.197  12.020 -0.8989 -1.6814  3.9711
 9822TIP3   OH253660   5.015   3.763  11.485  0.2478  0.6064  0.0547
 9822TIP3    H153661   4.966   3.727  11.559 -0.3629 -0.1350 -0.6888
 9822TIP3    H253662   5.085   3.700  11.469  0.6040  0.9539  0.2283
 9823TIP3   OH253663   2.589   1.007  12.043 -0.4660  0.1870 -0.0580
 9823TIP3    H153664   2.669   1.038  12.084 -0.8719  0.2545  0.7084
 9823TIP3    H253665   2.598   0.912  12.040 -0.3892  0.1889  0.1026
 9824TIP3   OH253666   1.582   2.885  13.128 -0.4916  0.3046 -0.2915
 9824TIP3    H153667   1.629   2.833  13.193  0.7735  1.2153 -0.4422
 9824TIP3    H253668   1.505   2.917  13.174 -0.1797  0.0411  0.4247
 9825TIP3   OH253669   6.286   6.408  11.190  0.2745  0.1169 -0.2906
 9825TIP3    H153670   6.210   6.456  11.157  1.1804  1.5216 -0.4240
 9825TIP3    H253671   6.345   6.477  11.221  1.6043 -0.9334 -0.4382
 9826TIP3   OH253672   2.502   4.103  11.792 -0.3725 -0.0177  0.4043
 9826TIP3    H153673   2.597   4.093  11.794 -0.3611  0.1057  0.5279
 9826TIP3    H253674   2.473   4.065  11.876 -0.3670  0.6065  0.6940
 9827TIP3   OH253675   6.395   3.539  13.207  0.3614  0.3052 -0.0244
 9827TIP3    H153676   6.453   3.482  13.257 -0.7987 -0.4968  0.4333
 9827TIP3    H253677   6.440   3.550  13.122  0.6802 -1.1564 -0.0654
 9828TIP3   OH253678   2.721   5.741  11.372  0.6073  0.4261  0.2706
 9828TIP3    H153679   2.736   5.653  11.406 -2.2584 -0.4293 -0.3546
 9828TIP3    H253680   2.709   5.729  11.278 -0.5517  1.3255  0.2745
 9829TIP3   OH253681   3.192   6.782  13.668  0.0544 -0.3406 -0.0892
 9829TIP3    H153682   3.110   6.734  13.655 -0.0094 -0.3694  0.4200
 9829TIP3    H253683   3.179   6.830  13.750  0.3884 -0.0157 -0.2257
 9830TIP3   OH253684   3.284   1.475  11.614  0.1870 -0.4975 -0.2062
 9830TIP3    H153685   3.333   1.503  11.691 -0.1694 -2.2201  0.7031
 9830TIP3    H253686   3.346   1.484  11.541  0.5226  1.1633  0.2393
 9831TIP3   OH253687   4.465   3.877  11.020 -0.1202  0.0492  0.2318
 9831TIP3    H153688   4.482   3.784  11.031  0.2622  0.3389  2.3406
 9831TIP3    H253689   4.378   3.880  10.978  1.6648 -1.2572 -4.1746
 9832TIP3   OH253690   1.793   5.899  10.761 -0.2133 -0.3110  0.3126
 9832TIP3    H153691   1.727   5.876  10.696  1.9178 -0.2067 -2.0271
 9832TIP3    H253692   1.847   5.820  10.769  0.7840  0.3545  0.3489
 9833TIP3   OH253693   0.548   5.108  13.640  0.2090  0.0581  0.5148
 9833TIP3    H153694   0.509   5.151  13.564  0.7897 -1.2754 -0.5943
 9833TIP3    H253695   0.483   5.042  13.666  0.0773  0.4118  1.0810
 9834TIP3   OH253696   2.414   4.505  12.145  0.0020 -0.2665 -0.3142
 9834TIP3    H153697   2.357   4.461  12.208  0.2847 -0.3129 -0.0874
 9834TIP3    H253698   2.354   4.550  12.085 -0.3075 -1.2495 -0.7676
 9835TIP3   OH253699   6.482   1.764  11.099 -0.0863  0.3953 -0.1825
 9835TIP3    H153700   6.416   1.808  11.045  0.7460  0.0002 -1.5912
 9835TIP3    H253701   6.565   1.780  11.053  0.6568 -0.0409  0.9507
 9836TIP3   OH253702   1.936   7.610  11.000 -0.2409  0.0862 -0.9886
 9836TIP3    H153703   1.961   7.702  11.011 -0.1183  0.2317 -2.2956
 9836TIP3    H253704   2.009   7.561  11.038 -0.0762  0.5303 -0.7197
 9837TIP3   OH253705   1.365   5.147  11.412 -0.5660  0.3616  0.0921
 9837TIP3    H153706   1.443   5.107  11.451 -1.1860 -0.4398  0.5416
 9837TIP3    H253707   1.340   5.215  11.475 -0.6245  0.1608  0.2877
 9838TIP3   OH253708   5.604   7.301  13.099  0.4310  0.2747 -0.2053
 9838TIP3    H153709   5.637   7.236  13.161  1.6353 -0.8463 -1.9137
 9838TIP3    H253710   5.683   7.339  13.060 -0.2596  2.5047  0.4480
 9839TIP3   OH253711   6.763   6.438  12.378 -0.1071 -0.0255  0.0993
 9839TIP3    H153712   6.692   6.401  12.325  1.0326 -2.0486 -0.1156
 9839TIP3    H253713   6.720   6.503  12.433 -2.5105 -2.4014  1.2630
 9840TIP3   OH253714   2.111   5.699  10.905  0.5664  0.0740 -0.4230
 9840TIP3    H153715   2.107   5.794  10.914  1.0396  0.0339  0.2440
 9840TIP3    H253716   2.046   5.679  10.837  0.2600  0.8423 -0.3673
 9841TIP3   OH253717   2.497   0.565  11.301 -0.0243  0.0500  0.3492
 9841TIP3    H153718   2.433   0.521  11.356  0.5397 -0.0252  0.9548
 9841TIP3    H253719   2.459   0.563  11.213 -1.0559  0.4070  0.7735
 9842TIP3   OH253720   1.841   4.548  11.853 -1.0289  0.0183 -0.0853
 9842TIP3    H153721   1.919   4.516  11.898 -0.5721  1.7543  0.4418
 9842TIP3    H253722   1.829   4.637  11.887 -2.2500  0.3994 -1.4207
 9843TIP3   OH253723   7.529   2.683  12.252  0.3388  0.2111 -0.2019
 9843TIP3    H153724   7.491   2.759  12.207 -2.2839 -0.5699  0.5195
 9843TIP3    H253725   7.544   2.713  12.341  0.2676  0.1969 -0.1845
 9844TIP3   OH253726   3.243   5.734  10.891 -0.2773  0.9411 -0.6303
 9844TIP3    H153727   3.215   5.814  10.934  0.8111  0.5439  0.9181
 9844TIP3    H253728   3.298   5.763  10.818 -0.0936  1.6053 -0.2286
 9845TIP3   OH253729   5.079   6.547  11.231  0.5770  0.2820  0.2882
 9845TIP3    H153730   5.112   6.584  11.313  0.3477 -0.3111  0.6624
 9845TIP3    H253731   4.985   6.538  11.245  0.7565 -1.5184  0.6879
 9846TIP3   OH253732   6.608   1.421  11.791  0.0780  0.2077  0.0249
 9846TIP3    H153733   6.558   1.502  11.781  0.4549  0.4774  0.3163
 9846TIP3    H253734   6.543   1.352  11.778 -0.3146  0.5544  0.1112
 9847TIP3   OH253735   7.035   1.529  11.988 -0.4850  0.0019 -0.3439
 9847TIP3    H153736   7.067   1.440  12.002  0.3001  0.5185  1.4912
 9847TIP3    H253737   6.947   1.528  12.024 -0.1818  0.1457  0.4274
 9848TIP3   OH253738   2.137   3.775  12.356  0.2295  0.1129 -0.4796
 9848TIP3    H153739   2.102   3.864  12.354  1.8500  0.8108 -2.9381
 9848TIP3    H253740   2.228   3.785  12.385  0.3633 -0.7585 -0.5544
 9849TIP3   OH253741   1.718   4.464  12.812  0.3873 -0.1945 -0.4286
 9849TIP3    H153742   1.788   4.518  12.775  2.8994 -2.2119  1.0320
 9849TIP3    H253743   1.762   4.408  12.876 -1.8020 -4.3698 -2.1302
 9850TIP3   OH253744   4.265   4.967  11.138 -0.7299 -0.1189  0.0507
 9850TIP3    H153745   4.181   4.965  11.091 -0.8305 -2.0264  0.2006
 9850TIP3    H253746   4.258   4.895  11.201  0.8177  0.0458  0.4470
 9851TIP3   OH253747   3.199   2.944  12.216  0.2150  0.2667 -0.6092
 9851TIP3    H153748   3.190   3.014  12.152 -1.2679 -0.7483 -1.5903
 9851TIP3    H253749   3.293   2.938  12.233  0.3731  2.5537 -0.3593
 9852TIP3   OH253750   7.330   3.284  13.062 -0.2643 -0.4488 -0.0018
 9852TIP3    H153751   7.273   3.314  13.133 -0.0717  1.4658 -0.6019
 9852TIP3    H253752   7.408   3.252  13.106 -0.2830  0.4131  0.6686
 9853TIP3   OH253753   5.666   4.953  12.444  0.5348 -0.4144 -0.2341
 9853TIP3    H153754   5.742   5.008  12.464  0.0422  0.6293 -1.0959
 9853TIP3    H253755   5.615   5.005  12.381 -2.0419 -0.0942  1.9682
 9854TIP3   OH253756   3.237   3.249  11.467 -0.2169  0.3043  0.1338
 9854TIP3    H153757   3.273   3.327  11.425 -0.9682  1.0688  0.8804
 9854TIP3    H253758   3.145   3.247  11.440 -1.0811  1.5342  2.6504
 9855TIP3   OH253759   4.079   2.243  11.951 -0.1363 -0.0291 -0.1514
 9855TIP3    H153760   4.080   2.166  12.008 -1.6571 -0.3512 -0.4874
 9855TIP3    H253761   4.020   2.217  11.879 -0.6136  1.4196 -0.3035
 9856TIP3   OH253762   2.708   2.755  13.659  0.2202 -0.3062 -0.2454
 9856TIP3    H153763   2.774   2.793  13.602  0.4736  1.7448  1.3104
 9856TIP3    H253764   2.624   2.772  13.615  0.4571  0.6256 -0.3531
 9857TIP3   OH253765   3.098   1.862  11.475 -0.0477 -0.2261 -0.2549
 9857TIP3    H153766   3.013   1.821  11.462  0.1052 -1.5281  2.2634
 9857TIP3    H253767   3.157   1.816  11.414 -0.8632 -0.1725 -1.1064
 9858TIP3   OH253768   4.826   5.262  11.854  0.4511 -0.1419 -0.1786
 9858TIP3    H153769   4.741   5.247  11.812  0.1854  0.0049  0.2920
 9858TIP3    H253770   4.821   5.210  11.935  0.9359 -0.3874 -0.3058
 9859TIP3   OH253771   2.814   2.588  12.547 -0.5011  0.0810  0.4296
 9859TIP3    H153772   2.903   2.555  12.551 -0.2692  0.3673 -1.6179
 9859TIP3    H253773   2.821   2.681  12.571 -0.1516  0.2492 -0.3146
 9860TIP3   OH253774   5.526   2.545  12.032 -0.4290 -0.0539 -0.3942
 9860TIP3    H153775   5.605   2.562  11.981  0.1803  1.4059  0.9546
 9860TIP3    H253776   5.464   2.611  12.001 -0.4068  0.1667  0.0357
 9861TIP3   OH253777   2.903   5.324  11.744  0.1045 -0.3349  0.2062
 9861TIP3    H153778   2.981   5.270  11.737  0.8553  0.5684  1.3217
 9861TIP3    H253779   2.915   5.393  11.680  0.9681  0.6639  1.3958
 9862TIP3   OH253780   3.200   0.182  12.093 -0.1640  0.2013 -0.2496
 9862TIP3    H153781   3.179   0.095  12.060  0.8422  0.3953 -1.4776
 9862TIP3    H253782   3.274   0.211  12.040  0.3340  1.3006  0.9856
 9863TIP3   OH253783   3.610   3.802  12.365  0.0168 -0.0151  0.0458
 9863TIP3    H153784   3.625   3.887  12.324  0.3924 -1.5169 -3.1711
 9863TIP3    H253785   3.697   3.774  12.396 -0.1911  0.9034  1.5978
 9864TIP3   OH253786   7.215   1.686  12.150  0.0847 -0.2140  0.0531
 9864TIP3    H153787   7.177   1.648  12.070 -1.5339 -1.0998  1.1662
 9864TIP3    H253788   7.140   1.697  12.208  1.4047 -1.1246  2.0488
 9865TIP3   OH253789   6.943   1.997  12.011 -0.3647 -0.3636 -0.7748
 9865TIP3    H153790   6.889   2.075  12.014  0.3804  0.1362  0.6527
 9865TIP3    H253791   6.910   1.942  12.082  1.6790  0.4743  0.9445
 9866TIP3   OH253792   6.586   0.704  12.433  0.0937  0.5122 -0.1383
 9866TIP3    H153793   6.529   0.776  12.406 -1.3135 -0.3019  0.5694
 9866TIP3    H253794   6.612   0.727  12.523  0.6955  0.7544 -0.3672
 9867TIP3   OH253795   0.965   7.223  11.589 -0.7817  0.0168  0.1760
 9867TIP3    H153796   1.057   7.242  11.607 -0.9058  0.3380  0.4773
 9867TIP3    H253797   0.946   7.271  11.508 -0.5092 -0.5778 -0.2437
 9868TIP3   OH253798   4.688   3.953  11.580 -0.9347  0.0003  0.5139
 9868TIP3    H153799   4.768   3.978  11.627  0.2007  0.3459 -1.4712
 9868TIP3    H253800   4.643   4.036  11.563 -0.6878  0.0169 -0.0863
 9869TIP3   OH253801   3.168   2.479  11.310  0.0539 -0.0719 -0.0157
 9869TIP3    H153802   3.101   2.425  11.267 -0.6044  1.1458 -0.5884
 9869TIP3    H253803   3.118   2.546  11.356  0.8693  0.5053  0.0512
 9870TIP3   OH253804   6.454   5.311  13.100  0.1891 -0.1036 -0.2312
 9870TIP3    H153805   6.470   5.391  13.150  1.4592 -0.9752  0.8206
 9870TIP3    H253806   6.437   5.245  13.166 -0.2816 -0.8378 -1.0657
 9871TIP3   OH253807   3.244   6.857  12.416  0.9045 -0.0965 -0.4504
 9871TIP3    H153808   3.300   6.917  12.368  0.4784  1.1621  0.5687
 9871TIP3    H253809   3.304   6.794  12.456  1.4356  0.1901 -0.7906
 9872TIP3   OH253810   2.657   7.536  10.881 -0.1160 -0.0721  0.1871
 9872TIP3    H153811   2.626   7.445  10.878 -0.0713 -0.0692 -2.1358
 9872TIP3    H253812   2.576   7.588  10.885 -0.3867 -0.1638 -2.4557
 9873TIP3   OH253813   3.575   0.909  11.523  0.5363 -0.2832 -0.1723
 9873TIP3    H153814   3.587   1.003  11.509 -0.5062 -0.2953 -1.2819
 9873TIP3    H253815   3.533   0.903  11.609 -1.3541  0.4288 -1.0084
 9874TIP3   OH253816   6.385   6.087  11.953 -0.4122  0.0166  0.3475
 9874TIP3    H153817   6.301   6.083  11.908 -0.1571  0.8195 -0.2167
 9874TIP3    H253818   6.365   6.125  12.038 -0.7475 -0.5947  0.5463
 9875TIP3   OH253819   0.852   2.260  12.455  0.0890 -0.2655 -0.6261
 9875TIP3    H153820   0.780   2.232  12.511  0.2442 -0.4088 -0.4985
 9875TIP3    H253821   0.811   2.274  12.369 -0.1814  0.1327 -0.4334
 9876TIP3   OH253822   6.031   0.781  11.545 -0.3486 -0.3091 -0.0432
 9876TIP3    H153823   5.977   0.702  11.556 -1.2582  0.4817  1.6276
 9876TIP3    H253824   6.120   0.752  11.567 -0.3306 -1.2633 -1.2654
 9877TIP3   OH253825   6.362   5.274  12.192 -0.0135  0.2659  0.3226
 9877TIP3    H153826   6.300   5.255  12.262 -0.0683  0.3758  0.3032
 9877TIP3    H253827   6.403   5.190  12.173  0.7681  0.4294  1.2109
 9878TIP3   OH253828   2.503   2.318  12.994  0.5711 -0.0450 -0.0260
 9878TIP3    H153829   2.419   2.361  12.978 -0.2677 -1.0547  1.3918
 9878TIP3    H253830   2.498   2.235  12.947 -0.2235 -1.1488  1.8761
 9879TIP3   OH253831   2.929   7.097  11.139  0.5979  0.1909  0.5033
 9879TIP3    H153832   2.880   7.061  11.213  0.5985  1.2732  1.0368
 9879TIP3    H253833   2.991   7.159  11.178  1.8837 -0.5630 -0.2292
 9880TIP3   OH253834   5.835   3.916  11.124 -0.2901 -0.4551 -0.1155
 9880TIP3    H153835   5.882   3.838  11.154 -0.2443 -0.8723 -1.2187
 9880TIP3    H253836   5.743   3.892  11.126 -0.1869 -1.4287 -2.6786
 9881TIP3   OH253837   5.541   4.832  11.427  0.3580 -0.5160  0.2485
 9881TIP3    H153838   5.479   4.900  11.398  0.9155 -0.2345 -0.2894
 9881TIP3    H253839   5.583   4.870  11.504  2.6741  0.9605 -1.6106
 9882TIP3   OH253840   3.008   0.030  12.374 -0.3262 -0.3722  0.1614
 9882TIP3    H153841   3.050   0.032  12.460 -0.9762 -2.3141  0.5801
 9882TIP3    H253842   3.023   0.117  12.338  1.1806  0.0414  1.6488
 9883TIP3   OH253843   5.986   4.316  12.143  0.8546 -0.3331  0.5028
 9883TIP3    H153844   6.026   4.318  12.230  1.0532 -1.0021  0.4320
 9883TIP3    H253845   6.022   4.238  12.101  0.5441 -0.1743 -0.0785
 9884TIP3   OH253846   7.542   7.142  11.486  0.0760  0.7160  0.3885
 9884TIP3    H153847   7.552   7.133  11.581 -1.7514  0.7100  0.6217
 9884TIP3    H253848   7.611   7.086  11.449  0.1871 -0.0639  1.7165
 9885TIP3   OH253849   2.802   2.184  11.479  0.2340 -0.6030  0.0952
 9885TIP3    H153850   2.714   2.215  11.457  0.4429 -0.2700 -0.2852
 9885TIP3    H253851   2.788   2.113  11.543 -0.2716 -0.0808  0.5712
 9886TIP3   OH253852   3.047   6.852  12.614  0.0779 -0.7608 -0.5288
 9886TIP3    H153853   3.107   6.871  12.541  0.3432 -1.3616 -0.4758
 9886TIP3    H253854   3.070   6.763  12.641  0.8781 -0.1012  1.1475
 9887TIP3   OH253855   2.577   5.333  13.363  0.0129 -0.3520  0.1207
 9887TIP3    H153856   2.595   5.340  13.456 -0.6865 -2.5508  0.4824
 9887TIP3    H253857   2.663   5.321  13.322  0.2910  0.3158  0.4990
 9888TIP3   OH253858   2.106   1.225  11.958 -0.5059  0.0703  0.6477
 9888TIP3    H153859   2.161   1.147  11.961 -0.5262  0.0609  0.7813
 9888TIP3    H253860   2.037   1.208  12.022 -0.4516  0.2420  0.7522
 9889TIP3   OH253861   6.557   6.054  12.862  0.3008  0.0396 -0.1642
 9889TIP3    H153862   6.537   6.119  12.794  1.2601  0.7907  0.2612
 9889TIP3    H253863   6.473   6.039  12.905  0.0416  0.9185 -0.3392
 9890TIP3   OH253864   0.054   7.411  11.559 -0.7122 -0.1283  0.0324
 9890TIP3    H153865  -0.038   7.390  11.541 -1.0127  0.8709  0.3278
 9890TIP3    H253866   0.077   7.355  11.633 -1.4358  0.4207  0.6897
 9891TIP3   OH253867   0.920   4.517  11.157  0.3878 -0.1366  0.3532
 9891TIP3    H153868   0.962   4.432  11.142  2.9340  1.0331  0.3051
 9891TIP3    H253869   0.905   4.552  11.069 -0.8776 -0.6039  0.3684
 9892TIP3   OH253870   6.482   0.273  11.608  0.6081 -0.0168  0.3487
 9892TIP3    H153871   6.536   0.351  11.615  0.0949  0.2230  2.1071
 9892TIP3    H253872   6.412   0.297  11.547  1.0603  0.5046  0.0206
 9893TIP3   OH253873   5.856   0.787  11.074 -0.5579 -0.5843  0.0844
 9893TIP3    H153874   5.890   0.698  11.066 -0.7123 -0.6152 -0.2305
 9893TIP3    H253875   5.920   0.832  11.130 -0.0650 -0.6731 -0.4017
 9894TIP3   OH253876   6.520   1.825  11.643  0.1000 -0.3674  0.0716
 9894TIP3    H153877   6.592   1.808  11.704 -0.1728  1.0501  0.8197
 9894TIP3    H253878   6.551   1.897  11.589 -0.4791 -0.2195 -0.0684
 9895TIP3   OH253879   6.476   0.067  11.784  0.5248  0.1048  0.7344
 9895TIP3    H153880   6.505   0.114  11.706  1.1741 -1.5454 -0.0699
 9895TIP3    H253881   6.490   0.129  11.856  1.0796  1.2243 -0.2996
 9896TIP3   OH253882   4.902   2.943  12.450  0.3557  0.4192 -0.1452
 9896TIP3    H153883   4.827   2.884  12.438 -0.4958  1.7785 -1.9677
 9896TIP3    H253884   4.874   3.003  12.519  0.5997 -0.3091  0.6046
 9897TIP3   OH253885   0.619   3.586  11.208 -0.2022 -0.0452 -0.4132
 9897TIP3    H153886   0.675   3.634  11.269  0.1500 -1.4990  0.4475
 9897TIP3    H253887   0.654   3.606  11.121  0.5580  0.4373 -0.0023
 9898TIP3   OH253888   4.786   1.632  11.888  0.1976 -0.2879  1.0770
 9898TIP3    H153889   4.733   1.705  11.919  0.3728  0.2862  0.0721
 9898TIP3    H253890   4.751   1.612  11.801  1.9142  0.4361  0.1778
 9899TIP3   OH253891   0.259   4.351  13.270  0.6388 -0.2095  0.0873
 9899TIP3    H153892   0.171   4.319  13.248  0.1444  1.5455 -0.6962
 9899TIP3    H253893   0.277   4.316  13.357 -0.1552 -1.9271 -0.4076
 9900TIP3   OH253894   0.099   7.470  13.378 -0.6107  0.8737  0.1356
 9900TIP3    H153895   0.097   7.519  13.296 -1.6772  0.3576 -0.1631
 9900TIP3    H253896   0.040   7.518  13.436 -1.2691  0.2415  0.0023
 9901TIP3   OH253897   1.276   4.215  11.415 -0.2481  0.5888  0.1096
 9901TIP3    H153898   1.316   4.261  11.341  0.4465 -0.0350  0.0834
 9901TIP3    H253899   1.222   4.148  11.375  2.6013 -1.9122  0.0572
 9902TIP3   OH253900   3.690   5.562  12.159 -0.4670 -0.3559 -0.1366
 9902TIP3    H153901   3.678   5.501  12.086 -2.3566 -0.7570  0.4386
 9902TIP3    H253902   3.747   5.631  12.124  2.7550 -2.9506 -0.4606
 9903TIP3   OH253903   5.811   0.233  11.913 -0.7968  0.3154 -0.1692
 9903TIP3    H153904   5.843   0.144  11.927  1.3744  0.9773 -0.5342
 9903TIP3    H253905   5.782   0.233  11.821  3.1956  0.9694 -1.6359
 9904TIP3   OH253906   1.859   3.504  12.839 -0.0886 -0.1782 -0.5770
 9904TIP3    H153907   1.902   3.534  12.919 -0.7897 -0.3048 -0.1544
 9904TIP3    H253908   1.856   3.409  12.848  1.4649 -0.3679 -1.5832
 9905TIP3   OH253909   2.776   0.510  10.843  0.1374 -0.3821  0.4151
 9905TIP3    H153910   2.837   0.478  10.910  0.9198  1.1485  0.4590
 9905TIP3    H253911   2.706   0.445  10.843  1.0464 -1.4188  1.3875
 9906TIP3   OH253912   5.785   4.113  13.200 -0.4436  0.5050 -0.6214
 9906TIP3    H153913   5.727   4.058  13.148 -1.2049  0.7055  0.0040
 9906TIP3    H253914   5.739   4.197  13.207 -1.7509 -0.3296  2.6949
 9907TIP3   OH253915   7.364   2.558  11.325  0.4931  0.3256 -0.9032
 9907TIP3    H153916   7.353   2.488  11.389  2.3638  0.4349 -0.4144
 9907TIP3    H253917   7.336   2.519  11.242  0.4134 -0.6287 -0.4409
 9908TIP3   OH253918   0.334   1.670  11.920 -0.0756  0.3082 -0.2948
 9908TIP3    H153919   0.270   1.711  11.862 -0.4957  0.9608  0.6121
 9908TIP3    H253920   0.285   1.602  11.966  0.0337  0.3863 -0.0609
 9909TIP3   OH253921   6.284   7.522  13.059 -0.3185 -0.3591 -0.2170
 9909TIP3    H153922   6.309   7.445  13.110  0.7760 -0.3127 -0.6655
 9909TIP3    H253923   6.235   7.486  12.985  1.2959 -0.7797 -1.1361
 9910TIP3   OH253924   4.802   5.443  11.181 -0.8533  0.1330  0.3406
 9910TIP3    H153925   4.832   5.499  11.253  1.4041  1.1202 -1.2390
 9910TIP3    H253926   4.774   5.504  11.113 -1.0571 -0.7189 -0.3626
 9911TIP3   OH253927   7.137   3.300  12.346  0.2455  0.3762  0.3611
 9911TIP3    H153928   7.190   3.244  12.403 -2.0647  1.1664  3.5994
 9911TIP3    H253929   7.075   3.240  12.305  0.6584  0.0303  0.2334
 9912TIP3   OH253930   4.220   5.961  12.439  0.6211 -0.5248 -0.2222
 9912TIP3    H153931   4.263   6.032  12.487  1.6167 -1.1584 -0.1695
 9912TIP3    H253932   4.197   5.897  12.507 -1.3867  0.2579 -0.0906
 9913TIP3   OH253933   4.254   1.334  13.374 -0.2675  0.5214 -0.0491
 9913TIP3    H153934   4.294   1.420  13.387 -0.6611  0.5647  0.9571
 9913TIP3    H253935   4.319   1.272  13.408 -0.5067  0.5096  0.3955
 9914TIP3   OH253936   3.577   2.767  13.093  0.1534  0.1818  0.2129
 9914TIP3    H153937   3.493   2.807  13.114 -0.1887 -0.6725  0.5344
 9914TIP3    H253938   3.567   2.676  13.120  1.9009  0.5225  2.2647
 9915TIP3   OH253939   3.900   1.354  12.980 -0.2608 -0.2325 -0.1494
 9915TIP3    H153940   3.990   1.351  13.010 -0.4092 -2.3300  0.2643
 9915TIP3    H253941   3.897   1.293  12.906 -1.0669  0.8278 -1.0334
 9916TIP3   OH253942   0.014   0.898  11.792  0.5898 -0.2527  0.2377
 9916TIP3    H153943   0.089   0.888  11.851 -0.0033 -1.5594  0.8101
 9916TIP3    H253944   0.012   0.817  11.741  0.7665  0.6336 -1.2226
 9917TIP3   OH253945   1.543   3.917  13.620  0.0575  0.2071  0.1166
 9917TIP3    H153946   1.536   4.010  13.598  0.7714  0.8735  2.4196
 9917TIP3    H253947   1.453   3.887  13.626 -0.1774  0.5747 -1.2344
 9918TIP3   OH253948   2.922   4.262  13.101 -0.3968  0.1051 -0.1264
 9918TIP3    H153949   3.005   4.232  13.139  0.4389  1.5132 -0.7472
 9918TIP3    H253950   2.901   4.197  13.034 -0.2985 -0.7744  0.6910
 9919TIP3   OH253951   2.284   5.275  13.462 -0.0310  0.6130  0.4831
 9919TIP3    H153952   2.363   5.330  13.467  0.3294  0.0469  1.2562
 9919TIP3    H253953   2.238   5.291  13.544 -0.4847  0.5808  0.2378
 9920TIP3   OH253954   1.461   1.076  13.652 -0.1929 -0.2998 -0.1331
 9920TIP3    H153955   1.487   0.985  13.641  2.4546  0.0185  2.2611
 9920TIP3    H253956   1.410   1.077  13.733 -1.1924  0.2212 -0.7505
 9921TIP3   OH253957   3.177   7.082  12.214 -0.2636  0.4195  0.1645
 9921TIP3    H153958   3.182   7.123  12.300  1.2144 -0.1640  0.3820
 9921TIP3    H253959   3.263   7.095  12.175 -0.2910 -0.9771 -0.4456
 9922TIP3   OH253960   4.589   6.829  12.955 -0.0094 -0.5138 -0.3469
 9922TIP3    H153961   4.653   6.768  12.918 -0.6795 -1.3005 -0.2231
 9922TIP3    H253962   4.506   6.804  12.916 -0.1270  1.1090 -1.2373
 9923TIP3   OH253963   1.214   6.942  11.827 -0.0528 -0.2974 -0.4930
 9923TIP3    H153964   1.258   6.858  11.823 -2.5037 -1.6227 -2.1791
 9923TIP3    H253965   1.199   6.966  11.735 -1.1037  1.0007 -0.0218
 9924TIP3   OH253966   4.922   4.130  12.971 -0.4203 -0.1756 -0.7131
 9924TIP3    H153967   4.839   4.175  12.989 -0.0356 -0.6132  2.9946
 9924TIP3    H253968   4.976   4.196  12.927 -1.1913  1.7726  1.0710
 9925TIP3   OH253969   6.190   7.405  11.925 -0.8980  0.2549 -0.0990
 9925TIP3    H153970   6.134   7.372  11.995  0.9125 -0.7608  0.9636
 9925TIP3    H253971   6.133   7.413  11.849 -2.5220 -0.4142  1.0085
 9926TIP3   OH253972   2.265   7.231  12.087  0.5573 -0.5023  0.0631
 9926TIP3    H153973   2.284   7.155  12.032 -0.6521 -1.4740  0.9280
 9926TIP3    H253974   2.176   7.256  12.062  1.3547  1.4291 -1.0701
 9927TIP3   OH253975   2.519   5.278  11.564  0.2356 -0.1527 -0.2967
 9927TIP3    H153976   2.518   5.195  11.612  1.4195 -0.4074 -0.6678
 9927TIP3    H253977   2.559   5.340  11.625 -0.0545 -0.0088 -0.2527
 9928TIP3   OH253978   5.114   7.418  11.859 -0.5338  0.4522  0.0084
 9928TIP3    H153979   5.203   7.401  11.887 -0.4806  1.3507  0.4098
 9928TIP3    H253980   5.077   7.331  11.841  0.7644  0.1334 -1.2837
 9929TIP3   OH253981   4.708   2.271  11.352  0.1997  0.6123 -0.1714
 9929TIP3    H153982   4.643   2.241  11.416  0.8804  1.3623  0.9091
 9929TIP3    H253983   4.700   2.366  11.352 -0.6751  0.5925 -2.2020
 9930TIP3   OH253984   2.187   7.488  13.183  0.4648 -0.0580 -0.2540
 9930TIP3    H153985   2.251   7.460  13.249  0.5309  0.2332 -0.1935
 9930TIP3    H253986   2.239   7.537  13.119  0.8827 -2.5541 -1.9348
 9931TIP3   OH253987   1.046   0.912  11.886 -0.6489 -0.0380 -0.5165
 9931TIP3    H153988   1.089   0.845  11.833 -1.3010 -0.8816  0.0007
 9931TIP3    H253989   1.071   0.892  11.976 -2.5977 -0.9717 -0.1181
 9932TIP3   OH253990   2.945   2.366  12.181 -0.0336 -0.3176  0.1906
 9932TIP3    H153991   2.904   2.445  12.216  0.9420  0.3470 -0.1182
 9932TIP3    H253992   2.878   2.299  12.187 -0.4069  0.1639  1.8756
 9933TIP3   OH253993   3.005   0.698  11.710  0.6048 -0.1932 -0.4052
 9933TIP3    H153994   2.938   0.693  11.642  0.2261  0.3944 -0.0835
 9933TIP3    H253995   3.062   0.623  11.693 -0.6956 -1.2897 -0.0758
 9934TIP3   OH253996   2.973   3.630  11.522 -0.6992  0.2742 -0.3289
 9934TIP3    H153997   3.057   3.671  11.545 -1.2553  1.3306 -0.1276
 9934TIP3    H253998   2.992   3.536  11.522  0.5493  0.5082 -0.5575
 9935TIP3   OH253999   0.570   1.989  12.117 -0.2263  0.4368 -0.5145
 9935TIP3    H154000   0.560   2.019  12.026  0.6826  1.1770 -0.3900
 9935TIP3    H254001   0.576   1.894  12.111  2.2326  0.5841 -1.5060
 9936TIP3   OH254002   2.819   3.646  11.306  0.7964 -0.4900  0.3155
 9936TIP3    H154003   2.866   3.639  11.389  0.3115  0.0208  0.6432
 9936TIP3    H254004   2.748   3.582  11.313 -0.1302  0.5762  0.9129
 9937TIP3   OH254005   0.058   5.768  12.414  0.2484  0.2070 -0.0823
 9937TIP3    H154006   0.108   5.836  12.369  1.0258 -1.2119 -1.4664
 9937TIP3    H254007  -0.020   5.812  12.446  1.0801  1.8922 -0.2849
 9938TIP3   OH254008   6.157   0.438  11.052  0.0687  0.3037 -0.5887
 9938TIP3    H154009   6.223   0.508  11.056  0.0066  0.3335  0.0064
 9938TIP3    H254010   6.205   0.359  11.076 -0.4154  0.5522  1.2977
 9939TIP3   OH254011   4.149   3.609  12.640 -0.9409  0.0043 -0.3451
 9939TIP3    H154012   4.134   3.633  12.549  0.4976  2.0366 -0.1281
 9939TIP3    H254013   4.100   3.675  12.690 -1.9899 -1.2862  0.3748
 9940TIP3   OH254014   3.712   3.797  12.724 -0.3712  0.7622 -0.1682
 9940TIP3    H154015   3.728   3.760  12.637 -1.2875  0.4701 -0.2189
 9940TIP3    H254016   3.736   3.890  12.715 -0.9778  0.8570 -0.8795
 9941TIP3   OH254017   6.376   2.333  12.371  0.0166 -0.1719  0.0159
 9941TIP3    H154018   6.287   2.328  12.405 -0.2197 -2.2180 -0.7243
 9941TIP3    H254019   6.431   2.351  12.447 -0.8915 -0.4079  0.7392
 9942TIP3   OH254020   6.561   0.791  11.177  0.1120  0.2791  0.0647
 9942TIP3    H154021   6.531   0.710  11.219 -1.5264  0.9219  0.2025
 9942TIP3    H254022   6.584   0.764  11.088 -1.3407 -0.2027 -0.1941
 9943TIP3   OH254023   0.063   4.932  11.489 -0.7003  0.3014 -0.6451
 9943TIP3    H154024   0.029   5.016  11.520  0.2410  0.8004 -0.9156
 9943TIP3    H254025  -0.013   4.874  11.488 -1.2827  1.0360 -0.0575
 9944TIP3   OH254026   1.176   3.498  11.400  0.0014  0.6403 -0.7287
 9944TIP3    H154027   1.220   3.415  11.416 -0.1053  0.6839 -0.1782
 9944TIP3    H254028   1.116   3.508  11.474 -2.3724 -0.3465 -2.3859
 9945TIP3   OH254029   0.575   1.414  11.314  0.6384 -0.3802 -0.2619
 9945TIP3    H154030   0.497   1.370  11.349  0.6168 -0.4593 -0.4037
 9945TIP3    H254031   0.541   1.469  11.243  0.6378  0.0380  0.0598
 9946TIP3   OH254032   7.057   3.684  11.689  0.2381  0.0579 -0.7348
 9946TIP3    H154033   7.087   3.761  11.640 -1.4166  1.0368 -0.2986
 9946TIP3    H254034   6.968   3.668  11.656 -0.0862 -0.5998  0.4011
 9947TIP3   OH254035   2.592   2.576  12.693 -0.2738  1.0780 -0.4593
 9947TIP3    H154036   2.668   2.555  12.639  0.5538  0.5827  0.8521
 9947TIP3    H254037   2.607   2.665  12.724  1.1575  0.1096  1.9216
 9948TIP3   OH254038   1.600   5.221  13.142 -0.3754 -0.6855  0.0760
 9948TIP3    H154039   1.667   5.173  13.093 -0.5974 -1.2353  0.3046
 9948TIP3    H254040   1.649   5.287  13.191 -0.1959  0.2366 -1.2762
 9949TIP3   OH254041   1.204   4.472  11.649 -0.4556  0.2747  0.0466
 9949TIP3    H154042   1.283   4.441  11.694  0.9862  0.3589 -2.2565
 9949TIP3    H254043   1.158   4.392  11.625 -2.9877  0.1611  4.1781
 9950TIP3   OH254044   1.647   5.141  11.218  0.1190  0.3720  0.0124
 9950TIP3    H154045   1.659   5.173  11.129  0.5240  0.5976  0.1497
 9950TIP3    H254046   1.671   5.214  11.274  1.9354 -0.4164  0.3469
 9951TIP3   OH254047   3.928   6.791  11.534  0.0014 -0.1066  0.5443
 9951TIP3    H154048   3.851   6.735  11.529 -1.2384  1.2086  2.9093
 9951TIP3    H254049   3.928   6.824  11.624  3.2068  0.1722  0.5752
 9952TIP3   OH254050   5.785   4.432  12.570  0.4821 -0.2118 -0.1602
 9952TIP3    H154051   5.807   4.461  12.659 -1.1421 -1.1504  0.5985
 9952TIP3    H254052   5.723   4.498  12.539  0.0582 -0.5671 -0.0801
 9953TIP3   OH254053   1.039   2.629  11.036 -0.3126 -0.1474  0.3204
 9953TIP3    H154054   1.042   2.700  10.972 -0.4674  0.9965  1.5512
 9953TIP3    H254055   0.957   2.642  11.083  0.3513 -0.2452  1.5588
 9954TIP3   OH254056   4.766   3.901  13.865 -0.0297  0.2689 -0.7083
 9954TIP3    H154057   4.745   3.853  13.785  1.6217  0.0711 -1.0499
 9954TIP3    H254058   4.844   3.951  13.844 -1.0731  2.2931 -0.0025
 9955TIP3   OH254059   5.476   0.660  12.094 -0.0664  0.1130 -0.3162
 9955TIP3    H154060   5.392   0.615  12.089 -0.7567  1.4751 -1.6897
 9955TIP3    H254061   5.536   0.594  12.129 -1.2591 -1.5131 -1.1851
 9956TIP3   OH254062   4.836   5.027  11.157  0.0828  0.2084  0.3110
 9956TIP3    H154063   4.781   5.058  11.229  0.3822  0.5773  0.3842
 9956TIP3    H254064   4.871   4.944  11.187 -0.4399 -0.0366  0.2610
 9957TIP3   OH254065   1.027   2.344  12.903  0.1277 -0.2288  0.4294
 9957TIP3    H154066   0.957   2.298  12.950  0.2871 -1.0043 -0.0819
 9957TIP3    H254067   1.076   2.275  12.858  0.7838  0.3776  0.1930
 9958TIP3   OH254068   1.211   6.728  11.218  0.1594 -0.1743  0.1123
 9958TIP3    H154069   1.129   6.679  11.219 -0.9529  1.5663  1.6909
 9958TIP3    H254070   1.275   6.667  11.182 -1.6484 -1.8505 -0.4643
 9959TIP3   OH254071   2.722   1.492  10.863  0.3464 -0.2166 -0.2283
 9959TIP3    H154072   2.680   1.578  10.860  0.1547 -0.2835  0.3693
 9959TIP3    H254073   2.651   1.430  10.850  0.5680 -0.2744 -1.2047
 9960TIP3   OH254074   1.574   6.058  11.630 -0.0668  0.2765 -0.4097
 9960TIP3    H154075   1.534   6.117  11.694  0.0252  0.3134 -0.3862
 9960TIP3    H254076   1.653   6.027  11.673  0.1641  0.5533 -0.6321
 9961TIP3   OH254077   7.122   5.097  11.676  0.0788 -0.1588  0.1845
 9961TIP3    H154078   7.026   5.092  11.683  0.1263 -0.2865  0.8899
 9961TIP3    H254079   7.147   5.156  11.747  0.6257 -1.1845  0.8712
 9962TIP3   OH254080   2.195   6.429  13.112  0.1429  0.1009 -0.0486
 9962TIP3    H154081   2.247   6.505  13.137 -0.3929  0.3475  0.3322
 9962TIP3    H254082   2.237   6.397  13.032  1.3454 -0.1782  0.6666
 9963TIP3   OH254083   6.129   3.971  12.793  0.6814 -0.2550  0.4787
 9963TIP3    H154084   6.114   4.052  12.744  1.7413 -1.0261 -1.2240
 9963TIP3    H254085   6.046   3.953  12.837 -1.1834 -0.6818 -2.8568
 9964TIP3   OH254086   0.249   2.650  11.842 -0.4400  0.3285  0.2393
 9964TIP3    H154087   0.263   2.736  11.803 -0.5714 -0.0377 -0.6275
 9964TIP3    H254088   0.160   2.625  11.815  0.9958 -1.8902 -3.1143
 9965TIP3   OH254089   6.711   2.484  11.720  0.7303  0.1942 -0.0394
 9965TIP3    H154090   6.768   2.460  11.648  0.4492 -0.3779 -0.0702
 9965TIP3    H254091   6.631   2.434  11.706  0.1765  1.0572 -0.0501
 9966TIP3   OH254092   2.093   7.534  11.621  0.3877  0.0698 -0.1929
 9966TIP3    H154093   2.135   7.477  11.684 -0.6703  0.9435  1.3674
 9966TIP3    H254094   2.162   7.595  11.593  1.4579 -1.7227 -1.6999
 9967TIP3   OH254095   0.658   5.545  11.669 -0.3405 -0.0877  0.6576
 9967TIP3    H154096   0.687   5.468  11.718 -0.0608  0.4164  1.3160
 9967TIP3    H254097   0.641   5.513  11.581 -0.7883 -1.0134  1.0660
 9968TIP3   OH254098   7.114   0.132  11.862 -0.1751 -0.0903 -0.4868
 9968TIP3    H154099   7.190   0.105  11.809  1.0531  1.7251  0.2495
 9968TIP3    H254100   7.066   0.051  11.877  0.8556 -1.0788 -2.1631
 9969TIP3   OH254101   1.233   1.392  10.858 -0.7523 -0.2043  0.1046
 9969TIP3    H154102   1.317   1.367  10.897 -0.5161 -0.0940 -0.3242
 9969TIP3    H254103   1.181   1.312  10.858 -1.0045 -0.0629  1.2485
 9970TIP3   OH254104   7.022   5.754  12.098 -0.4172 -0.0942  0.1466
 9970TIP3    H154105   6.996   5.697  12.026  0.5887  0.5699 -0.7869
 9970TIP3    H254106   7.006   5.843  12.066 -1.7234  0.1843  1.4762
 9971TIP3   OH254107   3.432   4.568  13.739  0.4398  0.1971  0.2160
 9971TIP3    H154108   3.500   4.619  13.784 -1.9596  2.5844  1.4127
 9971TIP3    H254109   3.418   4.614  13.656  1.3772 -1.3017 -0.8405
 9972TIP3   OH254110   5.466   7.512  12.960 -0.3064  0.1942 -0.4832
 9972TIP3    H154111   5.509   7.441  13.008  0.6349  1.7119  1.0405
 9972TIP3    H254112   5.373   7.502  12.982 -0.2861 -0.9012 -0.7943
 9973TIP3   OH254113   7.305   2.762  12.691 -0.0024  0.4725  0.4700
 9973TIP3    H154114   7.314   2.765  12.596  1.6132 -0.9701  0.5158
 9973TIP3    H254115   7.227   2.707  12.706  0.1607  0.0967 -0.0262
 9974TIP3   OH254116   5.176   7.504  13.089 -0.3704  0.1709  0.2053
 9974TIP3    H154117   5.216   7.585  13.120 -1.3721  0.4029  0.9580
 9974TIP3    H254118   5.100   7.491  13.146  0.4250 -1.9382  0.8747
 9975TIP3   OH254119   0.963   3.802  11.959 -0.1602  0.3676  0.4697
 9975TIP3    H154120   0.875   3.790  11.995  0.1839 -0.9425  0.9133
 9975TIP3    H254121   0.994   3.883  11.999 -0.3366 -0.3143  2.0552
 9976TIP3   OH254122   1.082   2.775  11.366 -0.2981 -0.1565 -0.0850
 9976TIP3    H154123   1.062   2.829  11.290  1.6924  1.4724  0.4644
 9976TIP3    H254124   1.140   2.707  11.332  0.6657  0.6248 -0.0521
 9977TIP3   OH254125   3.266   4.836  12.334  0.2465  0.0921  0.2664
 9977TIP3    H154126   3.260   4.916  12.282 -0.5544 -0.6397 -0.8163
 9977TIP3    H254127   3.351   4.842  12.378  1.9327 -0.1772 -2.7051
 9978TIP3   OH254128   2.406   5.732  12.914  0.1294  0.1061 -0.4525
 9978TIP3    H154129   2.392   5.667  12.845  1.1317  1.5208 -2.0805
 9978TIP3    H254130   2.452   5.803  12.870  0.9147  1.0302  1.7309
 9979TIP3   OH254131   2.124   2.963  10.805 -0.4029 -0.0148 -0.2454
 9979TIP3    H154132   2.142   2.985  10.714 -0.3065  1.6942  0.1441
 9979TIP3    H254133   2.152   3.040  10.854 -3.5535  0.5275  0.9174
 9980TIP3   OH254134   0.451   2.596  11.293  0.4527  0.3050 -0.6163
 9980TIP3    H154135   0.402   2.673  11.262  1.1956  1.5232  1.0802
 9980TIP3    H254136   0.383   2.532  11.312 -0.1442  0.1967 -2.7714
 9981TIP3   OH254137   2.087   2.286  11.618  0.1539  0.4893 -0.0293
 9981TIP3    H154138   2.144   2.247  11.551 -0.1051  2.0085 -1.1652
 9981TIP3    H254139   2.007   2.309  11.571 -1.0327 -0.6471  1.3415
 9982TIP3   OH254140   2.531   5.650  11.108 -0.8658 -0.5230 -0.0284
 9982TIP3    H154141   2.489   5.706  11.172 -1.0396  0.5768 -1.0744
 9982TIP3    H254142   2.473   5.575  11.099 -0.6668 -0.8592  1.3256
 9983TIP3   OH254143   2.735   3.771  11.602  0.2080 -0.2594  0.0101
 9983TIP3    H154144   2.813   3.724  11.571 -0.7053 -0.9139 -1.4125
 9983TIP3    H254145   2.667   3.703  11.607 -0.6633  0.5727 -0.2848
 9984TIP3   OH254146   3.988   4.941  12.851 -0.1235 -0.2461  0.0481
 9984TIP3    H154147   4.068   4.958  12.900  0.0284 -1.2271  0.1601
 9984TIP3    H254148   3.917   4.951  12.915 -0.1205  0.8045 -0.0938
 9985TIP3   OH254149   3.900   5.230  10.980  0.6350 -0.0091 -0.0568
 9985TIP3    H154150   3.963   5.301  10.970  0.2450  0.3350 -0.1231
 9985TIP3    H254151   3.949   5.150  10.962  0.9384  0.2919 -0.5562
 9986TIP3   OH254152   2.741   6.605  13.411  0.1266  0.6150 -0.1188
 9986TIP3    H154153   2.698   6.670  13.466 -1.5461  0.5777 -1.3169
 9986TIP3    H254154   2.674   6.538  13.396  0.5707  0.5348 -2.0422
 9987TIP3   OH254155   7.020   0.088  12.421 -0.0109  0.7702 -0.2249
 9987TIP3    H154156   7.101   0.072  12.373  1.4866  1.2620  2.0185
 9987TIP3    H254157   7.037   0.054  12.509 -1.8844  1.7761  0.5742
 9988TIP3   OH254158   7.017   4.388  12.146 -0.0086 -0.2507  0.1487
 9988TIP3    H154159   7.056   4.385  12.234 -0.4461 -0.0817  0.3519
 9988TIP3    H254160   6.977   4.475  12.141 -1.7323 -0.9827  0.5477
 9989TIP3   OH254161   4.028   5.266  12.254 -0.2012 -0.3008  0.2494
 9989TIP3    H154162   4.078   5.186  12.269  0.5273 -0.2473 -1.6679
 9989TIP3    H254163   3.978   5.249  12.175 -1.0518  0.6811  0.5554
 9990TIP3   OH254164   4.936   0.959  13.056 -0.0187 -0.1472 -0.2185
 9990TIP3    H154165   5.018   0.982  13.012 -0.6665 -0.4039 -1.5975
 9990TIP3    H254166   4.964   0.929  13.143  1.3699 -0.3523 -0.7014
 9991TIP3   OH254167   3.610   6.839  11.826  0.0851 -0.1138  0.1273
 9991TIP3    H154168   3.533   6.804  11.782  0.6196 -1.4937  0.2137
 9991TIP3    H254169   3.644   6.906  11.767 -0.0257 -0.9255 -0.8908
 9992TIP3   OH254170   1.698   1.290  12.021  0.3363  0.0815 -0.0918
 9992TIP3    H154171   1.760   1.292  11.948  0.9383  0.4305  0.4083
 9992TIP3    H254172   1.651   1.373  12.015  1.5833  0.8979  0.8933
 9993TIP3   OH254173   5.179   6.550  12.275 -0.0989 -0.3228  0.5558
 9993TIP3    H154174   5.168   6.599  12.193 -1.2451 -1.6389 -0.1099
 9993TIP3    H254175   5.107   6.487  12.276  1.1579 -1.8301  1.4955
 9994TIP3   OH254176   5.667   5.301  12.030  0.2737  0.1949 -0.2031
 9994TIP3    H154177   5.582   5.345  12.031 -0.1730 -0.6147 -1.1933
 9994TIP3    H254178   5.728   5.368  12.060 -0.5433  1.1451 -0.5757
 9995TIP3   OH254179   6.126   3.930  12.325 -0.3537  0.2128 -0.9722
 9995TIP3    H154180   6.184   3.989  12.374 -0.8365  0.3366 -0.5521
 9995TIP3    H254181   6.042   3.937  12.368 -0.9530  0.7684 -2.1699
 9996TIP3   OH254182   7.363   3.014  13.515 -0.5240  0.0676 -0.2254
 9996TIP3    H154183   7.338   3.105  13.531 -1.3372  0.0707 -1.3971
 9996TIP3    H254184   7.294   2.962  13.557 -1.9697  0.0657 -2.4249
 9997TIP3   OH254185   4.357   3.353  12.256  0.4386  0.0992 -0.3124
 9997TIP3    H154186   4.334   3.437  12.215  2.3042  0.9957  0.3396
 9997TIP3    H254187   4.399   3.378  12.339 -0.1520 -1.5533  0.5408
 9998TIP3   OH254188   0.859   2.108  11.942 -0.5556  0.1882  0.4077
 9998TIP3    H154189   0.951   2.132  11.952 -0.5560  0.7589 -0.7600
 9998TIP3    H254190   0.856   2.015  11.965  0.1836  0.3157  1.0912
 9999TIP3   OH254191   5.136   0.621  12.594  0.1245  0.7953 -0.2606
 9999TIP3    H154192   5.060   0.585  12.549  1.7559 -2.3554 -0.8008
 9999TIP3    H254193   5.187   0.664  12.526  1.0312 -1.1902 -0.9048
10000TIP3   OH254194   2.449   4.896  13.695 -0.4247 -0.2025 -0.2721
10000TIP3    H154195   2.533   4.915  13.654 -0.0827  1.0244  0.9091
10000TIP3    H254196   2.392   4.869  13.623  0.9198 -0.9301 -1.1133
10001TIP3   OH254197   4.090   6.214  13.185  0.0502  0.0054 -0.8944
10001TIP3    H154198   4.051   6.129  13.203 -0.8447  0.4250 -0.7991
10001TIP3    H254199   4.128   6.242  13.268 -2.3002  1.0295 -0.0782
10002TIP3   OH254200   0.117   0.070  12.779  0.1346 -0.0720 -0.6333
10002TIP3    H154201   0.167   0.084  12.859 -1.7844  1.3310  0.4132
10002TIP3    H254202   0.137   0.146  12.724 -2.5420  1.8630  0.8191
10003TIP3   OH254203   7.600   3.025  11.726  0.5217 -0.6238  0.5053
10003TIP3    H154204   7.646   3.101  11.692 -0.1104 -1.2880 -2.0534
10003TIP3    H254205   7.522   3.017  11.671  1.6336 -4.3026 -0.8720
10004TIP3   OH254206   4.143   3.319  12.625 -0.8199  0.4566  0.2488
10004TIP3    H154207   4.078   3.279  12.567 -1.0852  0.6606  0.4039
10004TIP3    H254208   4.146   3.411  12.598 -1.5070  0.7276  1.0576
10005TIP3   OH254209   4.576   0.970  11.080  0.0917 -0.3295 -0.2121
10005TIP3    H154210   4.551   0.968  11.173 -1.1361 -2.4214 -0.5174
10005TIP3    H254211   4.509   1.024  11.039 -0.5879 -1.0947 -0.1474
10006TIP3   OH254212   4.609   2.008  11.322  0.1310  0.1021 -0.3440
10006TIP3    H154213   4.632   1.929  11.273 -0.0826  0.8715 -1.7511
10006TIP3    H254214   4.653   2.079  11.275 -0.2834  0.9096  0.4524
10007TIP3   OH254215   6.495   1.062  11.983  0.1963 -0.3143 -0.2696
10007TIP3    H154216   6.403   1.048  11.961  0.4759  0.4595 -2.1151
10007TIP3    H254217   6.538   0.979  11.962  0.2963  0.1104 -1.8556
10008TIP3   OH254218   7.177   5.239  11.898 -0.2062 -0.2925  0.4156
10008TIP3    H154219   7.227   5.319  11.914 -1.0049  0.6127 -1.3460
10008TIP3    H254220   7.161   5.203  11.985  1.2672  0.7683  1.1670
10009TIP3   OH254221   6.482   0.952  11.619 -0.3732  0.5363 -0.5722
10009TIP3    H154222   6.462   1.040  11.650 -1.6745  0.4298 -1.0583
10009TIP3    H254223   6.566   0.931  11.659 -0.4370  1.6826  0.1991
10010TIP3   OH254224   1.210   3.375  13.089  0.1738 -0.5474 -0.2530
10010TIP3    H154225   1.174   3.420  13.166 -1.8993 -2.8446  0.2473
10010TIP3    H254226   1.202   3.439  13.018 -1.4276  0.3721  0.6893
10011TIP3   OH254227   1.441   4.615  12.314 -0.3437  0.3263  0.4348
10011TIP3    H154228   1.476   4.527  12.296  0.6920  0.4077  1.8978
10011TIP3    H254229   1.348   4.600  12.330 -0.7581 -0.1068 -1.9673
10012TIP3   OH254230   0.645   4.759  12.677 -0.2419 -0.2066 -0.7075
10012TIP3    H154231   0.724   4.812  12.677 -1.2768  1.4343  0.3856
10012TIP3    H254232   0.631   4.735  12.769 -1.9401  1.0527 -0.5919
10013TIP3   OH254233   3.946   0.984  11.911 -0.0009 -0.4293 -0.1094
10013TIP3    H154234   4.039   0.962  11.918  0.6640  2.1058  0.2200
10013TIP3    H254235   3.926   1.029  11.993 -0.7623  1.3180 -1.1788
10014TIP3   OH254236   2.315   5.666  13.536  0.1296 -0.3982 -0.4886
10014TIP3    H154237   2.391   5.637  13.486  0.5357  1.5527 -1.0528
10014TIP3    H254238   2.313   5.606  13.611  2.3483 -0.3884 -0.3428
10015TIP3   OH254239   1.252   5.333  11.604 -0.0905 -0.0251  0.1752
10015TIP3    H154240   1.310   5.295  11.669 -1.0008  0.4712  1.3235
10015TIP3    H254241   1.165   5.301  11.627 -0.1977 -1.6969 -2.2004
10016TIP3   OH254242   1.507   7.106  11.815 -0.0273  0.5641 -0.0669
10016TIP3    H154243   1.533   7.124  11.905  1.4530 -0.3626 -0.2810
10016TIP3    H254244   1.566   7.159  11.761  1.5010 -1.4969 -0.5570
10017TIP3   OH254245   1.933   1.621  11.333  0.3457  0.1372 -0.2132
10017TIP3    H154246   1.978   1.698  11.367 -0.5801  0.3660  0.5235
10017TIP3    H254247   1.844   1.651  11.313  0.2036 -0.5477 -0.6679
10018TIP3   OH254248   7.668   5.372  12.827 -0.0141 -0.5818 -0.0734
10018TIP3    H154249   7.623   5.444  12.782  0.5399  0.0859  0.4120
10018TIP3    H254250   7.665   5.396  12.919  2.2784  0.0561 -0.0995
10019TIP3   OH254251   3.846   2.659  11.028 -0.2967 -0.1051 -0.3331
10019TIP3    H154252   3.779   2.701  10.974  0.0442  1.5640  0.4554
10019TIP3    H254253   3.800   2.639  11.110 -0.9828 -3.2016 -1.3524
10020TIP3   OH254254   1.809   2.997  13.051  0.3042 -0.0179  0.9703
10020TIP3    H154255   1.734   2.938  13.060  0.5355 -0.6110 -0.7628
10020TIP3    H254256   1.849   2.997  13.138 -1.7672  0.4347  1.9933
10021TIP3   OH254257   6.431   5.045  10.847 -0.0215 -0.2850  0.5008
10021TIP3    H154258   6.460   5.135  10.835 -1.5393  0.0920 -0.4976
10021TIP3    H254259   6.383   5.045  10.930  0.9976 -0.4621  1.1086
10022TIP3   OH254260   7.443   7.422  11.465  0.0683  0.0060  0.0381
10022TIP3    H154261   7.477   7.512  11.465  0.1296  0.0172  1.5256
10022TIP3    H254262   7.469   7.387  11.380  0.6659  1.1739 -0.2930
10023TIP3   OH254263   3.270   0.592  11.624  0.7136 -0.1060  0.3258
10023TIP3    H154264   3.308   0.673  11.658  0.5515  0.3884 -0.6401
10023TIP3    H254265   3.299   0.525  11.685 -0.1914  0.8572  1.8659
10024TIP3   OH254266   5.077   7.569  10.852 -0.2608  0.0069 -0.0709
10024TIP3    H154267   5.117   7.481  10.852  1.8552  0.9090 -0.1811
10024TIP3    H254268   5.143   7.625  10.810 -1.1650  1.8190  0.8259
10025TIP3   OH254269   6.977   3.712  10.746  0.3672 -0.7548  0.1978
10025TIP3    H154270   6.963   3.700  10.840  0.8292  0.2490  0.4117
10025TIP3    H254271   6.930   3.793  10.725 -0.0533 -1.1748 -0.5227
10026TIP3   OH254272   6.693   6.834  11.454  0.3599 -0.3745 -0.2849
10026TIP3    H154273   6.625   6.807  11.516 -1.0100  1.9171 -0.6558
10026TIP3    H254274   6.768   6.778  11.475 -1.6267 -3.1168  0.0395
10027TIP3   OH254275   6.206   3.751  13.190 -0.3428 -0.0945  0.0994
10027TIP3    H154276   6.265   3.694  13.238 -1.0991 -1.0966 -0.1260
10027TIP3    H254277   6.123   3.703  13.187  0.1756 -1.1248 -3.9597
10028TIP3   OH254278   7.237   7.553  11.851 -0.2303 -0.3367 -0.0780
10028TIP3    H154279   7.317   7.501  11.847  0.9446  1.2189  1.5897
10028TIP3    H254280   7.173   7.502  11.802  1.8154 -1.5089 -1.6971
10029TIP3   OH254281   7.660   5.109  12.734 -0.4917  0.4370  0.2582
10029TIP3    H154282   7.665   5.115  12.639  3.7642  0.6717  0.2671
10029TIP3    H254283   7.666   5.199  12.765  2.0121  0.2323  0.6104
10030TIP3   OH254284   4.702   1.473  13.239  0.1867 -0.0840 -0.0241
10030TIP3    H154285   4.634   1.406  13.243  0.6529 -0.9322 -3.3612
10030TIP3    H254286   4.674   1.531  13.168  1.7625  0.9313  0.1394
10031TIP3   OH254287   0.561   6.603  11.205 -0.3963 -0.0692 -0.0148
10031TIP3    H154288   0.647   6.579  11.170  0.2026 -0.3799  1.5601
10031TIP3    H254289   0.520   6.519  11.228 -1.2634  0.0589 -1.0019
10032TIP3   OH254290   4.109   2.743  11.763  0.2123  0.0464  0.0932
10032TIP3    H154291   4.111   2.669  11.703  1.1151 -1.4923  1.9388
10032TIP3    H254292   4.017   2.753  11.786  0.0842 -0.5017 -0.1772
10033TIP3   OH254293   2.645   4.183  12.806  0.0688 -0.4959  0.1654
10033TIP3    H154294   2.731   4.142  12.811  0.1237 -0.4970 -0.6451
10033TIP3    H254295   2.617   4.191  12.897  0.8106 -0.7322  0.4243
10034TIP3   OH254296   3.656   4.260  13.801  0.0026  0.0113  0.5100
10034TIP3    H154297   3.702   4.320  13.858  0.8194 -0.7215  0.6447
10034TIP3    H254298   3.710   4.181  13.800 -1.7316 -1.2656  1.4948
10035TIP3   OH254299   4.432   0.239  11.102 -0.4644 -0.2150 -0.3027
10035TIP3    H154300   4.344   0.200  11.107 -0.6252 -0.0497 -1.5905
10035TIP3    H254301   4.476   0.189  11.034  0.1947  0.1978 -0.1815
10036TIP3   OH254302   6.381   0.467  12.454  0.3317 -0.3491  0.0023
10036TIP3    H154303   6.468   0.461  12.415 -0.4205 -0.9874 -1.6826
10036TIP3    H254304   6.396   0.500  12.542  2.4154 -1.8878  0.2859
10037TIP3   OH254305   3.848   7.559  12.496 -0.0439  0.2448  0.4558
10037TIP3    H154306   3.822   7.651  12.506  0.3650  0.4166 -0.0175
10037TIP3    H254307   3.826   7.519  12.580 -1.5577  0.4417  0.1935
10038TIP3   OH254308   1.055   5.144  13.371 -0.1910  0.3033  0.4006
10038TIP3    H154309   1.059   5.060  13.327  2.6771 -0.7024  2.2753
10038TIP3    H254310   0.980   5.138  13.429 -0.4674 -0.6625 -0.0448
10039TIP3   OH254311   1.767   0.785  13.646  0.2662 -0.1058  0.5177
10039TIP3    H154312   1.756   0.705  13.594  1.6832 -0.2824  0.4704
10039TIP3    H254313   1.850   0.821  13.617  0.3133  0.6446  1.5564
10040TIP3   OH254314   6.737   3.323  11.079  0.0194  0.2153  0.0798
10040TIP3    H154315   6.700   3.372  11.152 -0.1842  0.2928 -0.0745
10040TIP3    H254316   6.738   3.385  11.006 -2.8570 -0.7362 -0.9268
10041TIP3   OH254317   1.301   4.709  12.009 -0.1624 -0.2530 -0.3571
10041TIP3    H154318   1.278   4.716  12.101 -0.7999 -0.2156 -0.5152
10041TIP3    H254319   1.222   4.677  11.966 -0.4484  1.3922 -1.1462
10042TIP3   OH254320   0.851   3.841  11.672  0.5680 -0.1929 -0.6202
10042TIP3    H154321   0.912   3.891  11.618 -0.3614  0.8682 -0.7131
10042TIP3    H254322   0.888   3.845  11.760  0.5007  0.6811 -0.6234
10043TIP3   OH254323   6.839   7.444  12.142 -0.5426  0.3227  0.0678
10043TIP3    H154324   6.918   7.475  12.187 -0.4816  0.9724 -0.4771
10043TIP3    H254325   6.846   7.480  12.054 -0.3624 -1.4258 -0.6741
10044TIP3   OH254326   3.232   2.889  13.526 -0.6199 -0.1879 -0.2976
10044TIP3    H154327   3.265   2.955  13.464 -0.4295 -0.8154 -0.8792
10044TIP3    H254328   3.205   2.940  13.603 -1.2670  0.6580 -1.0565
10045TIP3   OH254329   6.141   6.857  11.214  0.0867  0.2358  0.1653
10045TIP3    H154330   6.050   6.884  11.200  0.2268  1.4494  1.3121
10045TIP3    H254331   6.138   6.762  11.216 -1.2838  0.2592  0.8376
10046TIP3   OH254332   7.640   0.246  13.058 -0.1143 -0.7184 -0.4580
10046TIP3    H154333   7.714   0.192  13.086  2.0091  0.8712 -2.6454
10046TIP3    H254334   7.614   0.293  13.138  0.3043 -2.2806  0.6550
10047TIP3   OH254335   4.504   7.113  12.425  0.5045 -0.2878  1.0045
10047TIP3    H154336   4.565   7.077  12.490  1.0412  1.3173  1.4403
10047TIP3    H254337   4.441   7.162  12.478 -0.6794 -1.1902  0.4840
10048TIP3   OH254338   7.318   4.693  12.326 -0.2197  0.0381 -0.3755
10048TIP3    H154339   7.297   4.634  12.254  0.1688  0.9606 -1.2883
10048TIP3    H254340   7.248   4.680  12.390 -0.0513 -1.5041 -0.4670
10049TIP3   OH254341   7.252   5.143  13.410 -0.0897  0.3205  0.4878
10049TIP3    H154342   7.228   5.129  13.319 -1.5509 -1.1555  1.0412
10049TIP3    H254343   7.183   5.200  13.445  0.8998  1.5531  0.5026
10050TIP3   OH254344   7.595   0.853  12.059 -0.6406 -0.1951 -0.9834
10050TIP3    H154345   7.621   0.853  12.151 -0.3060  0.9331 -1.0712
10050TIP3    H254346   7.581   0.760  12.039  0.0420 -0.5314 -0.0114
10051TIP3   OH254347   1.232   7.236  11.660  0.3646  0.0679  0.2545
10051TIP3    H154348   1.309   7.179  11.658 -1.0155 -2.0160  1.9994
10051TIP3    H254349   1.241   7.286  11.742  0.1569  0.2773  0.1522
10052TIP3   OH254350   3.253   2.593  11.674  0.2842 -0.1759  0.6130
10052TIP3    H154351   3.166   2.624  11.652  0.6299  0.1178 -0.4221
10052TIP3    H254352   3.312   2.650  11.625  0.9982 -1.2693  0.1475
10053TIP3   OH254353   1.184   3.114  12.639 -0.1584 -0.3544 -0.0119
10053TIP3    H154354   1.103   3.090  12.683 -0.5243  1.0200  0.1110
10053TIP3    H254355   1.155   3.157  12.558  0.4884 -1.9559 -1.1481
10054TIP3   OH254356   0.801   5.915  12.516  0.8677 -0.1689 -0.2786
10054TIP3    H154357   0.845   5.994  12.482  1.9693 -0.4152  0.5101
10054TIP3    H254358   0.838   5.904  12.604  0.2784 -1.2311 -0.1563
10055TIP3   OH254359   0.670   2.708  11.414 -0.1754  0.4926  0.0013
10055TIP3    H154360   0.590   2.667  11.381  0.1614  0.7964 -1.2730
10055TIP3    H254361   0.664   2.799  11.384  1.4981  0.0802 -1.8335
10056TIP3   OH254362   4.906   7.085  13.203 -0.0237 -0.3455  0.1038
10056TIP3    H154363   4.898   7.162  13.260  0.1557  0.8297 -1.4068
10056TIP3    H254364   4.999   7.083  13.178 -0.1079 -0.8219 -0.1823
10057TIP3   OH254365   3.173   3.639  13.013  0.5677  0.6265 -0.3658
10057TIP3    H154366   3.171   3.735  13.011  1.4644  0.6438 -0.5967
10057TIP3    H254367   3.262   3.616  12.986  0.9136 -0.2270  1.3749
10058TIP3   OH254368   5.134   4.073  13.137  0.5749  0.0881 -0.2834
10058TIP3    H154369   5.067   4.095  13.071  1.0225 -1.3855 -1.2820
10058TIP3    H254370   5.125   4.141  13.203 -1.9624 -0.0808 -0.3431
10059TIP3   OH254371   2.118   3.104  11.207  0.4329  0.4530  0.7141
10059TIP3    H154372   2.148   3.112  11.117  3.0634 -1.9607  1.2213
10059TIP3    H254373   2.151   3.018  11.236 -1.4036  0.5570  3.5830
10060TIP3   OH254374   5.672   2.734  12.803 -0.5917 -0.4622 -0.0519
10060TIP3    H154375   5.717   2.665  12.851 -0.2896 -0.6701 -0.6165
10060TIP3    H254376   5.724   2.746  12.723 -0.8431  0.1644 -0.1331
10061TIP3   OH254377   3.196   3.789  13.294 -0.5310  0.0405 -0.5793
10061TIP3    H154378   3.178   3.853  13.363  1.8865  0.1841  0.0111
10061TIP3    H254379   3.287   3.806  13.269 -0.3735 -2.0477 -1.6192
10062TIP3   OH254380   5.976   3.746  12.111 -0.3373 -0.3266  0.1139
10062TIP3    H154381   6.036   3.802  12.160 -0.0626 -0.7744  0.2917
10062TIP3    H254382   5.894   3.797  12.107 -0.2859 -0.1798  0.8234
10063TIP3   OH254383   2.394   5.096  12.668  0.4077 -0.7223  0.4269
10063TIP3    H154384   2.416   5.033  12.599 -0.0381  0.2124 -0.6095
10063TIP3    H254385   2.308   5.067  12.700 -0.1037 -0.2876 -0.5077
10064TIP3   OH254386   2.366   6.960  12.321  0.0536 -0.4112  0.1285
10064TIP3    H154387   2.365   6.889  12.385 -0.0023  0.1769  0.7896
10064TIP3    H254388   2.451   6.953  12.278  0.1279 -0.7497  0.3313
10065TIP3   OH254389   1.584   2.365  12.441 -0.3987  0.6220 -0.2112
10065TIP3    H154390   1.668   2.331  12.469 -1.0127 -0.1788  0.7030
10065TIP3    H254391   1.587   2.458  12.463 -0.4356  0.2404  1.5775
10066TIP3   OH254392   7.317   3.676  10.956  0.0982 -0.1311  0.6096
10066TIP3    H154393   7.361   3.749  10.999 -0.1423  0.2300  0.2522
10066TIP3    H254394   7.310   3.703  10.865  2.8338 -1.9289 -0.2546
10067TIP3   OH254395   4.787   0.783  11.400 -0.2279  0.6266 -0.1905
10067TIP3    H154396   4.703   0.821  11.374  0.0720  0.9572 -0.6857
10067TIP3    H254397   4.801   0.817  11.489 -0.8034  0.2436  0.0586
10068TIP3   OH254398   2.407   4.210  12.151 -0.2902  0.2747 -0.4834
10068TIP3    H154399   2.435   4.127  12.113 -1.5088  0.9154 -3.0402
10068TIP3    H254400   2.343   4.187  12.218  2.6025 -0.9573  2.0656
10069TIP3   OH254401   1.821   5.962  13.511 -0.0232 -0.2979 -0.1269
10069TIP3    H154402   1.815   6.028  13.443 -0.4630 -0.6086 -0.3932
10069TIP3    H254403   1.910   5.970  13.545  0.8703 -1.4259 -2.0633
10070TIP3   OH254404   3.206   1.743  12.914  0.0070 -0.1276  0.0630
10070TIP3    H154405   3.260   1.794  12.975  0.8454  0.2711 -0.9926
10070TIP3    H254406   3.145   1.696  12.971  0.0174  1.1039  1.1544
10071TIP3   OH254407   7.536   6.401  12.429 -0.4935 -0.4782  0.4308
10071TIP3    H154408   7.615   6.453  12.411 -0.5258 -0.9056 -1.0590
10071TIP3    H254409   7.476   6.422  12.357 -1.6174 -0.4352  1.3500
10072TIP3   OH254410   2.369   1.598  12.020  0.1183 -0.0118  0.1537
10072TIP3    H154411   2.326   1.662  12.075 -0.3920  0.8876 -1.2278
10072TIP3    H254412   2.440   1.647  11.978  1.2559 -0.9777  0.9002
10073TIP3   OH254413   2.136   7.421  11.088 -0.9017 -0.1422  0.1051
10073TIP3    H154414   2.174   7.395  11.173  0.1107 -0.2902 -0.3804
10073TIP3    H254415   2.072   7.352  11.069  0.0780 -1.0451 -0.0388
10074TIP3   OH254416   1.679   5.760  11.021  0.0592  0.1815  0.4120
10074TIP3    H154417   1.672   5.828  10.955  1.5366  0.9873  1.0410
10074TIP3    H254418   1.671   5.678  10.973  1.1327  0.7492 -0.7704
10075TIP3   OH254419   0.574   5.355  10.948 -0.0176 -0.5084 -0.0582
10075TIP3    H154420   0.511   5.284  10.950  1.8720 -2.2625  2.2377
10075TIP3    H254421   0.655   5.315  10.915  0.5286  1.1472 -0.8786
10076TIP3   OH254422   4.497   3.179  12.663 -0.9418 -0.2413  0.0642
10076TIP3    H154423   4.470   3.152  12.575 -0.4744  1.5308 -0.6685
10076TIP3    H254424   4.472   3.271  12.669  3.4899  1.2369 -0.2017
10077TIP3   OH254425   4.260   0.958  11.276 -0.4993 -0.0574  0.4930
10077TIP3    H154426   4.184   0.971  11.220  0.1174 -0.8147 -0.5472
10077TIP3    H254427   4.280   1.046  11.309 -1.1949  0.3151 -0.0416
10078TIP3   OH254428   4.801   1.202  12.538 -0.3244 -0.2517 -0.3494
10078TIP3    H154429   4.746   1.265  12.585 -0.7749  0.9043 -2.3045
10078TIP3    H254430   4.745   1.125  12.526 -0.2650 -0.4864  0.7945
10079TIP3   OH254431   5.542   5.272  11.779 -0.0869 -0.3506  0.5159
10079TIP3    H154432   5.616   5.255  11.720 -0.8349  0.1637 -0.6133
10079TIP3    H254433   5.580   5.270  11.867  1.1692 -0.6030 -0.0124
10080TIP3   OH254434   1.056   2.035  13.595 -0.7273  0.5517  0.1155
10080TIP3    H154435   1.064   1.950  13.553 -0.9397  1.5158 -1.9978
10080TIP3    H254436   1.133   2.042  13.652 -0.0867 -0.5546 -0.5958
10081TIP3   OH254437   3.981   6.325  11.183  0.2841 -0.4291 -0.1664
10081TIP3    H154438   4.054   6.386  11.170  0.0312 -0.4981 -2.3493
10081TIP3    H254439   3.905   6.381  11.199  0.4549 -0.2576  0.0396
10082TIP3   OH254440   6.010   7.246  12.479 -0.2165 -0.8542  0.0083
10082TIP3    H154441   6.084   7.253  12.418 -0.9871 -0.4876 -0.9121
10082TIP3    H254442   6.010   7.154  12.505 -0.9436 -1.4890 -1.9966
10083TIP3   OH254443   0.087   0.660  11.263  0.3137 -0.1855 -0.2706
10083TIP3    H154444   0.031   0.714  11.207  0.8338 -0.6481 -1.2645
10083TIP3    H254445   0.173   0.663  11.221  0.8984 -0.0057  0.8791
10084TIP3   OH254446   1.082   3.895  12.761 -0.2712  0.4626 -0.2445
10084TIP3    H154447   1.080   3.823  12.698 -1.5988 -0.4098  0.7459
10084TIP3    H254448   1.094   3.974  12.707  0.4982 -0.4233 -1.4092
10085TIP3   OH254449   4.589   2.516  11.277 -0.3914  0.2086 -0.2280
10085TIP3    H154450   4.536   2.514  11.357 -1.5966  1.4774 -0.9415
10085TIP3    H254451   4.538   2.465  11.213 -0.5396  1.0390 -0.7911
10086TIP3   OH254452   2.017   1.828  11.012 -0.4631 -0.0136 -0.1486
10086TIP3    H154453   1.986   1.768  11.079  0.7470  1.0011  1.3903
10086TIP3    H254454   1.944   1.889  10.999 -0.6429 -0.1250  0.3487
10087TIP3   OH254455   4.284   2.892  13.154  0.6438 -0.3495 -0.0211
10087TIP3    H154456   4.333   2.951  13.098  1.4965 -0.6374  0.3963
10087TIP3    H254457   4.193   2.918  13.144  0.8813  0.1837 -0.8322
10088TIP3   OH254458   2.603   7.276  10.845  0.6080 -0.0049  0.0440
10088TIP3    H154459   2.508   7.280  10.833  0.5688  1.5401  0.6243
10088TIP3    H254460   2.619   7.190  10.884 -0.7348  0.2929  1.3358
10089TIP3   OH254461   2.982   1.132  11.950 -0.0339  0.3048 -0.7022
10089TIP3    H154462   2.913   1.184  11.990  0.8260 -0.4592  1.9490
10089TIP3    H254463   2.947   1.043  11.949 -0.8988  0.5461 -3.8239
10090TIP3   OH254464   3.868   2.850  11.827 -0.0931 -0.3487 -0.0371
10090TIP3    H154465   3.793   2.791  11.839 -0.5640  0.3779  0.7260
10090TIP3    H254466   3.849   2.924  11.885 -0.3102  1.3332 -2.1243
10091TIP3   OH254467   1.027   4.652  13.542  0.5133  0.0460  0.6048
10091TIP3    H154468   1.009   4.578  13.601  1.0970 -0.1738  0.5227
10091TIP3    H254469   1.110   4.628  13.500  0.5941  0.6502  0.4170
10092TIP3   OH254470   7.529   4.065  10.639 -0.7491  0.0198  0.4054
10092TIP3    H154471   7.449   4.092  10.684 -1.4486  0.4052 -1.0224
10092TIP3    H254472   7.570   4.146  10.610  0.1357 -0.1766  1.0379
10093TIP3   OH254473   2.173   7.085  10.873  0.0625  0.1053 -0.2946
10093TIP3    H154474   2.118   7.110  10.947 -0.1022 -1.3975  0.1205
10093TIP3    H254475   2.238   7.025  10.911  0.2669 -0.3149 -1.2918
10094TIP3   OH254476   5.326   7.181  12.056 -0.4461  0.5895 -0.4438
10094TIP3    H154477   5.326   7.112  11.990 -0.4236 -0.1707  0.3277
10094TIP3    H254478   5.346   7.261  12.008  0.8238 -0.1314 -1.1649
10095TIP3   OH254479   0.950   6.958  11.709 -0.0463 -0.3791  0.1381
10095TIP3    H154480   0.865   6.937  11.670 -0.5612 -0.3272  1.2019
10095TIP3    H254481   0.990   7.019  11.647 -0.0141 -1.7565 -1.2601
10096TIP3   OH254482   7.678   3.064  12.648 -0.0595  0.0031 -0.1384
10096TIP3    H154483   7.596   3.030  12.685  0.1739 -3.1312 -2.0918
10096TIP3    H254484   7.656   3.084  12.557  1.2118 -0.3496 -0.5347
10097TIP3   OH254485   0.626   7.162  12.086  0.0302 -0.0004  0.0443
10097TIP3    H154486   0.668   7.188  12.168 -0.9909 -1.1797  0.9862
10097TIP3    H254487   0.683   7.094  12.050 -1.0567 -1.7777  1.4451
10098TIP3   OH254488   1.211   4.502  13.362 -0.0762 -0.4106 -0.1512
10098TIP3    H154489   1.213   4.407  13.356  0.5463 -0.3373 -1.3087
10098TIP3    H254490   1.177   4.532  13.278  0.9355  0.4193 -0.2982
10099TIP3   OH254491   2.550   1.616  12.738 -0.2921 -0.6827  0.3233
10099TIP3    H154492   2.616   1.578  12.796 -1.9284 -1.3037  1.9005
10099TIP3    H254493   2.545   1.556  12.664  1.8436  0.1245 -0.5386
10100TIP3   OH254494   1.613   1.858  12.519 -0.6065  0.1223 -0.3123
10100TIP3    H154495   1.542   1.796  12.533 -0.1792 -0.5478 -0.9983
10100TIP3    H254496   1.683   1.827  12.576 -0.4296  0.0227 -0.5794
10101TIP3   OH254497   4.882   7.546  11.940 -0.7099 -0.0463 -0.0160
10101TIP3    H154498   4.967   7.507  11.918 -0.4574  0.1122  0.6423
10101TIP3    H254499   4.850   7.583  11.858  0.0293  0.2057 -0.2003
10102TIP3   OH254500   3.108   4.741  11.308  0.4704  0.5543  0.1827
10102TIP3    H154501   3.064   4.716  11.389  1.2200 -0.8777  0.1832
10102TIP3    H254502   3.060   4.695  11.239  0.4448  0.9820 -0.0932
10103TIP3   OH254503   6.869   4.750  11.586 -0.5857 -0.4070 -0.6354
10103TIP3    H154504   6.858   4.818  11.652 -1.4001 -2.9395  2.1000
10103TIP3    H254505   6.963   4.736  11.581 -0.3912  1.0150 -1.4151
10104TIP3   OH254506   2.076   3.757  11.015  0.0287  0.5842 -0.4451
10104TIP3    H154507   2.134   3.833  11.021 -2.4040  2.5151  0.0957
10104TIP3    H254508   2.032   3.766  10.930  1.4434 -1.6505 -1.5166
10105TIP3   OH254509   0.207   1.065  13.895  0.0255 -0.3125  0.0470
10105TIP3    H154510   0.143   1.136  13.899 -0.0100 -0.2504 -1.2095
10105TIP3    H254511   0.291   1.108  13.879 -0.0855 -0.5551 -1.3366
10106TIP3   OH254512   6.028   0.900  11.258  0.4053 -0.7255  0.3978
10106TIP3    H154513   6.059   0.990  11.250  2.6204 -1.4312  0.5035
10106TIP3    H254514   6.052   0.874  11.347  0.0312 -1.4973  0.2820
10107TIP3   OH254515   3.090   5.150  11.365 -0.2717  0.3279 -0.1756
10107TIP3    H154516   3.038   5.069  11.370  2.6678 -1.7793 -0.7309
10107TIP3    H254517   3.125   5.149  11.276  1.5038  1.0518  0.4761
10108TIP3   OH254518   6.576   7.654  12.130  0.2229 -0.2971 -0.0831
10108TIP3    H154519   6.614   7.568  12.112  1.2130  0.1524 -0.2267
10108TIP3    H254520   6.535   7.645  12.216 -1.0473 -1.3343 -0.7669
10109TIP3   OH254521   0.779   3.903  11.385 -0.9391 -0.0223  0.6780
10109TIP3    H154522   0.690   3.935  11.378 -0.9962  0.0521  1.6176
10109TIP3    H254523   0.788   3.875  11.476 -0.6247 -1.8534  0.1466
10110TIP3   OH254524   5.806   7.428  12.925  0.4822  0.0833  0.3520
10110TIP3    H154525   5.826   7.336  12.907 -0.1847 -0.2258  1.1127
10110TIP3    H254526   5.847   7.476  12.853  0.1471 -0.8732 -0.5014
10111TIP3   OH254527   0.522   4.179  11.069 -0.1893 -0.1197  0.2885
10111TIP3    H154528   0.513   4.235  10.992  0.3635 -0.7188 -0.2234
10111TIP3    H254529   0.508   4.090  11.036  1.0304 -0.4808  0.6790
10112TIP3   OH254530   2.282   5.574  12.728  0.3701  0.2232  0.3440
10112TIP3    H154531   2.205   5.537  12.772 -0.1694  2.1660  1.1486
10112TIP3    H254532   2.276   5.542  12.638 -1.3782  0.3359  0.3905
10113TIP3   OH254533   2.255   4.755  10.981 -0.1801 -0.2806  0.1501
10113TIP3    H154534   2.350   4.743  10.975 -0.0739 -2.0002  2.9381
10113TIP3    H254535   2.225   4.677  11.028 -2.9537  0.3576 -0.4053
10114TIP3   OH254536   2.186   5.102  11.611 -0.2932  0.5085  0.1346
10114TIP3    H154537   2.259   5.135  11.663 -0.4981  0.7700  0.2634
10114TIP3    H254538   2.225   5.040  11.550  0.0114  0.5266  0.3118
10115TIP3   OH254539   7.244   4.944  11.193  0.1481 -0.4364 -0.4336
10115TIP3    H154540   7.247   4.982  11.280  1.4551 -0.1996 -0.5689
10115TIP3    H254541   7.179   4.873  11.199 -2.7932  2.0735 -0.3130
10116TIP3   OH254542   0.968   3.091  12.435  0.4199  0.2524 -0.0420
10116TIP3    H154543   0.973   3.186  12.424 -0.3274  0.3052  0.0467
10116TIP3    H254544   0.958   3.058  12.346  1.3534  0.2018 -0.1402
10117TIP3   OH254545   7.178   2.411  11.795  0.0358  0.5034 -0.4010
10117TIP3    H154546   7.134   2.494  11.814 -1.2349 -0.1745 -0.2249
10117TIP3    H254547   7.269   2.435  11.779 -0.2705  1.9078 -0.2020
10118TIP3   OH254548   1.082   1.119  11.716 -0.4282 -0.1527  0.1100
10118TIP3    H154549   1.013   1.116  11.650  0.0018  0.2667 -0.3724
10118TIP3    H254550   1.063   1.047  11.775  0.2033 -1.7256 -1.5114
10119TIP3   OH254551   3.395   6.853  12.670  0.2788  1.1333  0.5653
10119TIP3    H154552   3.347   6.931  12.642 -1.3630 -0.0020  0.0582
10119TIP3    H254553   3.346   6.821  12.746  1.1414  0.7775  0.9872
10120TIP3   OH254554   3.380   4.487  12.253 -0.8084 -0.8908  0.4116
10120TIP3    H154555   3.463   4.527  12.226 -0.8260 -1.0175  0.1665
10120TIP3    H254556   3.402   4.397  12.276 -0.9195 -0.9977  0.1046
10121TIP3   OH254557   3.714   3.586  11.969 -0.1645  0.1237  0.3573
10121TIP3    H154558   3.763   3.510  11.937  0.5039  0.2256  1.1302
10121TIP3    H254559   3.780   3.651  11.989 -0.7603  1.0769 -0.6772
10122TIP3   OH254560   5.068   2.364  11.406  0.1751  0.3413  0.5967
10122TIP3    H154561   5.036   2.275  11.395  1.2435 -0.2322  1.8502
10122TIP3    H254562   5.073   2.399  11.317 -0.0251 -0.9257  0.0630
10123TIP3   OH254563   4.704   2.746  11.273  0.1438 -0.3651  0.0544
10123TIP3    H154564   4.630   2.791  11.233 -0.8344 -0.6665  1.4470
10123TIP3    H254565   4.670   2.659  11.293  1.3419 -1.0154 -0.6066
10124TIP3   OH254566   4.510   6.286  11.318 -0.2388 -0.0514 -0.0996
10124TIP3    H154567   4.525   6.254  11.407 -1.1822  1.7672  0.7565
10124TIP3    H254568   4.431   6.241  11.289  0.7487 -1.5852 -0.5401
10125TIP3   OH254569   0.483   4.503  13.220 -0.0373 -0.0777  0.0984
10125TIP3    H154570   0.404   4.458  13.252 -0.5064  0.3909 -0.3682
10125TIP3    H254571   0.451   4.589  13.192  0.8373  0.5386  0.9462
10126TIP3   OH254572   7.289   6.745  12.621  0.0997  0.1008  0.5648
10126TIP3    H154573   7.213   6.701  12.659 -0.8509  1.5110  0.3632
10126TIP3    H254574   7.281   6.732  12.527  0.3682 -0.1374  0.5720
10127TIP3   OH254575   5.763   6.651  13.083 -0.1617  0.1213 -0.0653
10127TIP3    H154576   5.745   6.671  13.175 -0.7070 -1.9094  0.3294
10127TIP3    H254577   5.678   6.656  13.040 -0.2053 -0.5958 -0.0810
10128TIP3   OH254578   3.865   4.316  10.952 -0.0019 -0.1880 -0.3076
10128TIP3    H154579   3.831   4.283  11.035 -0.4995 -0.4882 -0.6265
10128TIP3    H254580   3.817   4.268  10.885 -0.3532  0.7887 -0.7774
10129TIP3   OH254581   0.925   2.286  13.192  0.3117  0.5432  0.5629
10129TIP3    H154582   0.898   2.364  13.144 -0.8360  0.3733  0.8937
10129TIP3    H254583   0.877   2.214  13.151  1.5465 -0.0437  0.0976
10130TIP3   OH254584   7.563   2.094  13.892  0.0825  0.2310 -0.1511
10130TIP3    H154585   7.542   2.027  13.956 -1.6837  0.5743 -0.3100
10130TIP3    H254586   7.545   2.177  13.937  1.4265  0.5901 -0.2323
10131TIP3   OH254587   7.652   2.384  12.517 -0.5207 -0.6101 -0.2944
10131TIP3    H154588   7.743   2.373  12.489 -0.8430  0.5959 -1.9425
10131TIP3    H254589   7.603   2.395  12.436 -1.9440  0.1711  0.6377
10132TIP3   OH254590   4.934   0.692  12.211  0.3862 -0.6399 -0.4680
10132TIP3    H154591   4.865   0.703  12.146 -0.6276 -0.4978  0.6009
10132TIP3    H254592   4.888   0.681  12.294  1.6521  0.8289  0.4906
10133TIP3   OH254593   7.638   7.134  12.144 -0.3017 -0.4035  0.1329
10133TIP3    H154594   7.639   7.165  12.235 -0.8984 -0.5039  0.1737
10133TIP3    H254595   7.651   7.213  12.092 -0.4481 -0.2784  0.2855
10134TIP3   OH254596   6.657   4.445  11.679 -0.2141  0.0482 -0.7435
10134TIP3    H154597   6.622   4.363  11.645 -1.5813  0.2102  0.1775
10134TIP3    H254598   6.745   4.422  11.710 -1.1783 -1.5023  1.0412
10135TIP3   OH254599   4.872   6.770  12.266 -0.5204 -0.4531 -0.6211
10135TIP3    H154600   4.893   6.859  12.295 -0.9819 -0.7788  0.7921
10135TIP3    H254601   4.780   6.774  12.240 -0.7923 -0.6869  0.2580
10136TIP3   OH254602   0.991   6.880  12.416  0.1663 -0.1040  0.4417
10136TIP3    H154603   1.058   6.821  12.381 -0.7784 -0.8546 -0.1344
10136TIP3    H254604   0.948   6.917  12.339 -0.7139 -0.3662  0.7953
10137TIP3   OH254605   0.584   1.718  11.958  0.3819 -0.7454  0.3060
10137TIP3    H154606   0.493   1.700  11.933 -0.6255  1.4243  2.1056
10137TIP3    H254607   0.617   1.633  11.987 -0.7086 -1.7840 -1.2553
10138TIP3   OH254608   0.520   3.985  11.823  0.0430  0.4212  0.5282
10138TIP3    H154609   0.549   3.904  11.781 -0.2642  1.0213 -0.8953
10138TIP3    H254610   0.480   3.957  11.905  1.4530 -0.7159  0.8789
10139TIP3   OH254611   0.036   4.651  11.603  0.0292 -0.4605 -0.4018
10139TIP3    H154612   0.026   4.699  11.686 -0.7644 -2.2543  0.5995
10139TIP3    H254613   0.095   4.578  11.625  1.3754  0.0946 -1.9375
10140TIP3   OH254614   6.033   5.068  11.218 -0.0357 -0.8134 -0.5306
10140TIP3    H154615   5.996   4.983  11.244  0.6750 -0.8551  0.4122
10140TIP3    H254616   6.034   5.066  11.122 -2.0151 -0.9888 -0.5936
10141TIP3   OH254617   4.945   1.826  11.573 -0.1525 -0.0793  0.0526
10141TIP3    H154618   4.939   1.873  11.657  2.1985 -1.3334  1.0210
10141TIP3    H254619   5.004   1.753  11.591 -2.5551 -2.6844 -1.7432
10142TIP3   OH254620   3.898   7.144  12.419 -0.2782 -0.1414 -0.5676
10142TIP3    H154621   3.910   7.062  12.372  0.3687  0.2261 -1.0515
10142TIP3    H254622   3.919   7.212  12.355 -1.0530  0.4187 -0.2532
10143TIP3   OH254623   5.705   2.005  13.568  0.0580 -0.5343 -0.6274
10143TIP3    H154624   5.624   1.953  13.571  0.3549 -1.0058 -0.7726
10143TIP3    H254625   5.775   1.940  13.569  0.4556 -0.4133 -4.5054
10144TIP3   OH254626   6.686   6.702  12.498 -0.0005  0.1254  0.4516
10144TIP3    H154627   6.694   6.685  12.592  3.0347 -1.7859  0.0101
10144TIP3    H254628   6.771   6.738  12.474 -0.9342  1.1358 -1.5081
10145TIP3   OH254629   5.564   6.954  13.126  0.5637  0.3925  0.3738
10145TIP3    H154630   5.473   6.926  13.133  1.0113 -1.7401 -1.4202
10145TIP3    H254631   5.612   6.895  13.185  1.0354  0.0241 -0.3703
10146TIP3   OH254632   2.340   5.247  12.385  0.3281 -0.0048  0.2059
10146TIP3    H154633   2.354   5.181  12.452  0.0295 -0.5823 -0.2841
10146TIP3    H254634   2.376   5.208  12.305  2.7019  1.5600  0.4298
10147TIP3   OH254635   1.751   5.451  12.037 -0.3498  0.3314 -0.0287
10147TIP3    H154636   1.791   5.410  11.960  1.5701  1.2626  0.4194
10147TIP3    H254637   1.671   5.491  12.003 -0.1261 -0.2305 -1.3071
10148TIP3   OH254638   2.330   1.370  11.869 -0.2797  0.2815  0.1752
10148TIP3    H154639   2.247   1.333  11.899  0.3088 -0.2768  1.1551
10148TIP3    H254640   2.329   1.460  11.902 -0.5839  0.3374  0.0131
10149TIP3   OH254641   3.229   5.308  11.531 -0.5610 -0.0219 -0.1278
10149TIP3    H154642   3.166   5.269  11.470 -1.1644  0.3099  0.2713
10149TIP3    H254643   3.310   5.315  11.481 -0.9081 -0.2403 -0.7287
10150TIP3   OH254644   7.425   4.611  13.216  0.6798  0.0078  0.0808
10150TIP3    H154645   7.422   4.681  13.151 -1.5052  0.9451  1.1030
10150TIP3    H254646   7.387   4.535  13.171  0.2932  0.3140 -0.1143
10151TIP3   OH254647   1.334   4.672  11.522 -0.3681  0.4236  0.3167
10151TIP3    H154648   1.276   4.603  11.554 -2.5321  1.7600 -0.5354
10151TIP3    H254649   1.323   4.744  11.584  1.3789  0.3041  0.8359
10152TIP3   OH254650   5.380   4.185  13.384  0.2781  0.0337  0.2278
10152TIP3    H154651   5.318   4.239  13.434  0.4173  0.2254  0.1923
10152TIP3    H254652   5.459   4.238  13.377  0.5539 -0.3366  0.5329
10153TIP3   OH254653   0.878   6.004  11.801  0.3619 -0.1042  0.8989
10153TIP3    H154654   0.860   6.047  11.717 -0.4545 -1.2271  0.4652
10153TIP3    H254655   0.919   5.921  11.777 -1.8630 -1.4521  1.4284
10154TIP3   OH254656   6.755   5.413  11.152 -0.4432  0.3188  0.4365
10154TIP3    H154657   6.829   5.422  11.212  0.8270  1.1982 -1.1870
10154TIP3    H254658   6.690   5.364  11.202  1.0882 -0.1827  2.0474
10155TIP3   OH254659   2.576   1.487  11.705  0.7928  0.1599  0.2937
10155TIP3    H154660   2.511   1.496  11.776 -0.1268  0.3974 -0.5502
10155TIP3    H254661   2.658   1.468  11.750 -0.0314 -1.0903  1.3722
10156TIP3   OH254662   2.361   3.563  13.812 -0.2893  0.6403  0.0295
10156TIP3    H154663   2.368   3.575  13.717  0.2500 -0.7104 -0.1263
10156TIP3    H254664   2.319   3.478  13.823 -1.6139  1.3948  1.0265
10157TIP3   OH254665   6.738   0.831  12.670  0.1706  0.0370  0.3325
10157TIP3    H154666   6.790   0.840  12.750 -0.5342 -0.5218  0.8732
10157TIP3    H254667   6.792   0.870  12.601  1.5461 -1.0251  0.7692
10158TIP3   OH254668   6.354   1.944  11.838  0.4753  0.0362 -0.3599
10158TIP3    H154669   6.421   1.998  11.879  0.7662 -0.1464 -0.5959
10158TIP3    H254670   6.381   1.936  11.747  1.1385 -1.5967 -0.0425
10159TIP3   OH254671   2.235   4.258  10.776 -0.0786  0.4616  0.6300
10159TIP3    H154672   2.155   4.213  10.749  0.7635 -0.9705  0.3886
10159TIP3    H254673   2.212   4.351  10.777 -1.3150  0.2084 -0.9094
10160TIP3   OH254674   3.174   5.182  12.413  0.5003  0.2023  0.0457
10160TIP3    H154675   3.206   5.132  12.488 -2.4280 -1.4313  0.3461
10160TIP3    H254676   3.232   5.156  12.341 -0.2115 -2.8985  0.4538
10161TIP3   OH254677   3.434   0.811  13.609 -0.1213  0.1076  0.6361
10161TIP3    H154678   3.409   0.798  13.517  0.2169  0.5854  0.4712
10161TIP3    H254679   3.527   0.836  13.604  0.0664 -0.4661  1.1506
10162TIP3   OH254680   0.670   6.365  13.498  0.1528 -0.3409  0.4519
10162TIP3    H154681   0.630   6.278  13.500  1.1672 -0.8074  1.1048
10162TIP3    H254682   0.620   6.416  13.562  0.8191 -1.0239  1.5428
10163TIP3   OH254683   7.664   4.795  13.409 -0.2799 -0.2177  0.2701
10163TIP3    H154684   7.718   4.873  13.398  0.0556 -0.7611 -2.6803
10163TIP3    H254685   7.574   4.824  13.391 -0.2862 -0.3157  0.1396
10164TIP3   OH254686   3.428   3.248  11.727  0.3600 -0.0554  0.1276
10164TIP3    H154687   3.379   3.208  11.798 -0.0246  2.0544  1.1214
10164TIP3    H254688   3.361   3.287  11.671  0.7913  0.9625  0.3060
10165TIP3   OH254689   7.174   5.039  12.227  0.1241 -0.0427 -0.1507
10165TIP3    H154690   7.217   5.121  12.202 -0.4282  0.2968 -0.0114
10165TIP3    H254691   7.230   4.970  12.190  0.1966  0.4075 -0.9002
10166TIP3   OH254692   2.607   1.778  10.887 -0.4194 -0.3909 -0.2152
10166TIP3    H154693   2.592   1.849  10.825 -0.4426 -0.6226 -0.4763
10166TIP3    H254694   2.683   1.806  10.938  1.6700 -1.6091 -2.4739
10167TIP3   OH254695   0.454   3.284  11.985 -0.0919 -0.2478 -0.4237
10167TIP3    H154696   0.461   3.191  11.965  0.3161  0.1166 -2.1091
10167TIP3    H254697   0.538   3.306  12.024  0.1149 -0.4244 -0.7622
10168TIP3   OH254698   6.288   5.688  12.448  0.3903  0.1784  0.3725
10168TIP3    H154699   6.227   5.759  12.431  2.4116  1.7357 -0.8283
10168TIP3    H254700   6.356   5.727  12.503  1.1396 -1.0574  0.3677
10169TIP3   OH254701   3.443   0.668  11.383 -0.4544  0.0157 -0.5163
10169TIP3    H154702   3.453   0.709  11.469 -2.0605 -0.8871  0.1379
10169TIP3    H254703   3.508   0.598  11.382  1.1513  1.4540 -0.9821
10170TIP3   OH254704   6.615   0.237  13.175 -0.2138  0.4388 -0.1931
10170TIP3    H154705   6.615   0.241  13.270 -0.5233 -0.9980 -0.1100
10170TIP3    H254706   6.536   0.188  13.153  1.2782 -1.7721 -1.0255
10171TIP3   OH254707   0.538   0.094  11.368  0.0673 -0.0082  0.3781
10171TIP3    H154708   0.530   0.026  11.301 -1.0172  0.1902  0.2843
10171TIP3    H254709   0.612   0.148  11.338  0.3479 -0.6064 -0.0299
10172TIP3   OH254710   2.166   6.244  12.633 -0.1962 -0.2754 -0.3785
10172TIP3    H154711   2.093   6.226  12.692  0.9748 -2.7232  0.4433
10172TIP3    H254712   2.160   6.338  12.615 -1.7679  0.1709  2.0357
10173TIP3   OH254713   4.556   4.099  13.310 -0.2503  0.1590  0.3271
10173TIP3    H154714   4.465   4.075  13.295  0.5274 -0.9806 -3.9011
10173TIP3    H254715   4.603   4.016  13.317  0.8930  0.5183 -1.9153
10174TIP3   OH254716   0.094   3.981  10.792 -0.3417  0.2936  0.0168
10174TIP3    H154717   0.025   3.957  10.730 -0.1687  1.1136 -0.5136
10174TIP3    H254718   0.112   3.901  10.841 -0.0452 -0.5317 -1.4147
10175TIP3   OH254719   4.894   5.530  11.864  0.1419  0.1116 -0.3450
10175TIP3    H154720   4.878   5.437  11.849 -0.1913 -0.0830  1.0805
10175TIP3    H254721   4.885   5.541  11.958  0.9648  1.4472 -0.3974
10176TIP3   OH254722   5.423   3.704  12.190 -0.2226  0.3403 -0.4685
10176TIP3    H154723   5.401   3.746  12.107 -1.2376  0.7268 -0.0335
10176TIP3    H254724   5.415   3.611  12.173 -1.9989  0.4528 -0.4257
10177TIP3   OH254725   1.729   0.043  12.160  0.3420  0.0294 -0.0262
10177TIP3    H154726   1.769   0.129  12.148  2.8523 -1.1682 -0.9668
10177TIP3    H254727   1.760   0.014  12.245 -1.3692  0.4016  0.7853
10178TIP3   OH254728   1.872   1.279  11.801  0.8567  0.2094  0.1215
10178TIP3    H154729   1.885   1.362  11.755  1.8078 -0.0423 -0.0920
10178TIP3    H254730   1.960   1.256  11.833  0.5340 -0.5290  0.4919
10179TIP3   OH254731   0.554   6.799  11.502 -0.5350  0.1179  0.2301
10179TIP3    H154732   0.610   6.732  11.541  0.3675 -0.7585 -2.3108
10179TIP3    H254733   0.615   6.865  11.470 -1.0482 -0.0139 -1.0812
10180TIP3   OH254734   1.657   5.509  10.897  0.2728 -0.4008  0.2600
10180TIP3    H154735   1.693   5.428  10.935  0.7406 -1.3936 -2.1255
10180TIP3    H254736   1.570   5.484  10.867  0.2322  0.1322 -0.0628
10181TIP3   OH254737   2.523   7.454  11.158 -0.1211  0.0028 -0.7674
10181TIP3    H154738   2.613   7.436  11.130  1.1000  0.9648  2.0957
10181TIP3    H254739   2.478   7.370  11.151  2.2120 -1.6170  1.5859
10182TIP3   OH254740   3.882   1.110  12.813 -0.0618 -0.1584  0.0715
10182TIP3    H154741   3.919   1.039  12.760 -0.1345 -2.1700  2.5180
10182TIP3    H254742   3.824   1.065  12.875 -0.4707  2.1133  1.4305
10183TIP3   OH254743   1.196   0.528  11.065  0.1342  0.6160 -0.4045
10183TIP3    H154744   1.266   0.489  11.012 -0.9957  2.0268 -3.0980
10183TIP3    H254745   1.222   0.509  11.156  2.7145 -1.0120 -1.3630
10184TIP3   OH254746   4.880   7.021  12.873 -0.0103  0.0755  0.5616
10184TIP3    H154747   4.972   6.996  12.868  0.3558  1.4938 -0.1933
10184TIP3    H254748   4.854   7.037  12.783  0.0657  3.2081  1.0019
10185TIP3   OH254749   4.652   5.993  11.657  0.3345  0.1724 -0.1863
10185TIP3    H154750   4.708   5.965  11.585  0.6416  2.1401 -0.7791
10185TIP3    H254751   4.652   5.919  11.718 -0.4349 -1.8285 -2.4248
10186TIP3   OH254752   5.412   4.455  12.494  0.5862 -0.2719  0.1156
10186TIP3    H154753   5.325   4.482  12.463 -0.5170 -1.2884  2.1243
10186TIP3    H254754   5.449   4.405  12.422 -0.6567 -0.1173 -0.6570
10187TIP3   OH254755   1.240   1.155  11.506  0.1719  0.5518  0.2506
10187TIP3    H154756   1.182   1.152  11.582  0.7559 -0.5548  0.6879
10187TIP3    H254757   1.182   1.173  11.432 -0.5477  0.6669  0.8319
10188TIP3   OH254758   7.064   7.394  11.060  0.5668  0.0815 -0.1715
10188TIP3    H154759   7.071   7.324  11.125  1.2044  0.2701 -0.0310
10188TIP3    H254760   7.030   7.351  10.982 -1.3518  0.0680  0.6110
10189TIP3   OH254761   3.557   6.105  12.957 -0.5286 -0.3701 -1.1062
10189TIP3    H154762   3.617   6.049  13.007  1.0007  0.9425 -1.4022
10189TIP3    H254763   3.582   6.194  12.981 -1.2563  0.2400 -2.5408
10190TIP3   OH254764   2.233   3.706  11.897 -0.4206 -0.2424 -0.8133
10190TIP3    H154765   2.289   3.701  11.820  1.0116 -1.7059  0.2352
10190TIP3    H254766   2.147   3.730  11.863  0.4234  0.3108 -2.6999
10191TIP3   OH254767   2.043   5.299  11.461  0.0761 -0.2121  0.3272
10191TIP3    H154768   2.042   5.282  11.367 -1.1143  0.6872  0.1431
10191TIP3    H254769   2.079   5.220  11.500 -2.2798 -1.8827 -0.6589
10192TIP3   OH254770   4.233   5.386  11.700 -0.5746  0.5113 -0.1937
10192TIP3    H154771   4.229   5.480  11.718 -1.4691  0.5662 -0.6007
10192TIP3    H254772   4.267   5.348  11.781 -2.3852  0.9740  0.8543
10193TIP3   OH254773   7.396   5.116  12.922 -0.2113  0.3639  0.0796
10193TIP3    H154774   7.468   5.066  12.883 -0.8746 -0.5910  0.0657
10193TIP3    H254775   7.345   5.147  12.848 -1.0930 -0.8900  0.1279
10194TIP3   OH254776   6.109   2.031  12.519 -0.3016 -0.0447  0.0527
10194TIP3    H154777   6.149   1.956  12.475 -1.1882  0.8484 -2.4224
10194TIP3    H254778   6.029   2.049  12.469 -0.3575  2.2409  0.8522
10195TIP3   OH254779   1.128   2.472  11.251  0.0345 -0.0802 -0.4150
10195TIP3    H154780   1.100   2.382  11.236  0.7797 -0.1752 -1.3001
10195TIP3    H254781   1.098   2.520  11.174  1.7060 -0.0634 -1.0858
10196TIP3   OH254782   7.346   4.279  13.463 -0.0975  0.6922  0.0226
10196TIP3    H154783   7.426   4.245  13.504 -0.0451  0.3258 -0.3786
10196TIP3    H254784   7.356   4.375  13.467  0.1090  0.6545  0.4651
10197TIP3   OH254785   2.734   3.194  12.818 -0.2138 -0.2918 -0.2563
10197TIP3    H154786   2.824   3.177  12.843 -0.5108  0.6525  1.5854
10197TIP3    H254787   2.733   3.179  12.723  1.6606 -1.1203 -0.1918
10198TIP3   OH254788   1.300   2.043  12.536 -0.7034  0.2196 -0.6151
10198TIP3    H154789   1.277   1.958  12.574 -0.6457  0.5938  0.2867
10198TIP3    H254790   1.395   2.039  12.523 -0.5022  0.5758  0.5876
10199TIP3   OH254791   4.020   1.522  12.340  0.0153 -0.2362 -0.1227
10199TIP3    H154792   3.991   1.452  12.399 -1.0953  0.0145 -0.3570
10199TIP3    H254793   4.114   1.509  12.334 -0.1493 -1.6489 -0.0613
10200TIP3   OH254794   4.965   0.958  11.135  0.2051 -0.5664 -0.7971
10200TIP3    H154795   4.892   1.017  11.114  0.6786 -0.1484 -1.3050
10200TIP3    H254796   5.009   0.944  11.051  0.6851 -0.8492 -0.5046
10201TIP3   OH254797   4.356   4.214  11.440 -0.4166  0.0428  0.4426
10201TIP3    H154798   4.356   4.118  11.433 -1.2678  0.1457 -2.9873
10201TIP3    H254799   4.442   4.240  11.409 -1.4767  0.3801 -2.5731
10202TIP3   OH254800   7.300   2.272  11.409  0.0278 -0.1058  0.0871
10202TIP3    H154801   7.324   2.243  11.498 -1.2179 -0.9772  0.1649
10202TIP3    H254802   7.345   2.211  11.351 -0.8696 -0.9093  0.2012
10203TIP3   OH254803   1.455   1.878  12.188 -0.0582  0.2074  0.3058
10203TIP3    H154804   1.540   1.902  12.224  0.2403 -0.4184  0.0429
10203TIP3    H254805   1.456   1.913  12.099  1.0953 -2.1829 -0.7182
10204TIP3   OH254806   4.358   0.473  11.316 -0.0070 -0.3371 -0.1770
10204TIP3    H154807   4.281   0.417  11.327 -0.4636  0.2960 -0.0781
10204TIP3    H254808   4.340   0.549  11.372  0.9171 -0.4170  0.2364
10205TIP3   OH254809   4.015   1.352  11.986  0.2359  0.2625 -0.5862
10205TIP3    H154810   3.956   1.332  11.913 -0.5763  0.1899  0.0815
10205TIP3    H254811   4.063   1.271  12.000 -0.6282 -0.1856 -0.1201
10206TIP3   OH254812   3.426   5.342  11.784  0.2304 -0.1505 -0.0188
10206TIP3    H154813   3.457   5.270  11.838 -0.8788  0.0079  0.8735
10206TIP3    H254814   3.336   5.317  11.760  0.2115  0.4401 -0.5880
10207TIP3   OH254815   4.120   7.082  11.315  0.0656 -0.4464  0.3082
10207TIP3    H154816   4.084   7.034  11.241  3.4513 -0.6669 -1.3754
10207TIP3    H254817   4.120   7.173  11.287  0.8494 -0.4631  0.2358
10208TIP3   OH254818   5.001   1.506  13.771 -0.1505  0.4037 -0.4139
10208TIP3    H154819   5.074   1.548  13.724 -0.7861  1.4211 -0.5213
10208TIP3    H254820   4.930   1.569  13.765 -0.8629 -0.3279  0.2083
10209TIP3   OH254821   4.783   4.309  12.028  0.2705 -0.6323 -0.1810
10209TIP3    H154822   4.828   4.393  12.022 -1.8340  0.4721 -1.8416
10209TIP3    H254823   4.823   4.255  11.960  0.9079 -0.6085  0.1746
10210TIP3   OH254824   6.720   4.359  13.346  0.3145 -0.4748 -0.3206
10210TIP3    H154825   6.664   4.367  13.268 -0.1099 -0.9216 -0.0691
10210TIP3    H254826   6.763   4.444  13.354 -2.7932  1.1124  1.3600
10211TIP3   OH254827   2.398   3.970  12.021  0.5712 -0.2260 -0.5332
10211TIP3    H154828   2.423   3.878  12.035 -0.1777 -0.4720 -0.7633
10211TIP3    H254829   2.305   3.966  11.997 -0.6110  0.8482  3.1758
10212TIP3   OH254830   3.720   3.226  12.190  0.2844 -0.0426  0.2196
10212TIP3    H154831   3.667   3.184  12.258  1.9906  1.4144  2.6115
10212TIP3    H254832   3.720   3.319  12.214  1.5873  0.4052 -1.3586
10213TIP3   OH254833   0.346   2.854  12.783 -0.2115  0.3599 -0.0078
10213TIP3    H154834   0.260   2.836  12.745 -0.0347 -0.1796 -0.1555
10213TIP3    H254835   0.357   2.786  12.850 -0.5400  1.3208  1.0572
10214TIP3   OH254836   4.674   5.024  13.070  0.0478  0.0223  0.2655
10214TIP3    H154837   4.620   5.003  13.147  0.3257 -0.1569  0.4152
10214TIP3    H254838   4.643   5.110  13.041 -1.8938 -1.0563 -1.0382
10215TIP3   OH254839   0.038   1.715  11.930 -0.0898 -0.0017 -0.0476
10215TIP3    H154840  -0.052   1.683  11.926  0.3067 -1.1229 -0.3787
10215TIP3    H254841   0.058   1.741  11.840 -0.5666  1.6967  0.3028
10216TIP3   OH254842   1.023   4.039  12.098  0.5762  0.1049  0.7723
10216TIP3    H154843   1.073   4.119  12.116 -1.3079  1.9099 -1.3836
10216TIP3    H254844   0.942   4.070  12.057 -0.8460 -2.8736  1.0735
10217TIP3   OH254845   1.087   3.353  12.439 -0.4607  0.4721 -0.8778
10217TIP3    H154846   1.044   3.341  12.523 -0.6484  2.5770 -0.6203
10217TIP3    H254847   1.041   3.426  12.398  0.2144  0.0857 -2.4121
10218TIP3   OH254848   1.762   0.237  11.478 -0.0276  0.2400  0.4573
10218TIP3    H154849   1.833   0.189  11.521  0.5132  0.1458 -0.5268
10218TIP3    H254850   1.683   0.184  11.495  0.3647 -0.3756  0.3781
10219TIP3   OH254851   0.015   2.708  11.211  0.0421 -0.0555 -0.5507
10219TIP3    H154852  -0.057   2.707  11.147  0.1999  0.7511 -0.7545
10219TIP3    H254853   0.094   2.714  11.157  0.2546 -0.6690 -0.3163
10220TIP3   OH254854   5.509   7.062  12.878  0.3357  0.5186  0.3712
10220TIP3    H154855   5.552   7.037  12.959  1.3696  1.9097  0.2802
10220TIP3    H254856   5.554   7.142  12.850  0.4665 -0.2739 -1.9231
10221TIP3   OH254857   1.854   2.831  12.130  0.0991 -0.1660  0.4977
10221TIP3    H154858   1.838   2.851  12.038  2.2171  1.3781  0.3957
10221TIP3    H254859   1.837   2.914  12.175  1.5399 -0.2011  1.1402
10222TIP3   OH254860   0.125   2.806  12.668 -0.0385 -0.1351 -0.1388
10222TIP3    H154861   0.070   2.882  12.646 -0.7016 -0.5823 -0.0662
10222TIP3    H254862   0.137   2.761  12.584 -0.2617 -0.3428 -0.0619
10223TIP3   OH254863   2.924   3.671  13.559 -0.5330 -0.0662  0.0234
10223TIP3    H154864   2.992   3.629  13.612  0.5597  0.4869 -0.8953
10223TIP3    H254865   2.879   3.729  13.621  0.3391  0.1454  0.4841
10224TIP3   OH254866   6.545   3.234  12.354 -0.0273  0.0277  0.0029
10224TIP3    H154867   6.463   3.192  12.329 -0.3056  0.5022  0.1183
10224TIP3    H254868   6.586   3.173  12.416 -0.5119  0.0117  0.3074
10225TIP3   OH254869   4.577   6.928  13.334  0.1025 -0.1153 -0.1348
10225TIP3    H154870   4.634   6.857  13.363  0.0469 -0.1055  0.0046
10225TIP3    H254871   4.625   7.008  13.357  0.8911 -0.0988 -1.7653
10226TIP3   OH254872   0.889   4.165  10.933  0.0252 -0.5149  0.3785
10226TIP3    H154873   0.970   4.140  10.889 -0.2361 -2.2250  0.7733
10226TIP3    H254874   0.879   4.099  11.002 -0.4227  1.1165  1.9455
10227TIP3   OH254875   0.724   2.581  12.375 -0.4948 -0.0158 -0.0063
10227TIP3    H154876   0.758   2.501  12.335 -3.4267 -0.2477 -2.3764
10227TIP3    H254877   0.662   2.550  12.442 -0.8875  0.2658 -0.2347
10228TIP3   OH254878   4.345   4.959  13.809  0.7856 -1.0113  0.4636
10228TIP3    H154879   4.274   4.926  13.754 -0.8885 -0.1574  1.9992
10228TIP3    H254880   4.389   4.881  13.841 -0.4350 -1.6512  0.6603
10229TIP3   OH254881   2.660   2.479  12.025  0.0482  0.0343  0.4544
10229TIP3    H154882   2.728   2.476  12.093 -0.3351  1.8800  0.9831
10229TIP3    H254883   2.590   2.422  12.059  1.0211 -1.3567  0.2114
10230TIP3   OH254884   7.487   3.516  11.942  0.2073 -0.6820  0.2247
10230TIP3    H154885   7.400   3.500  11.906  0.2972 -0.2717 -0.1879
10230TIP3    H254886   7.516   3.597  11.899  0.4240 -0.3295  1.0265
10231TIP3   OH254887   5.714   7.646  12.544 -0.1083 -0.6463  0.0410
10231TIP3    H154888   5.680   7.602  12.621  0.6255  0.4620  1.0370
10231TIP3    H254889   5.652   7.716  12.526  1.3771  1.1886  1.6816
10232TIP3   OH254890   2.763   6.603  13.048 -0.1394 -0.2081 -0.1728
10232TIP3    H154891   2.684   6.624  13.098 -0.5138 -0.6817 -0.5532
10232TIP3    H254892   2.825   6.672  13.070 -1.0980  0.9058 -0.8623
10233TIP3   OH254893   2.651   4.911  13.471  0.2142 -0.4234 -0.3551
10233TIP3    H154894   2.607   4.994  13.451 -0.1410 -0.4187  0.4423
10233TIP3    H254895   2.675   4.877  13.385 -2.1304 -0.8643 -0.9006
10234TIP3   OH254896   3.385   2.726  11.463  0.3991  0.1279  0.2106
10234TIP3    H154897   3.457   2.783  11.435  0.3279  0.8278  1.4023
10234TIP3    H254898   3.353   2.687  11.382  1.7163  0.2774 -0.4178
10235TIP3   OH254899   6.906   3.548  11.277  0.1565 -0.4989  0.1397
10235TIP3    H154900   6.860   3.627  11.306 -1.3365 -1.2975  0.0373
10235TIP3    H254901   6.960   3.577  11.204 -1.0286  0.2761 -0.4560
10236TIP3   OH254902   4.607   6.753  12.170  0.5793 -0.4046  0.3185
10236TIP3    H154903   4.583   6.730  12.260  2.2381 -1.8518  0.4537
10236TIP3    H254904   4.526   6.743  12.120 -0.3237  0.2216  1.5953
10237TIP3   OH254905   0.882   1.088  11.566  0.1927  0.3356 -0.2085
10237TIP3    H154906   0.854   1.170  11.525 -0.9716  0.2371  0.3554
10237TIP3    H254907   0.907   1.032  11.493 -0.9041  0.5101 -0.7410
10238TIP3   OH254908   6.350   0.954  13.488 -0.5144 -0.0407  0.2186
10238TIP3    H154909   6.400   0.874  13.504 -2.0348 -0.7615  1.6563
10238TIP3    H254910   6.410   1.025  13.511  0.4238 -0.7959  0.1579
10239TIP3   OH254911   6.310   4.549  12.904  0.2389 -0.1647 -0.2726
10239TIP3    H154912   6.286   4.574  12.993 -1.4189 -0.2522 -0.6649
10239TIP3    H254913   6.364   4.470  12.916 -1.3415 -1.1707  0.6173
10240TIP3   OH254914   4.156   7.553  11.461  0.1664  0.2369 -0.1429
10240TIP3    H154915   4.074   7.505  11.452  0.9975 -1.1982 -0.3622
10240TIP3    H254916   4.141   7.635  11.415 -1.9273  1.0725  1.8059
10241TIP3   OH254917   4.198   7.471  10.963  0.6263  0.1572 -0.2483
10241TIP3    H154918   4.282   7.502  10.997  0.2246  0.1470  0.7949
10241TIP3    H254919   4.146   7.551  10.953  0.5197  0.0954 -0.1941
10242TIP3   OH254920   6.954   3.244  11.876  0.1126 -0.1094 -0.1445
10242TIP3    H154921   7.041   3.210  11.899 -0.1986 -0.4617  0.5596
10242TIP3    H254922   6.968   3.292  11.795  0.9372 -0.2972 -0.1290
10243TIP3   OH254923   2.469   3.310  10.866  0.4580 -0.5447 -0.2608
10243TIP3    H154924   2.457   3.398  10.904 -0.6679 -0.7135 -0.1990
10243TIP3    H254925   2.505   3.327  10.779 -0.4444  0.0323 -0.5392
10244TIP3   OH254926   2.752   3.562  12.545  0.2285 -0.4056 -0.1070
10244TIP3    H154927   2.740   3.493  12.480  1.1021 -0.3819 -0.3017
10244TIP3    H254928   2.745   3.517  12.629 -0.2090 -0.5542 -0.2184
10245TIP3   OH254929   0.571   6.339  11.575  0.2995  0.8451  0.6713
10245TIP3    H154930   0.621   6.413  11.541  0.7568  0.1193 -0.2542
10245TIP3    H254931   0.597   6.333  11.667  1.7442  0.6349  0.2738
10246TIP3   OH254932   3.157   0.773  13.317  0.1924 -0.0427 -0.5309
10246TIP3    H154933   3.249   0.767  13.344  0.4718  0.2680 -1.3871
10246TIP3    H254934   3.138   0.866  13.317 -0.6210 -0.1803  1.2192
10247TIP3   OH254935   1.228   6.945  11.556 -0.5118  0.3493 -0.3946
10247TIP3    H154936   1.150   6.937  11.501 -1.1932  0.4676  0.5277
10247TIP3    H254937   1.278   6.865  11.539 -0.0945  0.9314 -2.0822
10248TIP3   OH254938   6.791   3.539  12.859 -0.2248 -0.5777 -0.1834
10248TIP3    H154939   6.780   3.626  12.820 -0.0769  1.0799  3.0639
10248TIP3    H254940   6.847   3.555  12.935 -0.7514 -3.4143  0.9093
10249TIP3   OH254941   2.433   5.946  13.471  0.5487 -0.1020 -0.7208
10249TIP3    H154942   2.383   5.971  13.548 -0.2878  0.4595 -1.4272
10249TIP3    H254943   2.417   5.852  13.461 -1.7723  0.3443 -1.8717
10250TIP3   OH254944   5.940   1.564  13.904 -0.3914 -0.0591 -0.0799
10250TIP3    H154945   5.924   1.631  13.971 -0.7830 -0.2481  0.0119
10250TIP3    H254946   6.031   1.580  13.877  0.7922 -1.7320  2.4901
10251TIP3   OH254947   1.745   0.974  12.312  0.3746 -0.3144 -0.5019
10251TIP3    H154948   1.708   0.929  12.389  0.8303  0.9503  0.4953
10251TIP3    H254949   1.675   1.032  12.283  1.0422  1.0853  0.5590
10252TIP3   OH254950   1.642   1.297  11.344  0.0655  0.0137  0.0909
10252TIP3    H154951   1.648   1.334  11.256  0.1919  0.5035  0.3023
10252TIP3    H254952   1.724   1.251  11.356 -0.4486 -1.1066 -0.5085
10253TIP3   OH254953   7.059   0.859  11.053 -0.5317  0.2204  0.5859
10253TIP3    H154954   6.989   0.800  11.081  0.2989 -0.7596  0.6452
10253TIP3    H254955   7.054   0.932  11.114  0.2535 -1.1500  2.3836
10254TIP3   OH254956   6.277   3.214  11.336 -0.3188 -0.2174 -0.1383
10254TIP3    H154957   6.240   3.186  11.253 -0.1491  1.6783 -0.8964
10254TIP3    H254958   6.345   3.278  11.313 -1.5416  1.7991  1.4545
10255TIP3   OH254959   3.361   5.196  13.101  0.1733  0.3598  0.2439
10255TIP3    H154960   3.387   5.115  13.144 -1.5696 -0.0934  0.5403
10255TIP3    H254961   3.442   5.234  13.069  1.2741 -0.4524  1.9299
10256TIP3   OH254962   4.299   0.812  12.166 -0.1730 -0.1909  0.2309
10256TIP3    H154963   4.247   0.807  12.085 -1.1830 -0.0796  0.8513
10256TIP3    H254964   4.303   0.722  12.197  0.6548 -0.3114 -0.1983
10257TIP3   OH254965   3.539   5.577  11.646  0.6055  0.1467 -0.4067
10257TIP3    H154966   3.476   5.506  11.661  1.2426 -0.1793  0.9078
10257TIP3    H254967   3.623   5.533  11.632  0.8383  0.6129 -0.5235
10258TIP3   OH254968   3.479   5.242  10.995  0.3614  0.1383  0.0560
10258TIP3    H154969   3.395   5.283  10.974  1.4923  1.5933 -2.0175
10258TIP3    H254970   3.537   5.316  11.015  1.3461 -0.7699  0.6611
10259TIP3   OH254971   6.544   4.318  13.110  0.4585 -0.0366 -0.6243
10259TIP3    H154972   6.503   4.236  13.139  1.0396 -0.7389 -1.6988
10259TIP3    H254973   6.621   4.289  13.061  2.1875  1.2249  1.1916
10260TIP3   OH254974   0.581   5.702  12.672  0.1699  0.4401  0.0394
10260TIP3    H154975   0.508   5.711  12.611  1.8155 -1.4051 -2.4150
10260TIP3    H254976   0.638   5.776  12.652  1.4341 -0.9639 -1.8797
10261TIP3   OH254977   0.558   7.131  12.949 -0.1538  0.0171  0.4278
10261TIP3    H154978   0.582   7.064  13.012  0.1117 -1.2173 -0.9388
10261TIP3    H254979   0.467   7.112  12.927  0.5638 -1.3278 -1.6145
10262TIP3   OH254980   1.867   6.721  12.216  0.1389 -0.4219 -0.0181
10262TIP3    H154981   1.860   6.700  12.309  0.6530  0.7505  0.2980
10262TIP3    H254982   1.961   6.719  12.198  0.2184  1.4519  0.0163
10263TIP3   OH254983   5.578   3.045  12.293  0.1146 -0.0552  0.4456
10263TIP3    H154984   5.554   2.955  12.272 -0.5315  0.1232  0.4109
10263TIP3    H254985   5.664   3.056  12.253  0.5576 -0.9014  1.1309
10264TIP3   OH254986   5.368   5.027  11.552  0.8683 -0.2286  0.5336
10264TIP3    H154987   5.387   5.115  11.585  0.4812  0.3501 -0.6880
10264TIP3    H254988   5.289   5.039  11.498 -0.1512 -1.6441  1.6500
10265TIP3   OH254989   3.604   5.931  11.365  0.0168 -0.0668 -0.3595
10265TIP3    H154990   3.670   5.960  11.302  1.1950 -3.2312 -0.7811
10265TIP3    H254991   3.522   5.931  11.316  0.0724  1.6581 -0.5256
10266TIP3   OH254992   3.996   0.001  11.776  0.2794 -0.1771 -0.3710
10266TIP3    H154993   3.940   0.050  11.716  1.0987  0.4885 -0.6246
10266TIP3    H254994   4.084   0.036  11.760  0.4035  0.6627  1.8469
10267TIP3   OH254995   0.384   2.293  13.687  0.0083 -0.1639 -0.6121
10267TIP3    H154996   0.443   2.247  13.627 -0.2122 -0.7842 -0.3653
10267TIP3    H254997   0.437   2.309  13.765  0.3001  0.6579 -0.9726
10268TIP3   OH254998   0.205   5.193  10.586  1.0433  0.2593 -0.0564
10268TIP3    H154999   0.132   5.133  10.603  0.5353  1.2281  1.3554
10268TIP3    H255000   0.167   5.280  10.599  2.4124  0.7760  0.6069
10269TIP3   OH255001   0.497   5.785  11.615 -0.4011  0.3428  0.5027
10269TIP3    H155002   0.523   5.699  11.650  1.2183  0.3699 -0.5305
10269TIP3    H255003   0.579   5.826  11.590 -1.1672  2.1703  0.8447
10270TIP3   OH255004   5.665   4.623  12.390  0.8141  0.1305  0.8538
10270TIP3    H155005   5.651   4.676  12.469  1.8706  0.5331  0.7785
10270TIP3    H255006   5.606   4.662  12.325  1.2672  0.9580  0.9203
10271TIP3   OH255007   4.714   4.571  11.159 -0.0261  0.6546  0.2679
10271TIP3    H155008   4.659   4.634  11.205  0.5955  1.7558 -0.4548
10271TIP3    H255009   4.689   4.580  11.067  1.2439  1.0869 -0.0570
10272TIP3   OH255010   1.977   2.245  11.092  0.2353  0.4505  0.0491
10272TIP3    H155011   1.985   2.212  11.182 -0.4517  2.2034  0.7965
10272TIP3    H255012   2.058   2.294  11.078  0.2622  0.3283 -0.2126
10273TIP3   OH255013   1.336   0.689  11.480  0.0708 -0.1697 -0.0305
10273TIP3    H155014   1.249   0.660  11.508  0.4643 -1.1055  0.2285
10273TIP3    H255015   1.343   0.660  11.390  0.5090 -0.9836  0.2636
10274TIP3   OH255016   6.202   1.408  11.637  0.1999 -0.2606  0.7026
10274TIP3    H155017   6.241   1.483  11.681 -1.7846  0.9284  0.5598
10274TIP3    H255018   6.218   1.424  11.544  1.2604 -0.9329  0.7483
10275TIP3   OH255019   4.412   7.461  12.684 -0.2934 -0.6140 -0.0765
10275TIP3    H155020   4.365   7.390  12.727  1.7194 -0.0771  3.3097
10275TIP3    H255021   4.345   7.529  12.669 -1.4850 -1.7226  0.0951
10276TIP3   OH255022   6.736   2.698  13.737  0.5093  0.3439  0.3088
10276TIP3    H155023   6.672   2.636  13.772 -0.6751  2.1103  1.4292
10276TIP3    H255024   6.697   2.727  13.654  1.6035 -1.1726 -0.7925
10277TIP3   OH255025   4.529   4.338  12.713  0.5097  0.6217  0.2583
10277TIP3    H155026   4.624   4.350  12.706  0.8159 -1.7770 -1.0149
10277TIP3    H255027   4.502   4.400  12.780  2.6792  2.6636 -0.5970
10278TIP3   OH255028   1.155   5.581  13.466  0.1640  0.0453  0.0220
10278TIP3    H155029   1.196   5.498  13.491  2.3023  1.0958  0.2630
10278TIP3    H255030   1.161   5.636  13.544 -1.2255  0.4470 -0.1305
10279TIP3   OH255031   1.315   1.761  12.580 -0.0959 -0.1268 -0.2666
10279TIP3    H155032   1.281   1.755  12.670 -0.3216  2.3309 -0.1185
10279TIP3    H255033   1.252   1.712  12.528 -0.9992 -0.0351  0.6958
10280TIP3   OH255034   1.100   5.145  11.784 -0.0864  0.2087  0.1953
10280TIP3    H155035   1.019   5.145  11.733  0.1501  0.4459 -0.1774
10280TIP3    H255036   1.072   5.164  11.874 -0.3674  0.9684 -0.0481
10281TIP3   OH255037   4.089   5.432  12.022  0.4665 -0.0582 -0.0382
10281TIP3    H155038   4.100   5.456  12.114  0.0116  0.9516 -0.2324
10281TIP3    H255039   4.178   5.414  11.991  0.9414  1.9479 -0.0008
10282TIP3   OH255040   5.498   3.691  11.873 -0.4636  0.1256  0.0298
10282TIP3    H155041   5.466   3.604  11.850  0.4064 -0.2600  0.2493
10282TIP3    H255042   5.476   3.746  11.797 -0.8198 -0.3301 -0.1977
10283TIP3   OH255043   0.607   4.249  13.149  0.4115  0.3135  0.0552
10283TIP3    H155044   0.592   4.335  13.187 -2.5003  0.3889 -0.9684
10283TIP3    H255045   0.531   4.235  13.092  0.6006 -3.0723  0.4410
10284TIP3   OH255046   0.477   5.442  12.729 -0.8889 -0.4806  0.0832
10284TIP3    H155047   0.502   5.529  12.761 -0.3563 -1.0281  1.2213
10284TIP3    H255048   0.457   5.455  12.636  0.8820  0.5343 -0.1947
10285TIP3   OH255049   6.815   5.144  11.418 -0.2736  0.4066  0.1693
10285TIP3    H155050   6.759   5.106  11.486 -1.2530 -0.3412 -1.0181
10285TIP3    H255051   6.835   5.072  11.359  2.0215  0.6416  0.5439
10286TIP3   OH255052   0.278   1.406  13.431 -0.1882  0.1888  0.5586
10286TIP3    H155053   0.221   1.370  13.499 -2.1031  1.7779 -0.1057
10286TIP3    H255054   0.295   1.496  13.459 -0.0193  0.4963 -0.4840
10287TIP3   OH255055   7.511   7.289  12.592 -0.1986 -0.2611  0.6657
10287TIP3    H155056   7.457   7.323  12.664 -1.7010 -0.2718 -0.4069
10287TIP3    H255057   7.450   7.280  12.519  1.3900  0.2623 -0.7944
10288TIP3   OH255058   4.151   0.287  11.276 -0.2346 -0.4357  0.1505
10288TIP3    H155059   4.087   0.227  11.314  0.2539 -1.5504 -0.7467
10288TIP3    H255060   4.116   0.308  11.190 -0.0270 -0.0154  0.1675
10289TIP3   OH255061   5.327   6.737  13.451  0.1084 -0.0523  0.3914
10289TIP3    H155062   5.364   6.802  13.392 -0.6574 -0.6774 -0.8013
10289TIP3    H255063   5.373   6.656  13.430 -0.7917 -0.4783 -0.0006
10290TIP3   OH255064   4.066   6.438  13.893  0.1426 -0.0389 -0.5632
10290TIP3    H155065   3.990   6.495  13.894  0.5066  0.4715  0.8625
10290TIP3    H255066   4.128   6.481  13.835 -0.3595 -0.0628 -1.1226
10291TIP3   OH255067   6.759   1.785  11.009  0.1594 -0.1973 -0.1614
10291TIP3    H155068   6.772   1.794  10.914  0.0866 -1.5663 -0.3110
10291TIP3    H255069   6.825   1.721  11.036 -1.2752 -1.5035  0.3316
10292TIP3   OH255070   6.831   1.807  12.210 -0.3940 -0.0558  0.4638
10292TIP3    H155071   6.822   1.880  12.271 -0.7852 -2.1738  3.0920
10292TIP3    H255072   6.744   1.796  12.172  0.0331  1.7698 -1.2347
10293TIP3   OH255073   5.973   3.456  12.584 -0.0895 -0.2429 -0.3804
10293TIP3    H155074   5.989   3.364  12.564 -2.2008 -0.2867 -2.1814
10293TIP3    H255075   5.991   3.502  12.502  0.5886  0.9525  0.3949
10294TIP3   OH255076   0.679   1.543  11.705  0.0985  0.1109  0.2453
10294TIP3    H155077   0.656   1.615  11.646  2.0482 -0.9580 -1.9352
10294TIP3    H255078   0.595   1.513  11.740 -0.9404  2.0496 -0.4297
10295TIP3   OH255079   7.245   7.107  12.013 -0.7418 -0.1921 -0.1799
10295TIP3    H155080   7.157   7.146  12.006 -0.8755 -0.2947  0.7768
10295TIP3    H255081   7.292   7.166  12.072 -0.8445 -1.2951  1.0351
10296TIP3   OH255082   1.475   7.153  12.551 -0.0303 -0.1840  0.0267
10296TIP3    H155083   1.473   7.240  12.591 -2.2745  0.1202 -0.6468
10296TIP3    H255084   1.497   7.168  12.459 -0.9005 -0.2639 -0.2015
10297TIP3   OH255085   2.242   4.279  11.906  0.2428  0.2748 -1.0190
10297TIP3    H155086   2.254   4.216  11.835  0.6051 -0.3755 -0.3887
10297TIP3    H255087   2.284   4.239  11.982 -1.3894  0.2883 -0.0618
10298TIP3   OH255088   3.208   7.474  12.454  0.1081  0.6419 -0.0695
10298TIP3    H155089   3.206   7.567  12.477  1.8029  0.6794 -0.0110
10298TIP3    H255090   3.174   7.429  12.531  0.5027  1.1329  0.3937
10299TIP3   OH255091   4.825   1.071  12.825  0.0114  0.2326  0.3424
10299TIP3    H155092   4.872   1.068  12.909  1.8370 -2.2573 -0.6324
10299TIP3    H255093   4.878   1.128  12.770  1.3305 -1.6283 -0.3935
10300TIP3   OH255094   4.365   7.418  13.232 -0.4553 -0.2102 -0.0117
10300TIP3    H155095   4.337   7.330  13.207 -0.4863  0.5780 -3.2517
10300TIP3    H255096   4.302   7.476  13.189  0.5166  1.4408  0.6926
10301TIP3   OH255097   6.347   1.192  12.984  0.4479  0.6124 -0.1471
10301TIP3    H155098   6.371   1.254  13.053 -2.6354  0.7154  1.0040
10301TIP3    H255099   6.411   1.207  12.914  3.1654  1.1495  2.2444
10302TIP3   OH255100   2.571   3.021  13.300  0.1604 -0.1299 -0.1146
10302TIP3    H155101   2.656   3.040  13.262 -0.2583 -0.2223 -1.1392
10302TIP3    H255102   2.535   3.106  13.323  0.5779 -0.0999  0.4300
10303TIP3   OH255103   2.275   1.067  13.250 -0.0174 -0.7759 -0.2290
10303TIP3    H155104   2.313   0.980  13.263 -1.3835 -1.1530  1.7258
10303TIP3    H255105   2.350   1.124  13.237  1.1702 -1.7571  1.7388
10304TIP3   OH255106   2.915   4.694  12.202  0.3997 -0.5405 -0.0126
10304TIP3    H155107   2.972   4.659  12.270 -0.6956 -1.2064  0.5862
10304TIP3    H255108   2.838   4.637  12.202  0.4113 -0.6461 -1.9124
10305TIP3   OH255109   7.034   4.005  11.136 -0.0065 -0.0527  0.1096
10305TIP3    H155110   7.004   3.918  11.164 -2.4379  0.5316 -0.4330
10305TIP3    H255111   7.110   4.023  11.191 -0.7063 -1.6620  1.7284
10306TIP3   OH255112   0.390   1.275  13.854  0.2794  0.2170  0.0407
10306TIP3    H155113   0.400   1.348  13.793 -0.7269 -0.0831 -0.5156
10306TIP3    H255114   0.479   1.250  13.877  0.6934  0.2022 -1.4847
10307TIP3   OH255115   5.888   6.084  11.954 -0.0538  0.5431  0.2729
10307TIP3    H155116   5.983   6.084  11.942  0.0258  0.3390  0.8672
10307TIP3    H255117   5.868   5.995  11.983 -0.1951  1.0806  1.8921
10308TIP3   OH255118   4.236   2.067  12.542 -0.5421 -0.4799 -0.1901
10308TIP3    H155119   4.167   2.027  12.594  0.5836 -1.1648  0.8397
10308TIP3    H255120   4.253   2.004  12.472 -1.3715 -0.0086 -0.8486
10309TIP3   OH255121   5.520   1.156  12.806 -0.4757 -0.0632 -0.2307
10309TIP3    H155122   5.433   1.195  12.811  0.0101  1.0530 -0.2424
10309TIP3    H255123   5.540   1.153  12.713  0.0507  0.9809 -0.1677
10310TIP3   OH255124   6.303   3.275  10.793  0.0347  0.2218  0.5483
10310TIP3    H155125   6.211   3.290  10.815  0.3970  1.0867  1.5648
10310TIP3    H255126   6.324   3.191  10.835 -0.4053 -0.2085 -0.0790
10311TIP3   OH255127   0.119   7.020  11.908 -0.1037 -0.1744  0.3028
10311TIP3    H155128   0.064   7.021  11.986  0.1786 -0.0120  0.5029
10311TIP3    H255129   0.208   7.031  11.942 -0.0948  1.2889 -0.1454
10312TIP3   OH255130   6.874   1.400  13.077  0.0630 -0.1002  0.0047
10312TIP3    H155131   6.942   1.449  13.123  0.0613 -0.8382  0.8063
10312TIP3    H255132   6.796   1.455  13.084  0.1447 -0.0588  0.6041
10313TIP3   OH255133   0.187   1.495  12.956  0.1845 -0.3677 -0.6228
10313TIP3    H155134   0.233   1.429  13.007  1.1015  1.3755  0.9435
10313TIP3    H255135   0.133   1.542  13.020  0.9484  1.5422 -1.3163
10314TIP3   OH255136   6.256   6.531  13.419  0.0614  0.2623 -0.4735
10314TIP3    H155137   6.238   6.560  13.330 -1.3942  1.0724  0.0540
10314TIP3    H255138   6.328   6.587  13.449 -0.4848  1.0476 -0.6153
10315TIP3   OH255139   4.083   5.761  12.107  0.1946  0.4697  0.5392
10315TIP3    H155140   4.089   5.697  12.178  0.0255  1.6957  1.6998
10315TIP3    H255141   4.115   5.843  12.146 -0.8667  1.4124 -0.4964
10316TIP3   OH255142   2.469   3.564  12.589  0.3052  0.5489 -0.4396
10316TIP3    H155143   2.482   3.568  12.494  0.8002  0.5447 -0.3726
10316TIP3    H255144   2.549   3.601  12.626  0.6117 -0.5126 -0.0020
10317TIP3   OH255145   2.004   0.352  11.813 -0.1575 -0.0570 -0.4250
10317TIP3    H155146   2.012   0.358  11.908 -0.4900 -0.0380 -0.3967
10317TIP3    H255147   1.948   0.426  11.789  0.3143  0.2238 -0.6907
10318TIP3   OH255148   4.000   3.267  12.161  0.3334  0.7907 -0.2081
10318TIP3    H155149   3.995   3.322  12.083  0.0498 -1.8697 -2.1871
10318TIP3    H255150   3.912   3.231  12.171  0.8051 -0.2904  0.2464
10319TIP3   OH255151   2.799   3.411  11.971 -0.1503  0.7684 -0.2969
10319TIP3    H155152   2.837   3.499  11.977 -0.1881  0.7133  0.8470
10319TIP3    H255153   2.813   3.386  11.879  1.2651  1.3449 -0.2674
10320TIP3   OH255154   0.617   6.753  12.123 -0.5362  0.0870 -0.8882
10320TIP3    H155155   0.617   6.778  12.216 -0.3493  1.4531 -1.2335
10320TIP3    H255156   0.683   6.684  12.117  1.1728  1.6047 -0.3930
10321TIP3   OH255157   4.802   1.467  12.662 -0.5016 -0.3362  0.5734
10321TIP3    H155158   4.814   1.522  12.740 -1.2800 -0.6989  0.9583
10321TIP3    H255159   4.708   1.474  12.642 -0.3016 -0.2190 -0.3578
10322TIP3   OH255160   3.307   6.225  10.845  0.3620 -0.1766  0.0893
10322TIP3    H155161   3.280   6.304  10.798  1.2342 -0.3742 -0.7683
10322TIP3    H255162   3.340   6.258  10.929  1.2199  0.4343 -0.4729
10323TIP3   OH255163   6.359   7.302  11.335 -0.0869 -0.5947 -0.7544
10323TIP3    H155164   6.387   7.212  11.316 -0.1428 -0.5465 -1.0746
10323TIP3    H255165   6.436   7.343  11.375  0.6796 -0.1764 -2.5104
10324TIP3   OH255166   5.366   7.437  11.962  0.4869  0.4609 -0.4114
10324TIP3    H155167   5.367   7.531  11.944  0.6166  0.5649  0.1071
10324TIP3    H255168   5.387   7.430  12.056  0.6644 -0.0944 -0.4841
10325TIP3   OH255169   2.111   2.512  12.270  0.0279 -0.8394 -0.2490
10325TIP3    H155170   2.124   2.524  12.175 -1.8996 -0.2928 -0.4878
10325TIP3    H255171   2.017   2.522  12.282  0.4856  1.6664  2.0773
10326TIP3   OH255172   7.497   5.667  11.734 -0.2042 -0.2421 -0.1718
10326TIP3    H155173   7.445   5.700  11.661  1.1108 -0.1425 -1.0917
10326TIP3    H255174   7.508   5.743  11.791  0.1218  0.1035 -0.6857
10327TIP3   OH255175   5.274   3.276  12.592 -0.3334 -0.1575 -0.1065
10327TIP3    H155176   5.179   3.267  12.584 -0.3069  0.5237 -1.4235
10327TIP3    H255177   5.308   3.244  12.508  0.6315 -0.8052  0.5179
10328TIP3   OH255178   0.166   4.901  12.793 -0.0304  0.1360  0.4649
10328TIP3    H155179   0.165   4.867  12.883 -0.3256  1.3877  0.9543
10328TIP3    H255180   0.093   4.963  12.790  0.5975  0.8586 -0.3290
10329TIP3   OH255181   3.041   4.145  12.263 -0.3474 -0.0956  0.4571
10329TIP3    H155182   3.032   4.232  12.302 -1.4093  0.3106 -0.6028
10329TIP3    H255183   2.957   4.103  12.278 -0.7413  0.0223 -1.1937
10330TIP3   OH255184   2.518   5.392  13.014 -0.1886  0.1542 -0.1414
10330TIP3    H155185   2.504   5.300  13.038 -2.0869  0.5981  0.6329
10330TIP3    H255186   2.469   5.442  13.079  0.5880  1.7311 -0.7043
10331TIP3   OH255187   4.849   6.647  11.719  0.5051  0.3551 -0.1212
10331TIP3    H155188   4.823   6.725  11.768 -1.6759 -0.8098  0.6644
10331TIP3    H255189   4.944   6.641  11.733  0.3283  1.4669  1.8566
10332TIP3   OH255190   2.453   3.243  12.444 -0.3565 -0.3388 -0.6422
10332TIP3    H155191   2.423   3.295  12.369  1.7820 -0.8981 -1.9550
10332TIP3    H255192   2.388   3.173  12.451 -1.9224  1.0705 -0.3929
10333TIP3   OH255193   7.061   3.572  11.019 -0.1359 -0.4459  0.2927
10333TIP3    H155194   7.111   3.490  11.013  0.0204 -0.4038  0.9760
10333TIP3    H255195   7.125   3.640  10.997  0.1622 -0.3773  1.3423
10334TIP3   OH255196   2.804   6.660  13.973  0.0656  0.0220  0.0780
10334TIP3    H155197   2.711   6.681  13.961 -0.2692 -1.3537  0.1270
10334TIP3    H255198   2.837   6.645  13.885 -0.0686 -0.6679  0.1352
10335TIP3   OH255199   5.027   5.487  11.419 -0.1868  0.1383  0.0184
10335TIP3    H155200   5.081   5.435  11.480 -1.8523 -0.4776  1.0268
10335TIP3    H255201   4.975   5.544  11.476  0.8386  2.2262 -1.0288
10336TIP3   OH255202   0.148   4.776  12.208 -0.0001  0.0438  0.3583
10336TIP3    H155203   0.240   4.763  12.231  0.3850  0.1909 -1.0216
10336TIP3    H255204   0.151   4.823  12.125 -1.3166 -0.6524 -0.1068
10337TIP3   OH255205   1.256   1.423  13.939 -0.7043  0.4752  0.4132
10337TIP3    H155206   1.206   1.505  13.950 -0.7671  0.4265  0.4944
10337TIP3    H255207   1.339   1.441  13.982  0.1621  1.2751 -1.4690
10338TIP3   OH255208   4.641   1.266  12.193 -0.5591  0.2293 -0.1946
10338TIP3    H155209   4.562   1.281  12.246  0.4820  1.2450  1.1681
10338TIP3    H255210   4.617   1.297  12.105 -1.7847  0.1820  0.1020
10339TIP3   OH255211   1.734   0.547  11.326  0.1169 -0.0259  0.0544
10339TIP3    H155212   1.764   0.635  11.302 -1.2844  0.5519  0.3183
10339TIP3    H255213   1.733   0.498  11.244  0.3178  0.3870 -0.1940
10340TIP3   OH255214   3.394   6.837  11.269 -0.4782  0.4930  0.2090
10340TIP3    H155215   3.323   6.807  11.326 -0.1085 -0.4749  0.1940
10340TIP3    H255216   3.412   6.926  11.297 -0.0830 -0.0629  1.8443
10341TIP3   OH255217   3.128   7.652  11.913  0.2546 -0.0659 -0.8943
10341TIP3    H155218   3.147   7.602  11.993 -1.7999 -3.3995 -2.2894
10341TIP3    H255219   3.044   7.694  11.932  0.0173 -0.4396 -1.1160
10342TIP3   OH255220   0.847   0.942  12.328 -0.0713 -0.2523  0.6634
10342TIP3    H155221   0.805   1.017  12.369 -0.9382 -0.7600  0.7293
10342TIP3    H255222   0.881   0.890  12.401  1.4646  0.5724  0.5895
10343TIP3   OH255223   6.185   2.281  12.554  0.6803  0.1294 -0.0203
10343TIP3    H155224   6.140   2.201  12.527 -1.3837  0.4488  2.0964
10343TIP3    H255225   6.255   2.251  12.612  0.6632 -0.1804 -0.1586
10344TIP3   OH255226   6.233   2.264  11.562  0.0230 -0.9130  0.1283
10344TIP3    H155227   6.192   2.183  11.532  0.4950 -1.2995  0.5192
10344TIP3    H255228   6.170   2.332  11.540 -0.6282 -1.4485  0.3093
10345TIP3   OH255229   6.770   3.323  13.734  0.5849 -0.2690  0.0469
10345TIP3    H155230   6.707   3.356  13.670  0.2052 -1.6507 -0.3265
10345TIP3    H255231   6.854   3.361  13.708  0.1675  0.3700 -0.3784
10346TIP3   OH255232   0.843   4.406  12.030 -0.0022 -0.1191  0.5652
10346TIP3    H155233   0.880   4.422  11.943  1.8783 -0.2206  1.2974
10346TIP3    H255234   0.798   4.322  12.022  1.0298 -0.6326 -0.0673
10347TIP3   OH255235   1.356   2.925  12.595 -0.2856  0.1525  0.2736
10347TIP3    H155236   1.308   3.007  12.594  1.4035  1.3352  3.4397
10347TIP3    H255237   1.288   2.857  12.598 -1.7410  1.5749  0.6319
10348TIP3   OH255238   4.513   4.940  11.602 -0.2892  0.0722  0.6727
10348TIP3    H155239   4.522   4.938  11.697  0.0828  2.6114  0.7821
10348TIP3    H255240   4.419   4.932  11.586 -0.2971 -0.9911  1.1937
10349TIP3   OH255241   2.137   0.689  11.939  0.2403 -0.0179  0.0503
10349TIP3    H155242   2.109   0.608  11.982 -0.1473 -0.2571 -0.6326
10349TIP3    H255243   2.057   0.740  11.932 -0.1364 -0.8138 -2.1576
10350TIP3   OH255244   6.561   2.505  11.457  0.0130  0.1762 -0.3843
10350TIP3    H155245   6.651   2.475  11.469  0.3549  1.0117 -0.7549
10350TIP3    H255246   6.542   2.487  11.365 -0.2191 -0.0352 -0.2971
10351TIP3   OH255247   3.494   0.390  12.100  0.1024 -0.5117  0.2668
10351TIP3    H155248   3.535   0.331  12.037 -0.5674 -0.5761 -0.1183
10351TIP3    H255249   3.453   0.458  12.046 -0.3564 -0.4891  0.6315
10352TIP3   OH255250   1.454   2.031  12.846 -0.4281  0.5535  0.2581
10352TIP3    H155251   1.495   2.058  12.763 -1.5876  1.1892 -0.1335
10352TIP3    H255252   1.482   1.940  12.858  1.3116  1.0505  0.1644
10353TIP3   OH255253   1.220   1.231  11.922  0.1790 -0.1101 -0.6695
10353TIP3    H155254   1.183   1.198  11.840 -1.0468  0.0305 -0.2026
10353TIP3    H255255   1.161   1.197  11.990 -0.2745  1.7564 -0.0608
10354TIP3   OH255256   1.349   4.924  10.932  0.4015 -0.5869 -0.1706
10354TIP3    H155257   1.352   4.969  11.016 -0.6154 -0.2058 -0.3164
10354TIP3    H255258   1.384   4.837  10.950  2.0790  0.1317  0.1924
10355TIP3   OH255259   0.091   4.529  13.896 -0.0909 -0.4986 -0.4051
10355TIP3    H155260   0.109   4.598  13.960  1.1405 -1.7363  0.6435
10355TIP3    H255261  -0.004   4.531  13.884 -0.1406  0.9358  0.0845
10356TIP3   OH255262   1.539   3.101  11.512  0.1045  0.2105 -0.0461
10356TIP3    H155263   1.514   3.098  11.420  0.7085 -2.2381 -0.1815
10356TIP3    H255264   1.502   3.022  11.550  2.1679 -0.2372  1.1693
10357TIP3   OH255265   1.818   4.538  11.197 -0.0932 -0.2531 -0.1606
10357TIP3    H155266   1.726   4.558  11.212 -0.2121 -1.4272  0.8501
10357TIP3    H255267   1.859   4.546  11.283  0.8501  0.6834 -0.6762
10358TIP3   OH255268   1.109   0.490  11.936 -0.1567  0.2726  0.1214
10358TIP3    H155269   1.161   0.561  11.899 -1.6278  0.7404 -1.1406
10358TIP3    H255270   1.022   0.501  11.898 -0.3805 -2.3662 -0.3000
10359TIP3   OH255271   1.002   1.025  12.669 -0.3785 -0.4408 -0.4378
10359TIP3    H155272   0.984   1.033  12.763 -2.8570  1.6366 -0.9694
10359TIP3    H255273   0.989   1.114  12.635  0.4613 -1.1408 -2.7564
10360TIP3   OH255274   1.197   3.626  12.930 -0.6353 -0.6598  0.7852
10360TIP3    H155275   1.263   3.659  12.991  0.0181  1.5528 -1.0245
10360TIP3    H255276   1.118   3.619  12.983 -0.3302  2.1021  1.7529
10361TIP3   OH255277   2.918   0.853  11.913  0.0892  0.3039 -0.2197
10361TIP3    H155278   2.846   0.802  11.950  1.2129 -0.7844  0.5502
10361TIP3    H255279   2.943   0.806  11.834  1.4678 -0.7204  0.7643
10362TIP3   OH255280   0.467   6.464  12.996 -0.7299 -0.6334  0.3077
10362TIP3    H155281   0.463   6.558  13.012 -0.8722 -0.4141 -0.9308
10362TIP3    H255282   0.556   6.439  13.021 -0.2172  0.1112 -0.7207
10363TIP3   OH255283   0.105   6.693  12.775 -0.5810 -0.1181 -0.3953
10363TIP3    H155284   0.061   6.615  12.742 -1.1894  0.2814 -0.5457
10363TIP3    H255285   0.046   6.765  12.753 -0.2594  0.3302  0.1848
10364TIP3   OH255286   2.619   5.285  12.704  0.1981 -0.2082  0.0199
10364TIP3    H155287   2.562   5.210  12.722 -1.0539  0.1896 -1.9849
10364TIP3    H255288   2.599   5.348  12.773 -1.8537 -0.0877 -0.6156
10365TIP3   OH255289   3.134   3.161  11.052 -0.0098 -0.0577 -0.1167
10365TIP3    H155290   3.193   3.087  11.038 -0.0340  0.0922 -1.0661
10365TIP3    H255291   3.167   3.230  10.994 -1.0099  0.0848 -0.5489
10366TIP3   OH255292   2.262   1.659  12.402  0.3111 -0.1306  0.2172
10366TIP3    H155293   2.248   1.746  12.365 -1.0416 -0.1601  0.6079
10366TIP3    H255294   2.334   1.671  12.465  0.0085  0.7396  0.4088
10367TIP3   OH255295   3.940   3.461  12.348  0.4216 -0.6164  0.1031
10367TIP3    H155296   4.007   3.529  12.344  0.5786 -0.7634  0.2446
10367TIP3    H255297   3.977   3.386  12.302 -0.1094 -0.3099 -0.8581
10368TIP3   OH255298   6.126   6.335  13.210  0.5351 -0.1199 -0.1199
10368TIP3    H155299   6.099   6.401  13.274 -3.5598 -0.1401 -1.5502
10368TIP3    H255300   6.182   6.383  13.149  0.4747  1.1395  0.7718
10369TIP3   OH255301   1.531   6.547  11.941  0.3012 -0.4923 -0.1521
10369TIP3    H155302   1.594   6.560  12.012 -1.5017  2.0682  1.1371
10369TIP3    H255303   1.564   6.470  11.894  3.1522 -0.5717  1.7044
10370TIP3   OH255304   7.637   5.240  11.294  0.2933 -0.5050  0.8521
10370TIP3    H155305   7.729   5.228  11.319  0.4838 -1.3423 -0.1838
10370TIP3    H255306   7.640   5.254  11.199 -0.6437 -0.4241  0.8284
10371TIP3   OH255307   1.103   3.044  10.841  0.3514  0.7865  0.5323
10371TIP3    H155308   1.118   2.957  10.803  0.7690  1.0722  0.0104
10371TIP3    H255309   1.008   3.052  10.849  0.3698 -0.4566  2.3860
10372TIP3   OH255310   4.648   6.944  10.984 -0.6669  0.2325  0.0040
10372TIP3    H155311   4.688   6.860  11.003 -1.4776 -0.0255  0.6340
10372TIP3    H255312   4.722   7.002  10.964 -0.0249 -0.3619  0.6018
10373TIP3   OH255313   1.858   2.595  12.265  0.0250 -0.0180 -0.5189
10373TIP3    H155314   1.807   2.540  12.206 -0.6823  0.7031 -0.5906
10373TIP3    H255315   1.840   2.684  12.237 -0.1177  0.3240  0.6216
10374TIP3   OH255316   2.939   2.893  13.226 -0.3963  0.6451 -0.1382
10374TIP3    H155317   2.891   2.975  13.236 -0.5819  0.6233 -0.8472
10374TIP3    H255318   2.993   2.905  13.148 -0.1114  0.2414 -0.0123
10375TIP3   OH255319   2.113   0.473  12.840  0.1900  0.4536  0.5924
10375TIP3    H155320   2.059   0.542  12.878 -0.5114  0.7453 -0.8602
10375TIP3    H255321   2.203   0.499  12.859 -0.0483 -0.7451  4.3180
10376TIP3   OH255322   4.027   4.057  11.306 -0.1032 -0.1140  0.2518
10376TIP3    H155323   4.042   4.111  11.384 -0.9479  0.1875  0.2218
10376TIP3    H255324   4.107   4.066  11.254  0.5112 -0.3991  1.1261
10377TIP3   OH255325   3.831   5.672  12.401  0.3016 -0.5716  0.0838
10377TIP3    H155326   3.888   5.598  12.420  0.3973 -0.3627  0.6425
10377TIP3    H255327   3.769   5.640  12.336 -0.2232 -1.4091  0.9816
10378TIP3   OH255328   4.174   0.787  11.902  0.0864 -0.6531 -0.4045
10378TIP3    H155329   4.211   0.794  11.814  0.1005  0.5557 -0.3198
10378TIP3    H255330   4.172   0.693  11.919  0.5144 -0.8871 -1.5096
10379TIP3   OH255331   0.521   1.270  10.844 -0.1027  0.1872  0.5962
10379TIP3    H155332   0.532   1.190  10.895 -0.6821 -0.8975 -0.8978
10379TIP3    H255333   0.434   1.262  10.805 -0.2840  1.6887  0.6451
10380TIP3   OH255334   0.258   6.392  12.842  0.1006  0.2983 -0.2311
10380TIP3    H155335   0.331   6.432  12.889  0.6732  0.1774 -1.0007
10380TIP3    H255336   0.278   6.298  12.840  0.3910  0.3676 -1.2245
10381TIP3   OH255337   0.637   3.306  12.736  0.8040 -0.5032 -0.4219
10381TIP3    H155338   0.631   3.214  12.763  1.3404 -0.8666 -1.4706
10381TIP3    H255339   0.631   3.355  12.818  1.6002 -1.5238  0.2813
10382TIP3   OH255340   3.545   7.671  11.257  0.2976 -0.2058 -0.2308
10382TIP3    H155341   3.615   7.723  11.217  0.5590 -0.6090 -0.3123
10382TIP3    H255342   3.552   7.585  11.214 -0.8565  0.0197 -0.9307
10383TIP3   OH255343   0.694   3.839  12.611  0.3872  0.5330  1.0786
10383TIP3    H155344   0.770   3.837  12.553  0.7311 -1.0349  1.5243
10383TIP3    H255345   0.659   3.750  12.608 -0.8993  1.0003  1.5769
10384TIP3   OH255346   1.031   2.557  12.212 -0.0345 -0.0041  0.4625
10384TIP3    H155347   1.006   2.540  12.302  2.4767 -0.6214  1.1064
10384TIP3    H255348   1.085   2.636  12.216  0.8621 -0.5466 -0.3274
10385TIP3   OH255349   7.340   5.807  11.491  0.1575 -0.0694 -0.1293
10385TIP3    H155350   7.377   5.893  11.471 -1.3009  0.5717 -0.2646
10385TIP3    H255351   7.327   5.766  11.406 -1.2773  0.5550 -0.2499
10386TIP3   OH255352   5.180   4.012  12.398 -0.0108  0.0676 -0.4426
10386TIP3    H155353   5.235   3.947  12.443  0.7699 -1.0064 -2.7719
10386TIP3    H255354   5.204   4.096  12.438  0.2861 -0.8343  1.3933
10387TIP3   OH255355   1.372   4.388  11.176  0.6583  0.3086  0.4529
10387TIP3    H155356   1.323   4.461  11.139 -0.8959 -1.2015 -0.5766
10387TIP3    H255357   1.458   4.393  11.134  0.1139  0.7500 -0.6395
10388TIP3   OH255358   2.264   3.371  13.128  0.4843  0.3721  0.0298
10388TIP3    H155359   2.300   3.441  13.183  0.1529 -0.2576  1.0741
10388TIP3    H255360   2.252   3.297  13.188  1.6868 -0.9070 -1.2084
10389TIP3   OH255361   0.918   3.559  12.371  0.2860  0.2973 -0.0333
10389TIP3    H155362   0.827   3.557  12.340 -0.1811  0.8758  1.2286
10389TIP3    H255363   0.931   3.649  12.401  0.6294 -0.2642  1.6102
10390TIP3   OH255364   7.441   7.342  11.756 -0.9382  0.4701 -0.0535
10390TIP3    H155365   7.406   7.345  11.667  0.7763  1.5205 -0.7614
10390TIP3    H255366   7.463   7.250  11.771 -2.0797  0.1338 -0.3328
10391TIP3   OH255367   0.328   1.074  13.300 -0.0555  0.7319 -0.5332
10391TIP3    H155368   0.292   1.108  13.382 -0.7504  0.1032 -0.5696
10391TIP3    H255369   0.423   1.081  13.311 -0.0844 -0.5413  0.8648
10392TIP3   OH255370   2.638   5.894  13.895 -0.2953 -0.2911 -0.0205
10392TIP3    H155371   2.619   5.968  13.953  0.1005  0.0904 -0.3638
10392TIP3    H255372   2.568   5.831  13.912  0.8178 -1.0303  2.2566
10393TIP3   OH255373   1.056   0.197  11.553  0.4115 -0.1204  0.0503
10393TIP3    H155374   1.095   0.121  11.595 -0.1477 -1.5652 -1.8771
10393TIP3    H255375   1.102   0.272  11.589  1.4321 -1.4181  1.5347
10394TIP3   OH255376   1.523   3.865  10.737 -0.1282 -0.3301  0.4555
10394TIP3    H155377   1.579   3.848  10.813 -0.2927  1.3948  1.0116
10394TIP3    H255378   1.489   3.779  10.713  0.4214 -1.0110  1.9400
10395TIP3   OH255379   1.038   2.768  10.789  0.1027 -0.1062 -0.0573
10395TIP3    H155380   0.946   2.749  10.769 -0.1714  1.9464 -0.9609
10395TIP3    H255381   1.087   2.695  10.750 -1.1179 -1.2179  0.4255
10396TIP3   OH255382   1.357   3.057  13.506 -0.3806 -0.1751 -0.1539
10396TIP3    H155383   1.307   3.017  13.434 -0.9072  1.2040 -0.5750
10396TIP3    H255384   1.448   3.032  13.488 -0.8166 -2.5075  0.4837
10397TIP3   OH255385   3.238   6.501  13.662 -0.0583 -0.2028 -0.1599
10397TIP3    H155386   3.249   6.596  13.670  0.5166 -0.1197 -1.6027
10397TIP3    H255387   3.309   6.473  13.604 -0.2186 -1.5189  0.2448
10398TIP3   OH255388   0.521   5.135  12.469  0.1160  0.0687 -0.3896
10398TIP3    H155389   0.473   5.217  12.480  0.6853  0.4065 -0.3549
10398TIP3    H255390   0.584   5.134  12.541 -0.5782 -0.9069  0.2265
10399TIP3   OH255391   5.757   0.341  12.559 -0.0541 -0.5374  0.0946
10399TIP3    H155392   5.811   0.277  12.511 -0.2063 -0.5931 -0.0050
10399TIP3    H255393   5.679   0.350  12.505  0.3873  0.4752 -0.4033
10400TIP3   OH255394   4.213   7.009  10.954 -0.3741 -0.2451  0.0488
10400TIP3    H155395   4.131   6.972  10.988 -1.0658  0.3004 -0.9741
10400TIP3    H255396   4.189   7.047  10.869  1.2806 -1.4700 -1.0142
10401TIP3   OH255397   0.566   4.974  10.723 -0.8819  0.8394  0.2355
10401TIP3    H155398   0.636   4.921  10.686  0.1068  2.1380  0.1672
10401TIP3    H255399   0.492   4.914  10.733  0.2585 -0.5751  0.3744
10402TIP3   OH255400   4.584   4.632  12.492 -0.5672 -0.6980  0.0610
10402TIP3    H155401   4.580   4.681  12.411  0.0177 -0.3759  0.2203
10402TIP3    H255402   4.641   4.557  12.472  0.1529 -0.2354  0.3681
10403TIP3   OH255403   4.756   4.899  13.410  0.2266 -0.6843 -0.7508
10403TIP3    H155404   4.667   4.928  13.390  1.0169  0.9512 -2.1131
10403TIP3    H255405   4.755   4.882  13.505 -2.0024 -2.6057 -1.0033
10404TIP3   OH255406   3.171   0.945  12.362  0.0123  0.6233 -0.2079
10404TIP3    H155407   3.171   0.954  12.267  0.8652  1.2474 -0.1599
10404TIP3    H255408   3.185   1.034  12.395 -0.3125  0.4219  0.5103
10405TIP3   OH255409   3.161   2.867  12.702  0.8847 -0.0968  0.0111
10405TIP3    H155410   3.120   2.826  12.627  0.6501  1.4162 -0.7384
10405TIP3    H255411   3.246   2.824  12.710 -0.1844 -2.2092  0.6572
10406TIP3   OH255412   1.120   2.663  11.944  0.7332 -0.2934  0.2098
10406TIP3    H155413   1.054   2.675  11.876 -0.0151  1.3410  1.1811
10406TIP3    H255414   1.100   2.578  11.983 -0.4481 -0.0692  0.1085
10407TIP3   OH255415   0.621   0.916  12.207 -0.3118  0.1794 -0.5888
10407TIP3    H155416   0.708   0.927  12.246 -0.6694  0.7421  0.0644
10407TIP3    H255417   0.560   0.940  12.277 -1.0708 -2.1978 -0.3546
10408TIP3   OH255418   7.046   4.483  11.352 -0.3760 -0.1220 -0.6670
10408TIP3    H155419   7.051   4.440  11.437 -0.6490  1.2059  0.0546
10408TIP3    H255420   6.954   4.475  11.327 -0.2879 -0.5481 -0.8534
10409TIP3   OH255421   6.389   0.643  12.174  0.4986  0.6069  0.1290
10409TIP3    H155422   6.382   0.718  12.233  1.6101  2.6101 -2.0809
10409TIP3    H255423   6.298   0.616  12.158  0.1145  1.0383  1.4838
10410TIP3   OH255424   2.441   5.798  12.165 -0.4084 -0.2698  0.8213
10410TIP3    H155425   2.364   5.838  12.206  0.3667 -0.2835  2.3810
10410TIP3    H255426   2.486   5.753  12.237 -0.0134 -2.0080 -0.4369
10411TIP3   OH255427   2.641   2.752  11.506 -0.0424  0.2418 -0.3599
10411TIP3    H155428   2.604   2.692  11.571 -0.3660 -0.3978 -1.1151
10411TIP3    H255429   2.673   2.827  11.557 -0.9751  0.0989  0.4551
10412TIP3   OH255430   4.581   6.389  12.433  0.1363  0.0230 -0.4165
10412TIP3    H155431   4.649   6.389  12.365 -0.0930 -0.0441 -0.6501
10412TIP3    H255432   4.548   6.299  12.433  1.4313 -0.4881  1.0988
10413TIP3   OH255433   5.537   4.615  13.154 -0.3037  0.2957  0.4965
10413TIP3    H155434   5.568   4.696  13.113 -2.5308  0.6366 -0.6249
10413TIP3    H255435   5.468   4.643  13.214 -1.2003 -0.7787 -0.0136
10414TIP3   OH255436   6.215   0.114  11.699 -0.0766  0.0016  0.4650
10414TIP3    H155437   6.190   0.205  11.682  0.6560 -0.1723 -1.8603
10414TIP3    H255438   6.290   0.121  11.759  0.3526  0.9799 -0.1533
10415TIP3   OH255439   6.754   3.913  10.443  0.3306  0.4806  0.1781
10415TIP3    H155440   6.683   3.890  10.504 -0.5792  0.7624 -0.7384
10415TIP3    H255441   6.709   3.950  10.367  1.3957 -0.4598 -0.9491
10416TIP3   OH255442   0.533   6.191  10.942 -0.3580  0.2475  0.4361
10416TIP3    H155443   0.446   6.192  10.901  0.0430  0.6371 -0.4375
10416TIP3    H255444   0.541   6.104  10.981  0.1970 -1.1062 -2.4556
10417TIP3   OH255445   3.267   4.030  11.159  0.0042 -0.2641  0.5984
10417TIP3    H155446   3.192   4.068  11.205 -0.5282 -0.0817 -0.4021
10417TIP3    H255447   3.230   3.984  11.084  0.7738 -1.4795  0.9320
10418TIP3   OH255448   2.872   0.506  12.279  0.4434 -0.4096  0.3770
10418TIP3    H155449   2.784   0.483  12.308  0.7384  0.7417  2.3940
10418TIP3    H255450   2.911   0.551  12.354  0.7385  4.3752 -2.2635
10419TIP3   OH255451   2.893   7.622  11.441  0.3942 -0.0217  0.0279
10419TIP3    H155452   2.834   7.603  11.514  1.3767 -0.4924  0.7153
10419TIP3    H255453   2.897   7.718  11.439 -1.1225  0.0655 -0.6519
10420TIP3   OH255454   3.170   6.899  11.752  0.1024  0.3112  0.4903
10420TIP3    H155455   3.134   6.920  11.839 -0.3796 -1.5043  0.7679
10420TIP3    H255456   3.114   6.947  11.691 -0.1123  0.9069  1.1382
10421TIP3   OH255457   6.385   3.547  12.570 -0.1243  0.3287  0.7539
10421TIP3    H155458   6.362   3.640  12.575  1.2854  0.8745 -1.2036
10421TIP3    H255459   6.473   3.542  12.609 -0.1799 -0.1702  0.8225
10422TIP3   OH255460   6.623   1.034  12.300  0.2056 -0.0093  0.4303
10422TIP3    H155461   6.577   1.076  12.372 -0.8343 -1.7772  0.8529
10422TIP3    H255462   6.583   1.070  12.221  1.6608  2.2780  0.6450
10423TIP3   OH255463   0.915   4.370  12.967  0.1547  0.6898 -0.8074
10423TIP3    H155464   0.900   4.439  13.031 -2.3419  0.1571 -0.6975
10423TIP3    H255465   0.827   4.345  12.937  0.9356 -2.2686 -0.9958
10424TIP3   OH255466   4.764   2.351  12.529  0.3383  0.2829  0.3955
10424TIP3    H155467   4.759   2.427  12.586 -1.7920  0.6260 -0.1816
10424TIP3    H255468   4.727   2.280  12.580 -0.4902  0.3294 -0.1219
10425TIP3   OH255469   4.324   4.638  12.616  0.1009 -0.8384  0.4859
10425TIP3    H155470   4.405   4.626  12.567 -0.1191 -1.5025  0.2733
10425TIP3    H255471   4.351   4.670  12.701  0.7477 -2.9437  1.1330
10426TIP3   OH255472   1.876   1.176  11.213 -0.0186 -0.1452 -0.1737
10426TIP3    H155473   1.938   1.248  11.203 -1.7789  1.6492  1.0941
10426TIP3    H255474   1.849   1.155  11.124 -0.3822  1.6264 -0.5199
10427TIP3   OH255475   0.209   5.363  11.885  0.4617 -0.5706 -0.1889
10427TIP3    H155476   0.138   5.402  11.834  2.8709  2.3429 -1.5990
10427TIP3    H255477   0.259   5.311  11.821  1.3964  0.0472  0.0205
10428TIP3   OH255478   1.036   2.724  13.077  0.5746 -0.0169 -0.3458
10428TIP3    H155479   1.007   2.715  13.168  1.8161 -4.4324 -0.1421
10428TIP3    H255480   0.956   2.724  13.025 -0.0906 -0.9865  0.6425
10429TIP3   OH255481   5.254   5.277  11.120 -0.1522 -0.0984 -0.1721
10429TIP3    H155482   5.175   5.297  11.069  0.0115 -0.0036 -0.3894
10429TIP3    H255483   5.307   5.224  11.062 -0.4920 -1.0064  0.3274
10430TIP3   OH255484   1.870   5.996  11.675  0.0201  0.0998 -0.1790
10430TIP3    H155485   1.964   5.996  11.689 -0.0299  0.8689  0.2287
10430TIP3    H255486   1.838   5.920  11.722  0.0532  1.6712  2.5967
10431TIP3   OH255487   6.037   2.388  12.251  0.1223  0.7244  0.4545
10431TIP3    H155488   5.988   2.325  12.305  0.1964  0.6272  0.4087
10431TIP3    H255489   6.071   2.336  12.178  0.4408  0.7537  0.5788
10432TIP3   OH255490   1.089   4.958  11.438  0.2324 -0.6224  0.6671
10432TIP3    H155491   1.039   4.879  11.417  1.5953 -1.4514  0.3995
10432TIP3    H255492   1.066   5.020  11.369  1.0978 -1.6915 -0.6298
10433TIP3   OH255493   3.726   4.094  10.856 -0.2916 -0.5410  0.1431
10433TIP3    H155494   3.711   4.035  10.929 -2.5666  0.7795  0.8351
10433TIP3    H255495   3.644   4.092  10.806  0.0339  1.0462 -0.5145
10434TIP3   OH255496   5.812   7.382  12.065  0.0626 -0.2105  0.3730
10434TIP3    H155497   5.788   7.446  12.132 -0.3889 -1.3359  1.3083
10434TIP3    H255498   5.903   7.360  12.085  0.7833  1.3054 -0.9459
10435TIP3   OH255499   6.825   4.752  10.706  0.3237 -0.4684  0.4469
10435TIP3    H155500   6.784   4.835  10.729 -0.9726 -0.8989 -0.2437
10435TIP3    H255501   6.876   4.728  10.784  1.3785  1.3484  0.3699
10436TIP3   OH255502   5.337   7.140  11.520  0.2337 -0.2248  0.5318
10436TIP3    H155503   5.378   7.203  11.580 -2.0494  2.0059 -0.0360
10436TIP3    H255504   5.387   7.148  11.439  0.7168 -0.0288  0.8449
10437TIP3   OH255505   6.075   2.440  12.995  0.3479 -0.0913  0.1038
10437TIP3    H155506   6.081   2.448  13.091 -0.8949  0.5907  0.1447
10437TIP3    H255507   6.035   2.522  12.967  0.7499 -0.2642 -1.0195
10438TIP3   OH255508   6.479   0.051  11.249 -0.9292  0.2540 -0.5259
10438TIP3    H155509   6.443  -0.001  11.321  1.6737 -2.9335 -1.2982
10438TIP3    H255510   6.573   0.049  11.264 -0.4559  1.0483 -3.0512
10439TIP3   OH255511   4.448   7.281  12.912 -0.0450 -0.1880 -0.1210
10439TIP3    H155512   4.463   7.256  13.004 -0.8241  0.3026  0.1493
10439TIP3    H255513   4.503   7.358  12.899  0.9170 -0.9107 -0.4005
   7.68049   7.68049  30.00000
