Title
55513
    1DOPE     N    1   3.590   3.860  16.270 -0.4135  0.4982 -0.9727
    1DOPE   HN1    2   3.579   3.794  16.349  1.7263  2.0115  0.7165
    1DOPE   HN2    3   3.537   3.949  16.279 -3.0894 -0.9105 -1.6334
    1DOPE   HN3    4   3.541   3.820  16.187 -1.0291  1.6836 -1.1974
    1DOPE   C12    5   3.739   3.897  16.260  0.4460  0.2406 -0.2896
    1DOPE  H12A    6   3.792   3.809  16.218  0.9066 -0.2760  1.2833
    1DOPE  H12B    7   3.772   3.908  16.366  2.4979 -3.2921 -0.4411
    1DOPE   C11    8   3.754   4.022  16.171 -0.1339 -0.2880  0.6118
    1DOPE  H11A    9   3.744   3.994  16.064 -0.7839  0.9723  0.3223
    1DOPE  H11B   10   3.858   4.063  16.171  0.0770 -0.7576 -0.9222
    1DOPE     P   11   3.615   4.243  16.127 -0.0178  0.1605 -0.3629
    1DOPE   O13   12   3.692   4.361  16.175  0.1130 -0.3834  0.7131
    1DOPE   O14   13   3.466   4.241  16.146  0.3913 -0.0572 -0.7423
    1DOPE   O11   14   3.647   4.217  15.976  0.5237  0.4972  0.1349
    1DOPE   O12   15   3.667   4.123  16.214 -0.6178 -0.4653 -0.1747
    1DOPE    C1   16   3.553   4.183  15.881  0.0098  0.7121  0.2487
    1DOPE    HA   17   3.541   4.273  15.818 -3.1818  2.1401  2.5633
    1DOPE    HB   18   3.451   4.165  15.921  0.7781 -0.6497  1.6996
    1DOPE    C2   19   3.594   4.058  15.803  0.8158 -0.2246 -0.6322
    1DOPE    HS   20   3.603   3.981  15.883  2.8397  1.9849  1.4208
    1DOPE   O21   21   3.718   4.087  15.751 -0.6456  0.3142  0.3569
    1DOPE   C21   22   3.797   3.983  15.755 -0.6263  0.6453  0.4344
    1DOPE   O22   23   3.779   3.879  15.811 -0.1644  0.4417 -0.2231
    1DOPE   C22   24   3.925   4.012  15.670 -0.4198 -0.0226 -0.5330
    1DOPE   H2R   25   4.012   3.952  15.703  1.9781  2.3097 -2.2080
    1DOPE   H2S   26   3.954   4.117  15.692  1.3992 -0.7214  0.6286
    1DOPE    C3   27   3.495   4.021  15.695  0.0100 -0.1299  0.6754
    1DOPE    HX   28   3.515   4.093  15.613 -2.0468  1.0381  1.1358
    1DOPE    HY   29   3.387   4.034  15.719  0.4443  0.9357  2.1925
    1DOPE   O31   30   3.532   3.892  15.638  0.6876  0.1596  0.0370
    1DOPE   C31   31   3.478   3.778  15.686 -0.0045 -0.7789 -1.1679
    1DOPE   O32   32   3.395   3.769  15.776 -0.3508 -0.8256  0.0929
    1DOPE   C32   33   3.528   3.660  15.602  0.4335  0.0073  0.4077
    1DOPE   H2X   34   3.637   3.669  15.584  0.0389 -0.0874 -2.4437
    1DOPE   H2Y   35   3.501   3.573  15.666 -0.8302 -0.3551 -0.5777
    1DOPE   C23   36   3.902   3.995  15.518 -0.0106  0.6818 -0.5394
    1DOPE   H3R   37   3.998   4.028  15.473  0.3228  3.4147  1.9264
    1DOPE   H3S   38   3.820   4.064  15.488  0.4083  1.2020 -0.4853
    1DOPE   C24   39   3.874   3.844  15.485 -0.7482  0.2203 -0.3578
    1DOPE   H4R   40   3.772   3.815  15.518 -0.9006  0.7634 -0.3389
    1DOPE   H4S   41   3.952   3.782  15.535  0.1847 -0.9180 -3.0251
    1DOPE   C25   42   3.902   3.806  15.338  0.0345 -0.0434  0.3964
    1DOPE   H5R   43   3.896   3.696  15.323 -0.7699 -0.1832  1.6277
    1DOPE   H5S   44   4.006   3.835  15.311  0.3093  0.7845  2.1751
    1DOPE   C26   45   3.796   3.861  15.244  0.6529  0.2863  0.1014
    1DOPE   H6R   46   3.790   3.971  15.260  0.1073  0.4907 -1.3067
    1DOPE   H6S   47   3.699   3.814  15.269  0.6473 -1.3920 -2.6196
    1DOPE   C27   48   3.832   3.830  15.104  0.0685  0.1879 -0.5080
    1DOPE   H7R   49   3.855   3.721  15.104  0.3307  0.2316  0.6833
    1DOPE   H7S   50   3.926   3.866  15.058  0.8468 -2.4090 -1.1271
    1DOPE   C28   51   3.716   3.840  15.004 -0.3218  0.0408 -0.6147
    1DOPE   H8R   52   3.625   3.796  15.050 -0.1543 -0.4066 -0.7085
    1DOPE   H8S   53   3.736   3.773  14.917 -2.1782 -2.5234  0.8204
    1DOPE   C29   54   3.708   3.987  14.969  0.6081  0.2678 -0.0893
    1DOPE   H9R   55   3.693   4.053  15.055  1.6001 -1.1766  1.2382
    1DOPE  C210   56   3.727   4.050  14.852  0.4860  0.4850  0.3941
    1DOPE  H10R   57   3.703   4.157  14.843  1.9206  0.8306  0.3451
    1DOPE  C211   58   3.755   3.971  14.724 -0.3100 -0.3655 -0.1343
    1DOPE  H11R   59   3.806   3.875  14.748  0.8138  0.2238 -0.0966
    1DOPE  H11S   60   3.829   4.025  14.661 -1.0068 -3.5291 -4.0852
    1DOPE  C212   61   3.625   3.925  14.649  0.4709 -0.1636  0.6164
    1DOPE  H12R   62   3.566   3.871  14.726 -0.0697  0.8819  0.9476
    1DOPE  H12S   63   3.664   3.863  14.566  4.3003  1.9812  0.5722
    1DOPE  C213   64   3.544   4.030  14.578  0.6672  0.5465 -0.3817
    1DOPE  H13R   65   3.612   4.108  14.537 -0.5362  0.6357 -2.3240
    1DOPE  H13S   66   3.472   4.081  14.646 -1.9868 -0.8250 -1.9838
    1DOPE  C214   67   3.473   3.965  14.457  0.6913 -0.4594 -0.0283
    1DOPE  H14R   68   3.428   3.871  14.494  0.1665  0.8612  2.9595
    1DOPE  H14S   69   3.548   3.942  14.378  0.3036 -3.0496  0.2615
    1DOPE  C215   70   3.366   4.046  14.392 -0.0384 -0.7552 -0.1036
    1DOPE  H15R   71   3.408   4.148  14.379 -1.1896 -0.1472  0.8173
    1DOPE  H15S   72   3.284   4.059  14.466  1.4880  0.5251  1.4469
    1DOPE  C216   73   3.318   3.982  14.266  0.6964  0.1235  0.4614
    1DOPE  H16R   74   3.263   3.891  14.296  1.0945 -0.2381  0.0931
    1DOPE  H16S   75   3.412   3.963  14.210  0.4664 -0.5589  0.3061
    1DOPE  C217   76   3.218   4.074  14.192 -0.9756  0.6292  0.6094
    1DOPE  H17R   77   3.280   4.163  14.170  1.0735 -0.9215 -0.2941
    1DOPE  H17S   78   3.136   4.090  14.264 -0.2178  1.6020  1.2798
    1DOPE  C218   79   3.182   4.007  14.058 -0.2545 -0.5414  0.2767
    1DOPE  H18R   80   3.100   4.066  14.013 -1.5493 -3.1436 -1.0262
    1DOPE  H18S   81   3.130   3.908  14.062  1.5124 -1.7056 -2.4453
    1DOPE  H18T   82   3.264   4.000  13.983 -1.4486  0.3030 -1.1621
    1DOPE   C33   83   3.460   3.643  15.464 -0.2389  0.7595 -0.1078
    1DOPE   H3X   84   3.453   3.742  15.414 -0.2911  1.0719  0.5128
    1DOPE   H3Y   85   3.353   3.618  15.480  0.1018  0.1411  1.4378
    1DOPE   C34   86   3.522   3.535  15.378 -0.3364 -0.1419  0.3955
    1DOPE   H4X   87   3.628   3.556  15.353 -0.5883  2.7209  1.2911
    1DOPE   H4Y   88   3.510   3.441  15.436  3.8421 -0.9025  0.2969
    1DOPE   C35   89   3.445   3.517  15.248 -0.1513  0.3503  0.1403
    1DOPE   H5X   90   3.437   3.617  15.200  1.3347  1.2385  1.6532
    1DOPE   H5Y   91   3.350   3.470  15.281 -0.0103 -2.7598 -3.2331
    1DOPE   C36   92   3.511   3.410  15.150  0.1852 -0.1917  0.3518
    1DOPE   H6X   93   3.516   3.314  15.205  2.5416  0.7327  1.8903
    1DOPE   H6Y   94   3.612   3.448  15.123  0.7393 -1.5461  0.4566
    1DOPE   C37   95   3.426   3.403  15.023 -0.3260  0.0540  0.4123
    1DOPE   H7X   96   3.326   3.358  15.040 -0.1962 -0.7277 -0.8037
    1DOPE   H7Y   97   3.400   3.506  14.989 -0.2460  0.8224  2.5306
    1DOPE   C38   98   3.503   3.333  14.908 -0.5123  0.0496  0.5412
    1DOPE   H8X   99   3.531   3.236  14.954  2.8183 -0.2208 -1.7490
    1DOPE   H8Y  100   3.598   3.381  14.877 -0.7343 -1.5877 -3.0770
    1DOPE   C39  101   3.421   3.310  14.787 -0.9443  0.3262  0.8264
    1DOPE   H9X  102   3.359   3.220  14.787 -1.2321  0.5160  0.1679
    1DOPE  C310  103   3.404   3.388  14.680 -0.4034 -0.0345  0.7236
    1DOPE  H10X  104   3.351   3.341  14.596 -1.6719  0.5844  1.1526
    1DOPE  C311  105   3.464   3.523  14.651 -0.3185  0.4950 -0.1804
    1DOPE  H11X  106   3.385   3.594  14.619 -0.7826  1.0196  2.0075
    1DOPE  H11Y  107   3.505   3.566  14.744 -1.4663 -0.5872  0.8666
    1DOPE  C312  108   3.583   3.513  14.550  0.3558  0.0774  0.3511
    1DOPE  H12X  109   3.661   3.442  14.583  0.0208 -1.2209 -1.5301
    1DOPE  H12Y  110   3.611   3.621  14.550 -1.5814  0.6506 -1.4360
    1DOPE  C313  111   3.550   3.465  14.406  0.1261  0.1295  0.3596
    1DOPE  H13X  112   3.650   3.438  14.368 -0.1991 -0.2782 -0.2086
    1DOPE  H13Y  113   3.490   3.372  14.404 -1.3093  1.0448 -0.9373
    1DOPE  C314  114   3.481   3.577  14.326  0.2790  0.6542 -0.1996
    1DOPE  H14X  115   3.527   3.676  14.349 -1.1058  2.0280 -2.9209
    1DOPE  H14Y  116   3.373   3.575  14.352  0.6996  2.0594  1.9179
    1DOPE  C315  117   3.488   3.557  14.171  0.2878 -0.0869 -0.9034
    1DOPE  H15X  118   3.412   3.487  14.130  1.3564 -0.0991 -2.9557
    1DOPE  H15Y  119   3.584   3.503  14.162  1.6941  2.2140 -0.3587
    1DOPE  C316  120   3.493   3.687  14.087  0.2682 -0.2817 -0.3467
    1DOPE  H16X  121   3.553   3.767  14.137  0.6256  0.0575 -1.3027
    1DOPE  H16Y  122   3.388   3.723  14.084 -0.1148 -1.0945  1.5500
    1DOPE  C317  123   3.532   3.677  13.942  0.2781  0.3025  0.4353
    1DOPE  H17X  124   3.641   3.660  13.926  0.3586  1.0345  0.1655
    1DOPE  H17Y  125   3.473   3.587  13.914  2.6347 -1.5663  1.1038
    1DOPE  C318  126   3.504   3.814  13.872  0.2722 -0.4392 -0.5127
    1DOPE  H18X  127   3.400   3.849  13.890  0.5497 -0.2490  0.7938
    1DOPE  H18Y  128   3.578   3.888  13.909 -0.1683  0.3090 -1.0924
    1DOPE  H18Z  129   3.506   3.807  13.761 -2.3782  0.0716 -0.6673
    2DOPE     N  130   4.807   3.978  16.625  0.0242 -0.1200 -0.3660
    2DOPE   HN1  131   4.759   3.950  16.712  2.8000  0.2092  1.4199
    2DOPE   HN2  132   4.884   3.910  16.608 -1.2605 -1.5960 -0.4474
    2DOPE   HN3  133   4.860   4.067  16.636 -3.2866  2.1296 -1.0634
    2DOPE   C12  134   4.703   3.994  16.525 -0.4147  0.9555  0.0903
    2DOPE  H12A  135   4.754   3.998  16.426 -2.6452 -2.7746 -1.4436
    2DOPE  H12B  136   4.649   4.089  16.544 -0.1442  1.2338 -0.4983
    2DOPE   C11  137   4.619   3.871  16.532  0.1192 -0.3733 -0.8059
    2DOPE  H11A  138   4.524   3.882  16.475 -0.4732 -0.2353  0.1695
    2DOPE  H11B  139   4.582   3.855  16.636  1.5156  0.1575 -0.2036
    2DOPE     P  140   4.637   3.611  16.528 -0.4183  0.3762  0.2844
    2DOPE   O13  141   4.515   3.635  16.614  0.2869  0.2674 -0.2518
    2DOPE   O14  142   4.753   3.541  16.593  0.1146  0.0050  0.5183
    2DOPE   O11  143   4.594   3.532  16.403  0.5282  0.4435  0.0400
    2DOPE   O12  144   4.684   3.750  16.481  0.0351  0.5946 -0.2464
    2DOPE    C1  145   4.648   3.530  16.271 -0.2859 -0.1823 -0.2417
    2DOPE    HA  146   4.610   3.443  16.214 -0.3445  1.0481 -2.1870
    2DOPE    HB  147   4.759   3.526  16.274 -0.2398 -1.0833  4.0511
    2DOPE    C2  148   4.601   3.650  16.189 -0.5450 -0.1401  0.5168
    2DOPE    HS  149   4.670   3.734  16.210 -1.6145  0.9698 -0.3026
    2DOPE   O21  150   4.463   3.674  16.215  0.0326 -0.2209  0.3594
    2DOPE   C21  151   4.438   3.805  16.227  0.0100  1.4002 -0.9078
    2DOPE   O22  152   4.513   3.894  16.197  0.2052 -0.8973  0.3358
    2DOPE   C22  153   4.293   3.819  16.280  0.0823 -0.2779 -1.3527
    2DOPE   H2R  154   4.298   3.794  16.388  2.7441  0.7949 -1.1632
    2DOPE   H2S  155   4.228   3.743  16.231  0.3794 -2.1786  1.0572
    2DOPE    C3  156   4.620   3.623  16.034  0.2332  0.1190 -0.7110
    2DOPE    HX  157   4.566   3.530  16.005  0.6912 -0.2665 -0.3297
    2DOPE    HY  158   4.725   3.594  16.013  0.3492  0.2142 -0.2626
    2DOPE   O31  159   4.571   3.732  15.951  0.2025 -0.6140  0.2202
    2DOPE   C31  160   4.652   3.835  15.953  1.0530  0.1067 -0.2663
    2DOPE   O32  161   4.748   3.854  16.015 -0.5306  0.0575 -0.2652
    2DOPE   C32  162   4.601   3.945  15.855  0.1602 -0.3354 -0.3058
    2DOPE   H2X  163   4.607   3.902  15.753  0.3434 -0.2078 -0.3487
    2DOPE   H2Y  164   4.491   3.959  15.867  0.1917  1.0841 -1.4074
    2DOPE   C23  165   4.249   3.965  16.251  0.1530  0.6976 -0.2617
    2DOPE   H3R  166   4.335   4.026  16.287  0.1417 -0.3450  1.6872
    2DOPE   H3S  167   4.167   3.993  16.321 -0.4595  0.9062 -1.0443
    2DOPE   C24  168   4.203   3.995  16.110 -0.5472  0.4513 -0.4661
    2DOPE   H4R  169   4.113   3.934  16.090 -0.4306 -0.2127  0.9409
    2DOPE   H4S  170   4.275   3.961  16.033 -2.3082  2.8810 -3.4610
    2DOPE   C25  171   4.196   4.151  16.095 -0.3646  0.1401 -0.0474
    2DOPE   H5R  172   4.290   4.210  16.096  0.3094 -0.9151 -0.2280
    2DOPE   H5S  173   4.124   4.181  16.174 -0.5580 -1.7614  0.5319
    2DOPE   C26  174   4.114   4.191  15.970 -0.3932 -0.0710 -0.5169
    2DOPE   H6R  175   4.004   4.176  15.976 -1.0558  3.5125 -1.7221
    2DOPE   H6S  176   4.157   4.140  15.881  1.0630  1.5308 -0.7735
    2DOPE   C27  177   4.129   4.339  15.937 -0.1031 -0.5152 -0.3197
    2DOPE   H7R  178   4.236   4.365  15.930  0.0831 -1.2056 -0.0742
    2DOPE   H7S  179   4.090   4.400  16.021  1.6099 -0.7568  0.6772
    2DOPE   C28  180   4.051   4.395  15.817 -0.4415  0.2132 -0.0207
    2DOPE   H8R  181   4.085   4.337  15.729  0.4276 -1.7393  1.5317
    2DOPE   H8S  182   4.087   4.498  15.794  3.1525 -0.7974  0.4926
    2DOPE   C29  183   3.901   4.383  15.815  0.0377 -0.4879 -0.7804
    2DOPE   H9R  184   3.851   4.340  15.903 -0.6695  1.2774 -0.2849
    2DOPE  C210  185   3.812   4.413  15.718  0.5727 -0.2493  0.5514
    2DOPE  H10R  186   3.706   4.385  15.729  0.3957  0.3921  0.5388
    2DOPE  C211  187   3.863   4.466  15.588  0.1946 -0.2837 -0.6103
    2DOPE  H11R  188   3.965   4.509  15.587  0.4714 -0.8080  1.2703
    2DOPE  H11S  189   3.798   4.554  15.567  0.2336  0.1579  0.9827
    2DOPE  C212  190   3.848   4.392  15.456 -0.9162  0.0182 -0.0826
    2DOPE  H12R  191   3.914   4.304  15.445 -0.8956  0.0466 -0.1892
    2DOPE  H12S  192   3.902   4.457  15.384  0.4237 -0.8170  0.1370
    2DOPE  C213  193   3.712   4.349  15.402 -0.6475  0.3345 -1.4471
    2DOPE  H13R  194   3.643   4.432  15.426  0.6986  1.8888 -2.7299
    2DOPE  H13S  195   3.685   4.262  15.466 -1.1320  0.6938 -1.1590
    2DOPE  C214  196   3.711   4.310  15.252 -0.2326  0.3783  0.1485
    2DOPE  H14R  197   3.801   4.249  15.227 -1.2100 -1.1078  0.0836
    2DOPE  H14S  198   3.719   4.407  15.199  1.2259 -0.1847 -0.7289
    2DOPE  C215  199   3.579   4.226  15.213 -0.3289  0.0311 -0.1197
    2DOPE  H15R  200   3.499   4.253  15.285 -1.8657 -0.0933 -1.7107
    2DOPE  H15S  201   3.600   4.117  15.207 -0.9230 -0.0290 -1.4856
    2DOPE  C216  202   3.504   4.272  15.086 -0.3195 -0.5463 -0.4550
    2DOPE  H16R  203   3.437   4.195  15.042 -0.2174 -0.0198 -1.5748
    2DOPE  H16S  204   3.578   4.293  15.006  0.3054 -1.5381 -0.1572
    2DOPE  C217  205   3.436   4.405  15.104  0.8852  0.8288  0.1630
    2DOPE  H17R  206   3.408   4.450  15.006 -0.1297  0.6613  0.3634
    2DOPE  H17S  207   3.513   4.471  15.150  1.5276  0.1122  0.1269
    2DOPE  C218  208   3.309   4.406  15.184 -0.4139  0.1085  0.6310
    2DOPE  H18R  209   3.250   4.497  15.161 -2.6771 -1.1423  1.1903
    2DOPE  H18S  210   3.318   4.377  15.291 -1.8213 -2.2486  0.1760
    2DOPE  H18T  211   3.248   4.321  15.147  0.6372 -1.0016  1.3511
    2DOPE   C33  212   4.658   4.080  15.890 -0.3283 -0.4163  0.6715
    2DOPE   H3X  213   4.766   4.057  15.904  0.5668  1.0015 -2.8972
    2DOPE   H3Y  214   4.625   4.129  15.984  1.9097  3.4535 -0.3328
    2DOPE   C34  215   4.641   4.184  15.777 -0.0785 -0.8694 -0.3581
    2DOPE   H4X  216   4.535   4.217  15.771 -0.0053 -0.5373  0.1384
    2DOPE   H4Y  217   4.700   4.276  15.797  0.6567 -1.1545 -1.1407
    2DOPE   C35  218   4.679   4.137  15.628 -0.2701 -0.1278  0.0892
    2DOPE   H5X  219   4.624   4.045  15.600 -1.2298  0.6961 -0.8176
    2DOPE   H5Y  220   4.790   4.127  15.633 -0.3751 -0.7796  1.6360
    2DOPE   C36  221   4.646   4.257  15.530  0.8716  0.3830 -0.1156
    2DOPE   H6X  222   4.712   4.343  15.555  1.6054 -0.4998  1.0967
    2DOPE   H6Y  223   4.542   4.293  15.543  1.4180  2.2898 -0.6937
    2DOPE   C37  224   4.656   4.212  15.383  0.0997  0.5741  0.0082
    2DOPE   H7X  225   4.579   4.133  15.374  0.5158  0.3417 -1.9365
    2DOPE   H7Y  226   4.624   4.294  15.315  2.3286  0.3819 -1.3838
    2DOPE   C38  227   4.786   4.137  15.337 -0.4110  0.0435 -0.1659
    2DOPE   H8X  228   4.792   4.029  15.362  1.8862 -0.2474 -1.6306
    2DOPE   H8Y  229   4.868   4.178  15.399  0.5645  0.3797 -1.6140
    2DOPE   C39  230   4.823   4.135  15.188  0.4265 -0.4122  0.4255
    2DOPE   H9X  231   4.854   4.234  15.151 -0.5232 -0.5857 -0.8909
    2DOPE  C310  232   4.783   4.051  15.088 -0.8424  0.7258 -0.0483
    2DOPE  H10X  233   4.810   4.073  14.984 -2.1488  1.7992 -0.1876
    2DOPE  C311  234   4.682   3.935  15.104 -0.5374 -0.9835  0.2153
    2DOPE  H11X  235   4.648   3.934  15.210  1.6533 -0.0137  0.9948
    2DOPE  H11Y  236   4.600   3.958  15.033 -1.4608 -1.6446  1.0363
    2DOPE  C312  237   4.733   3.796  15.059 -0.2763 -0.3871  0.0026
    2DOPE  H12X  238   4.785   3.797  14.961  1.9615 -2.7159  1.0272
    2DOPE  H12Y  239   4.650   3.724  15.039  0.7330 -2.2989  2.1458
    2DOPE  C313  240   4.815   3.713  15.156  0.1430  0.0651 -0.6357
    2DOPE  H13X  241   4.835   3.619  15.099  1.1840  0.3476 -0.7586
    2DOPE  H13Y  242   4.906   3.774  15.175 -0.5657  0.5113  1.5556
    2DOPE  C314  243   4.746   3.690  15.283  0.1343 -0.5186 -0.8045
    2DOPE  H14X  244   4.652   3.630  15.276  0.5171 -1.2981  0.5335
    2DOPE  H14Y  245   4.722   3.788  15.331  1.3560  0.8749 -2.8882
    2DOPE  C315  246   4.838   3.615  15.378  0.2551  0.0376 -0.1698
    2DOPE  H15X  247   4.925   3.676  15.410  0.0301 -0.4252  1.4076
    2DOPE  H15Y  248   4.872   3.519  15.335 -0.7518 -0.8455  0.9274
    2DOPE  C316  249   4.757   3.572  15.504  0.1434 -0.7297 -0.0556
    2DOPE  H16X  250   4.691   3.484  15.489 -2.8000  1.0527  1.4309
    2DOPE  H16Y  251   4.681   3.644  15.539 -0.0172  0.1917 -2.1587
    2DOPE  C317  252   4.841   3.528  15.625  0.2721  0.0510  0.0988
    2DOPE  H17X  253   4.907   3.445  15.592 -1.9205 -1.4427 -0.7295
    2DOPE  H17Y  254   4.909   3.610  15.660 -1.7619  1.1752  1.6313
    2DOPE  C318  255   4.744   3.488  15.741 -0.0680 -0.2281  0.0582
    2DOPE  H18X  256   4.708   3.391  15.701 -0.5676 -0.5348  1.2250
    2DOPE  H18Y  257   4.810   3.468  15.828  0.5514  0.3949 -0.2550
    2DOPE  H18Z  258   4.660   3.559  15.756  0.0492  0.0546 -0.5736
    3DOPE     N  259   3.596   4.575  16.319  0.9664  0.8219  0.3765
    3DOPE   HN1  260   3.622   4.582  16.420 -2.6923  0.0019  1.5550
    3DOPE   HN2  261   3.493   4.570  16.305  0.5806  0.4316  2.8323
    3DOPE   HN3  262   3.637   4.485  16.286  1.4538  1.1772 -0.0029
    3DOPE   C12  263   3.644   4.687  16.231 -0.9195  0.8991  0.2863
    3DOPE  H12A  264   3.624   4.662  16.124  1.4346  0.4675 -0.1084
    3DOPE  H12B  265   3.754   4.702  16.238 -1.1478  3.0379 -0.0503
    3DOPE   C11  266   3.578   4.825  16.275 -0.8509  0.2594 -0.5188
    3DOPE  H11A  267   3.626   4.845  16.373  2.1118  0.4705 -1.8871
    3DOPE  H11B  268   3.467   4.822  16.280 -0.8690  1.1893 -0.2044
    3DOPE     P  269   3.545   5.001  16.081 -0.2306  0.1788  0.1090
    3DOPE   O13  270   3.642   5.093  16.011  0.1912  0.4331 -0.2161
    3DOPE   O14  271   3.418   5.063  16.130  0.0361 -0.2425 -0.6182
    3DOPE   O11  272   3.504   4.884  15.984  0.4362 -0.0332 -0.4823
    3DOPE   O12  273   3.625   4.925  16.188 -0.2967 -0.7349  0.1987
    3DOPE    C1  274   3.605   4.838  15.892 -0.0588  0.5567  0.4712
    3DOPE    HA  275   3.580   4.739  15.847  0.8253  0.1684  0.7997
    3DOPE    HB  276   3.707   4.827  15.934 -0.8491  0.3663  2.4366
    3DOPE    C2  277   3.609   4.925  15.757  0.2191  0.0536 -0.4280
    3DOPE    HS  278   3.669   5.015  15.780  1.1147 -0.8575  0.9831
    3DOPE   O21  279   3.477   4.938  15.698  0.1368  0.6282 -0.3975
    3DOPE   C21  280   3.439   5.063  15.671  0.2954  0.2177 -0.0558
    3DOPE   O22  281   3.502   5.164  15.700 -0.0197 -0.1621 -0.0593
    3DOPE   C22  282   3.301   5.074  15.617 -0.5369 -0.1301  0.3575
    3DOPE   H2R  283   3.280   5.179  15.587 -1.5899 -0.4546 -0.0863
    3DOPE   H2S  284   3.233   5.034  15.696 -2.1881 -0.5795 -1.2217
    3DOPE    C3  285   3.702   4.851  15.656  1.0174 -0.5169  0.6507
    3DOPE    HX  286   3.637   4.766  15.627 -1.0596  0.9533  0.7766
    3DOPE    HY  287   3.784   4.809  15.717 -0.3211 -2.2297  1.3546
    3DOPE   O31  288   3.731   4.925  15.534  0.3897 -0.4915 -0.3112
    3DOPE   C31  289   3.850   4.981  15.542 -0.1158  0.3839  0.0496
    3DOPE   O32  290   3.911   4.989  15.645 -0.6010 -0.1557  0.0952
    3DOPE   C32  291   3.877   5.023  15.398 -0.2969 -0.5525 -0.3378
    3DOPE   H2X  292   3.815   4.960  15.331  0.5744  0.7494 -2.4334
    3DOPE   H2Y  293   3.852   5.130  15.383 -1.2765 -0.5458  1.1049
    3DOPE   C23  294   3.288   4.985  15.490 -0.5284  0.1812 -0.3661
    3DOPE   H3R  295   3.179   4.977  15.470 -0.5311  0.6948 -0.5691
    3DOPE   H3S  296   3.331   4.883  15.501  1.5748  1.2212  1.9180
    3DOPE   C24  297   3.359   5.053  15.371  0.2164  0.1351  0.4564
    3DOPE   H4R  298   3.469   5.048  15.380  0.4540  2.3558 -0.4503
    3DOPE   H4S  299   3.342   5.163  15.370 -1.6256 -0.1057 -0.5661
    3DOPE   C25  300   3.300   5.002  15.228  0.2772 -0.6391 -0.4141
    3DOPE   H5R  301   3.338   5.068  15.148 -0.1477  0.0268 -0.0709
    3DOPE   H5S  302   3.190   5.017  15.224  0.1765 -1.1973 -0.0171
    3DOPE   C26  303   3.316   4.854  15.205  0.1604 -0.8283  0.1388
    3DOPE   H6R  304   3.291   4.824  15.102 -1.3052 -2.3773  0.8966
    3DOPE   H6S  305   3.240   4.823  15.280 -0.3509  1.1604  0.4928
    3DOPE   C27  306   3.452   4.794  15.237 -0.0376 -0.6460  0.0197
    3DOPE   H7R  307   3.452   4.683  15.227  4.0915 -1.0432  2.1932
    3DOPE   H7S  308   3.485   4.816  15.341  0.5893 -0.7916 -0.1395
    3DOPE   C28  309   3.569   4.839  15.145 -0.5611  0.3777  0.1062
    3DOPE   H8R  310   3.580   4.950  15.144  1.5288  0.2215 -0.9207
    3DOPE   H8S  311   3.541   4.828  15.039 -0.5412 -2.2568  0.3191
    3DOPE   C29  312   3.700   4.787  15.188 -0.4726 -0.8005 -0.5655
    3DOPE   H9R  313   3.712   4.786  15.297 -0.4604  1.7416 -0.4648
    3DOPE  C210  314   3.803   4.742  15.108 -0.2085 -0.3044  0.2528
    3DOPE  H10R  315   3.891   4.697  15.157  0.0685 -1.1804 -1.0183
    3DOPE  C211  316   3.804   4.733  14.957  0.5659  0.3334  0.5271
    3DOPE  H11R  317   3.893   4.786  14.917  0.6991 -0.1063  0.2336
    3DOPE  H11S  318   3.731   4.800  14.907  0.6078 -2.3019 -3.4610
    3DOPE  C212  319   3.788   4.594  14.900 -1.2599 -1.0579 -0.2278
    3DOPE  H12R  320   3.696   4.541  14.932 -1.8378  0.7470  1.3048
    3DOPE  H12S  321   3.872   4.541  14.950 -0.4676  0.9982  0.7122
    3DOPE  C213  322   3.795   4.585  14.748 -0.6680  0.1926  0.7954
    3DOPE  H13R  323   3.878   4.651  14.715  0.1512 -1.5543 -0.8229
    3DOPE  H13S  324   3.700   4.628  14.709 -0.8921 -0.4960  0.5736
    3DOPE  C214  325   3.801   4.438  14.703  0.2444 -0.0341 -0.5531
    3DOPE  H14R  326   3.753   4.379  14.784 -0.3091  0.6202 -0.3929
    3DOPE  H14S  327   3.906   4.404  14.701 -0.3806 -2.5990  2.1645
    3DOPE  C215  328   3.737   4.414  14.566  0.0085 -0.7559 -0.3202
    3DOPE  H15R  329   3.627   4.423  14.579  0.2645  1.0123  1.0206
    3DOPE  H15S  330   3.748   4.305  14.545  0.9151 -0.5700 -0.8737
    3DOPE  C216  331   3.785   4.492  14.437 -0.0955  0.2823 -0.6191
    3DOPE  H16R  332   3.872   4.551  14.472  1.7548 -2.2079 -0.7686
    3DOPE  H16S  333   3.699   4.556  14.407 -1.0880 -0.3936  0.6912
    3DOPE  C217  334   3.831   4.386  14.330  0.0494  0.4651  0.8102
    3DOPE  H17R  335   3.755   4.306  14.324 -0.3902  0.8487  1.2316
    3DOPE  H17S  336   3.921   4.334  14.369  0.0334  0.8291  1.3571
    3DOPE  C218  337   3.862   4.450  14.189  0.5004  0.1951  0.1002
    3DOPE  H18R  338   3.916   4.382  14.120  1.0168 -0.1056  0.7963
    3DOPE  H18S  339   3.929   4.538  14.201 -1.1032  1.6142 -0.8931
    3DOPE  H18T  340   3.771   4.481  14.134 -0.5622 -2.8788 -0.0572
    3DOPE   C33  341   4.018   4.993  15.357  0.1901  0.8148 -0.1850
    3DOPE   H3X  342   4.082   5.050  15.427  1.9265 -1.6573  0.3357
    3DOPE   H3Y  343   4.027   5.023  15.250  1.2122  0.4371 -0.2115
    3DOPE   C34  344   4.072   4.851  15.381 -0.9346  0.1504  1.0902
    3DOPE   H4X  345   4.122   4.852  15.480 -1.8587  0.5419  1.5675
    3DOPE   H4Y  346   3.988   4.780  15.396 -2.0068  1.2430  0.4818
    3DOPE   C35  347   4.169   4.798  15.269 -0.3668  0.6144  0.8042
    3DOPE   H5X  348   4.124   4.786  15.168 -0.2039  1.0269  0.6803
    3DOPE   H5Y  349   4.218   4.705  15.306 -0.1928  0.2173 -0.3930
    3DOPE   C36  350   4.277   4.897  15.234 -0.2311 -0.7138  0.1353
    3DOPE   H6X  351   4.250   4.992  15.183 -0.2960 -0.1519  1.1745
    3DOPE   H6Y  352   4.349   4.845  15.168  1.1313 -2.0021  2.4990
    3DOPE   C37  353   4.366   4.948  15.359  0.4800  0.4077  0.7833
    3DOPE   H7X  354   4.317   5.011  15.437 -0.3389  1.2018 -0.3321
    3DOPE   H7Y  355   4.386   4.857  15.419 -1.3336 -1.1604 -0.8654
    3DOPE   C38  356   4.489   5.022  15.309 -0.5694 -0.1155  0.2334
    3DOPE   H8X  357   4.540   4.950  15.241  0.9419  0.1139  1.0603
    3DOPE   H8Y  358   4.546   5.023  15.404  0.5024 -0.1221 -0.3916
    3DOPE   C39  359   4.470   5.162  15.258 -0.4524 -0.9024  0.0108
    3DOPE   H9X  360   4.406   5.217  15.329  0.1292 -0.8590  0.5061
    3DOPE  C310  361   4.521   5.225  15.150 -0.0980 -0.7411 -0.4613
    3DOPE  H10X  362   4.513   5.334  15.138 -0.8933 -0.9567 -2.3079
    3DOPE  C311  363   4.620   5.161  15.051  0.5840 -0.2249  0.8415
    3DOPE  H11X  364   4.686   5.239  15.008  1.1825 -1.2304 -0.1019
    3DOPE  H11Y  365   4.681   5.093  15.114  0.7189  0.0652  1.0251
    3DOPE  C312  366   4.543   5.100  14.937  0.1437  0.0074  0.7916
    3DOPE  H12X  367   4.488   5.178  14.881 -0.7731 -0.0243  1.6318
    3DOPE  H12Y  368   4.469   5.025  14.971 -0.8150 -0.0652 -1.3019
    3DOPE  C313  369   4.630   5.039  14.835  0.3313  0.7508  0.0843
    3DOPE  H13X  370   4.689   5.125  14.796  1.3563 -0.7897 -1.9058
    3DOPE  H13Y  371   4.699   4.962  14.876 -0.1227  0.1549 -0.2545
    3DOPE  C314  372   4.556   4.979  14.724 -0.3254 -0.2814  0.9395
    3DOPE  H14X  373   4.497   5.050  14.662  0.7853 -1.4258 -1.6257
    3DOPE  H14Y  374   4.482   4.907  14.764 -1.8176  1.6823  1.8613
    3DOPE  C315  375   4.652   4.892  14.628  0.5871  0.0896  0.1813
    3DOPE  H15X  376   4.682   4.806  14.691 -1.1397  0.5471  1.7215
    3DOPE  H15Y  377   4.742   4.958  14.617  1.4749 -0.8267  1.6744
    3DOPE  C316  378   4.599   4.857  14.488  0.2283 -0.2692 -0.0099
    3DOPE  H16X  379   4.550   4.949  14.447  1.8566  0.0757 -1.3109
    3DOPE  H16Y  380   4.519   4.781  14.500  0.0717  0.0807  1.3547
    3DOPE  C317  381   4.699   4.808  14.384 -0.1800  0.6729 -0.4397
    3DOPE  H17X  382   4.640   4.805  14.289 -0.1896  0.7268 -0.4356
    3DOPE  H17Y  383   4.785   4.879  14.380  0.1399  0.4292  1.3687
    3DOPE  C318  384   4.750   4.665  14.423 -0.6658 -0.8223  0.1535
    3DOPE  H18X  385   4.669   4.599  14.460  0.6981 -3.1186 -0.7910
    3DOPE  H18Y  386   4.800   4.611  14.340  1.3850  1.9795 -0.6167
    3DOPE  H18Z  387   4.834   4.675  14.496  0.0505  0.6668 -0.8227
    4DOPE     N  388   4.369   2.983  16.072 -0.3446 -0.2422 -0.1468
    4DOPE   HN1  389   4.470   2.966  16.055 -0.4472 -1.0057 -0.0484
    4DOPE   HN2  390   4.350   3.084  16.059  0.7179 -0.2284 -1.8032
    4DOPE   HN3  391   4.341   2.965  16.171  0.9119  2.9992  0.9092
    4DOPE   C12  392   4.278   2.906  15.978 -0.2265  1.0687 -0.1756
    4DOPE  H12A  393   4.274   2.961  15.882  2.3692 -0.1454 -1.0777
    4DOPE  H12B  394   4.174   2.908  16.017 -0.4091  0.0912 -0.5745
    4DOPE   C11  395   4.339   2.767  15.959  0.3487 -0.2033 -0.8238
    4DOPE  H11A  396   4.446   2.758  15.930  0.0641  0.6013 -2.2403
    4DOPE  H11B  397   4.285   2.722  15.873  0.0180 -2.2812  0.4076
    4DOPE     P  398   4.425   2.615  16.153  0.3707 -0.0960  0.1620
    4DOPE   O13  399   4.380   2.539  16.268  0.0581  0.5774  0.0386
    4DOPE   O14  400   4.513   2.727  16.188  0.1432 -0.7265  0.0811
    4DOPE   O11  401   4.496   2.527  16.047  0.2455 -0.0947 -0.1498
    4DOPE   O12  402   4.305   2.679  16.070  0.2920 -0.0881  0.8695
    4DOPE    C1  403   4.428   2.428  15.975 -0.0324  0.9572 -0.1802
    4DOPE    HA  404   4.321   2.450  15.958 -0.5180 -0.9761  0.1876
    4DOPE    HB  405   4.441   2.326  16.016 -0.8031  0.9581  0.0626
    4DOPE    C2  406   4.482   2.411  15.830 -0.2523  0.0983 -0.0113
    4DOPE    HS  407   4.588   2.380  15.843 -0.3950  0.2417  1.8744
    4DOPE   O21  408   4.467   2.530  15.759 -0.1032  0.2092  0.2112
    4DOPE   C21  409   4.579   2.573  15.694  0.3640  0.0557 -0.3384
    4DOPE   O22  410   4.682   2.504  15.683 -0.1430  0.2985 -0.3125
    4DOPE   C22  411   4.563   2.718  15.646  0.6708 -0.2905 -0.6178
    4DOPE   H2R  412   4.570   2.790  15.731  1.0840 -0.8524 -0.1633
    4DOPE   H2S  413   4.462   2.731  15.603 -0.0831  0.6863  1.2951
    4DOPE    C3  414   4.403   2.307  15.744 -0.6161  0.1591  0.7326
    4DOPE    HX  415   4.299   2.345  15.733 -0.4972  0.0505 -1.0198
    4DOPE    HY  416   4.399   2.210  15.799 -0.0145 -0.1582  0.2284
    4DOPE   O31  417   4.442   2.301  15.603  0.1641 -0.2041 -0.0764
    4DOPE   C31  418   4.556   2.231  15.589  0.0614  0.3539 -0.0768
    4DOPE   O32  419   4.614   2.166  15.676  0.3201  0.0352  0.6988
    4DOPE   C32  420   4.598   2.229  15.442 -0.7157  0.1587 -0.2633
    4DOPE   H2X  421   4.530   2.159  15.389 -0.7174 -1.6827  1.9833
    4DOPE   H2Y  422   4.582   2.330  15.400 -1.3332 -0.0998 -0.6714
    4DOPE   C23  423   4.672   2.763  15.553  0.2363 -0.1493 -0.3066
    4DOPE   H3R  424   4.764   2.702  15.568 -0.8464 -2.1961 -1.5251
    4DOPE   H3S  425   4.698   2.865  15.588 -0.6510 -0.4152  1.2355
    4DOPE   C24  426   4.630   2.759  15.407 -0.1142 -0.7568 -0.4063
    4DOPE   H4R  427   4.698   2.830  15.355  1.7584 -1.5981  0.7580
    4DOPE   H4S  428   4.528   2.803  15.399 -0.4307 -1.4092 -0.0649
    4DOPE   C25  429   4.637   2.619  15.340  0.2505 -1.1059  0.7789
    4DOPE   H5R  430   4.556   2.555  15.382 -1.2688  0.8115  0.9079
    4DOPE   H5S  431   4.728   2.576  15.388  0.4037  0.1049  1.5996
    4DOPE   C26  432   4.643   2.616  15.187 -0.2676  0.0055 -0.9075
    4DOPE   H6R  433   4.664   2.507  15.174 -1.7587 -0.1183 -2.6004
    4DOPE   H6S  434   4.728   2.681  15.156  0.9907 -0.0360  2.0616
    4DOPE   C27  435   4.506   2.645  15.117 -0.5588 -0.1867 -0.1130
    4DOPE   H7R  436   4.523   2.730  15.047 -1.6369 -1.4009 -1.9519
    4DOPE   H7S  437   4.433   2.673  15.195 -1.0073 -1.4318 -0.0690
    4DOPE   C28  438   4.444   2.523  15.032  0.0972 -0.4219  0.1242
    4DOPE   H8R  439   4.339   2.551  15.013 -0.2912  1.4890  3.9654
    4DOPE   H8S  440   4.438   2.450  15.116  0.6427 -0.0761  0.4734
    4DOPE   C29  441   4.522   2.473  14.912  0.2967 -0.8552  0.9050
    4DOPE   H9R  442   4.629   2.464  14.938  0.0681 -1.6522  1.5920
    4DOPE  C210  443   4.476   2.436  14.787  0.5517  0.0778 -0.8172
    4DOPE  H10R  444   4.548   2.398  14.712 -0.1946 -1.5360 -0.7570
    4DOPE  C211  445   4.336   2.435  14.743  0.7394 -0.5685  0.4875
    4DOPE  H11R  446   4.267   2.454  14.828 -0.4397  0.2769 -0.6116
    4DOPE  H11S  447   4.304   2.336  14.705 -0.3857  0.3700 -1.1599
    4DOPE  C212  448   4.320   2.531  14.629  0.2885 -0.4172 -0.3529
    4DOPE  H12R  449   4.214   2.529  14.595  0.9139  2.1102 -2.8194
    4DOPE  H12S  450   4.380   2.489  14.545  1.1006 -2.0614  0.9845
    4DOPE  C213  451   4.353   2.681  14.644 -0.6390 -0.1933  0.0225
    4DOPE  H13R  452   4.464   2.693  14.648 -0.4542 -1.2930 -1.1148
    4DOPE  H13S  453   4.318   2.721  14.741  1.7678 -0.0978  0.9248
    4DOPE  C214  454   4.298   2.781  14.533 -0.2357 -0.2431  0.7570
    4DOPE  H14R  455   4.297   2.887  14.564  0.3715  0.1982 -0.6701
    4DOPE  H14S  456   4.188   2.762  14.532 -0.2185 -0.3466  0.7131
    4DOPE  C215  457   4.348   2.760  14.386  0.8160 -0.6575  0.5258
    4DOPE  H15R  458   4.321   2.655  14.362  0.1721  0.0278 -2.0071
    4DOPE  H15S  459   4.456   2.783  14.377  0.8396 -1.0281 -0.2144
    4DOPE  C216  460   4.283   2.854  14.282  0.5987 -0.6206  0.5030
    4DOPE  H16R  461   4.319   2.957  14.302 -0.5003  0.3788 -2.2117
    4DOPE  H16S  462   4.174   2.851  14.307  0.3717 -1.8718 -0.5066
    4DOPE  C217  463   4.312   2.814  14.137 -0.0357  0.3274 -0.2159
    4DOPE  H17R  464   4.243   2.864  14.066 -1.7938  1.4604  2.1531
    4DOPE  H17S  465   4.274   2.710  14.126  1.8704 -0.3180 -1.2075
    4DOPE  C218  466   4.463   2.821  14.096  0.0174  0.4307  0.4717
    4DOPE  H18R  467   4.454   2.781  13.993  1.1097 -0.8259  0.8265
    4DOPE  H18S  468   4.526   2.757  14.161  3.7067  1.3416 -1.8912
    4DOPE  H18T  469   4.506   2.923  14.096  0.3271  0.3567 -2.0085
    4DOPE   C33  470   4.748   2.185  15.429  0.4159 -0.3057  0.2166
    4DOPE   H3X  471   4.767   2.077  15.447 -2.0615 -0.6075  1.4379
    4DOPE   H3Y  472   4.812   2.252  15.491 -1.4901  3.4621 -1.5282
    4DOPE   C34  473   4.785   2.201  15.278 -0.0752  0.1667  0.1941
    4DOPE   H4X  474   4.721   2.132  15.220  1.0605 -0.5133 -0.2826
    4DOPE   H4Y  475   4.754   2.302  15.244  0.7960  0.6810  0.8735
    4DOPE   C35  476   4.932   2.170  15.253 -0.5236  0.0572 -0.0026
    4DOPE   H5X  477   4.951   2.061  15.262 -1.5614 -0.1947 -0.6961
    4DOPE   H5Y  478   4.997   2.234  15.317 -0.1172  0.3724 -0.7140
    4DOPE   C36  479   4.958   2.207  15.111  0.7270 -0.6008 -0.2168
    4DOPE   H6X  480   4.879   2.178  15.038 -2.1198  1.9275  1.6324
    4DOPE   H6Y  481   5.039   2.139  15.077  2.4587  1.5234 -0.5398
    4DOPE   C37  482   4.992   2.359  15.107  0.3884  0.6179  0.4826
    4DOPE   H7X  483   4.899   2.407  15.143  0.6347  2.1296 -0.8121
    4DOPE   H7Y  484   5.071   2.388  15.180 -0.4852  0.5313  1.4817
    4DOPE   C38  485   5.005   2.406  14.962 -0.2513  0.1885 -0.2987
    4DOPE   H8X  486   4.997   2.517  14.963  0.5735  0.3160  2.9220
    4DOPE   H8Y  487   4.910   2.382  14.908 -1.1211  1.2794  0.6865
    4DOPE   C39  488   5.130   2.355  14.896  0.7475 -0.0435  0.6736
    4DOPE   H9X  489   5.224   2.380  14.948  0.4650  0.7244  0.8254
    4DOPE  C310  490   5.139   2.270  14.790  0.1699  0.1608 -0.2675
    4DOPE  H10X  491   5.239   2.252  14.747  0.2937 -2.4688  0.9145
    4DOPE  C311  492   5.020   2.204  14.714 -0.2468 -1.1853  0.4060
    4DOPE  H11X  493   4.925   2.262  14.720  0.6705  0.7779 -2.2313
    4DOPE  H11Y  494   5.049   2.208  14.607 -1.1019 -2.6058  0.0975
    4DOPE  C312  495   4.994   2.053  14.741 -0.0847  0.2576 -0.4576
    4DOPE  H12X  496   5.023   2.038  14.848 -0.4888  0.5009 -0.3093
    4DOPE  H12Y  497   5.065   1.992  14.682  0.7550 -1.5526  2.1876
    4DOPE  C313  498   4.857   2.004  14.697 -1.2480  0.4936 -0.5402
    4DOPE  H13X  499   4.781   2.067  14.749 -1.4147 -0.2007  0.0796
    4DOPE  H13Y  500   4.845   2.011  14.587  1.0054  1.5960 -0.7628
    4DOPE  C314  501   4.822   1.861  14.743  0.3844  0.0054  0.3093
    4DOPE  H14X  502   4.725   1.840  14.692  0.9927 -2.3913  0.0130
    4DOPE  H14Y  503   4.815   1.844  14.852 -0.0606  0.7751  0.4114
    4DOPE  C315  504   4.919   1.762  14.676  0.8875 -0.8660 -0.1219
    4DOPE  H15X  505   5.011   1.760  14.738 -0.3356  0.3983  1.8496
    4DOPE  H15Y  506   4.931   1.798  14.572  0.1807 -1.1575 -0.3128
    4DOPE  C316  507   4.851   1.625  14.667 -0.3708 -0.0668  0.0346
    4DOPE  H16X  508   4.914   1.547  14.619  1.5194  0.7709  1.0643
    4DOPE  H16Y  509   4.767   1.644  14.596  0.0141  0.5449 -0.2606
    4DOPE  C317  510   4.801   1.560  14.804 -0.4616  0.0440  1.0370
    4DOPE  H17X  511   4.717   1.623  14.842 -1.5936  0.9277 -2.5038
    4DOPE  H17Y  512   4.753   1.463  14.779 -0.0639 -0.2827  1.5224
    4DOPE  C318  513   4.905   1.556  14.912  0.6954  0.1552 -0.0012
    4DOPE  H18X  514   4.870   1.492  14.996 -0.1492  0.1984 -0.3180
    4DOPE  H18Y  515   5.013   1.546  14.886  0.8154  1.6797 -0.1890
    4DOPE  H18Z  516   4.908   1.656  14.960  0.7468  0.0201  0.2782
    5DOPE     N  517   1.835   3.943  16.981  0.1527 -0.6500  0.0824
    5DOPE   HN1  518   1.818   4.024  17.044  3.0823  0.0302  0.1259
    5DOPE   HN2  519   1.794   3.965  16.887  0.8242 -1.1325 -0.3282
    5DOPE   HN3  520   1.786   3.859  17.017  1.3669 -1.3500  0.1363
    5DOPE   C12  521   1.976   3.904  16.965 -0.3685  0.5609  0.2753
    5DOPE  H12A  522   2.001   3.862  17.065  0.4628  1.0655  0.2877
    5DOPE  H12B  523   2.032   4.000  16.966  0.6893 -0.0388  1.2506
    5DOPE   C11  524   2.000   3.822  16.842  0.2144 -0.1009 -0.4787
    5DOPE  H11A  525   1.946   3.725  16.841  2.9014 -1.6650 -0.5043
    5DOPE  H11B  526   2.109   3.801  16.844  0.4971  1.0822  2.7702
    5DOPE     P  527   1.965   3.853  16.577  0.1743 -0.2002 -0.1391
    5DOPE   O13  528   1.833   3.872  16.517  0.2733 -0.2725  0.4230
    5DOPE   O14  529   2.035   3.728  16.566  0.2866 -0.1706 -0.4178
    5DOPE   O11  530   2.062   3.967  16.529  0.0119  0.3269  0.1200
    5DOPE   O12  531   1.951   3.896  16.736  0.3102  0.9807  0.8147
    5DOPE    C1  532   2.180   3.955  16.448 -0.1751  0.4596 -0.7063
    5DOPE    HA  533   2.220   3.852  16.441 -0.3340  0.4040 -0.7955
    5DOPE    HB  534   2.257   4.014  16.502  1.1620 -0.9102 -1.0473
    5DOPE    C2  535   2.158   4.021  16.313 -0.4430  0.2413 -0.4723
    5DOPE    HS  536   2.114   4.122  16.329  0.8966  0.6212  0.9937
    5DOPE   O21  537   2.073   3.927  16.233  0.2117  0.0771  0.0150
    5DOPE   C21  538   1.951   3.971  16.199  0.5945  0.5608  0.4656
    5DOPE   O22  539   1.901   4.076  16.232  0.4022  0.1924  0.0039
    5DOPE   C22  540   1.888   3.876  16.097 -0.2931  0.0242 -0.2974
    5DOPE   H2R  541   1.893   3.775  16.142 -0.7042  0.0450 -0.1972
    5DOPE   H2S  542   1.955   3.896  16.011  3.0634 -0.8935  1.9103
    5DOPE    C3  543   2.288   4.053  16.249 -0.6390  0.4499  0.3704
    5DOPE    HX  544   2.336   3.962  16.207 -1.3029  0.7122 -1.0250
    5DOPE    HY  545   2.354   4.096  16.326  1.3519 -0.5365 -0.7145
    5DOPE   O31  546   2.266   4.148  16.151 -0.0545 -0.0945 -0.2197
    5DOPE   C31  547   2.353   4.155  16.059 -0.6045  0.4565  0.4310
    5DOPE   O32  548   2.448   4.082  16.046  0.4629 -0.2091 -0.1301
    5DOPE   C32  549   2.311   4.267  15.965 -0.2958  0.5386  0.5124
    5DOPE   H2X  550   2.208   4.250  15.927  0.0968  2.2743 -1.4825
    5DOPE   H2Y  551   2.295   4.353  16.034 -0.1982 -1.1663  2.7560
    5DOPE   C23  552   1.748   3.924  16.063 -0.5917  0.0416 -0.3714
    5DOPE   H3R  553   1.734   4.017  16.004 -1.2902 -0.8533 -1.6931
    5DOPE   H3S  554   1.679   3.930  16.149  0.5590  0.6132  0.5324
    5DOPE   C24  555   1.682   3.822  15.970 -0.7846  0.1810 -0.2696
    5DOPE   H4R  556   1.676   3.727  16.027  0.1025  1.0291  1.2878
    5DOPE   H4S  557   1.749   3.803  15.883 -2.0694 -0.7729 -1.0853
    5DOPE   C25  558   1.542   3.848  15.913 -0.2297 -0.7478 -0.6443
    5DOPE   H5R  559   1.565   3.905  15.820 -1.9959  1.3363  0.1048
    5DOPE   H5S  560   1.491   3.898  15.998  0.1401 -2.3874  0.5972
    5DOPE   C26  561   1.456   3.727  15.879 -0.3296  0.4438  0.4222
    5DOPE   H6R  562   1.352   3.762  15.862 -1.1677 -2.2515 -0.4399
    5DOPE   H6S  563   1.446   3.653  15.960 -1.8365  0.8252  0.6132
    5DOPE   C27  564   1.498   3.670  15.746 -0.3770  0.4139  0.1929
    5DOPE   H7R  565   1.607   3.653  15.747 -0.3249  0.6794 -0.4532
    5DOPE   H7S  566   1.470   3.749  15.673 -0.2253 -0.4774 -0.8614
    5DOPE   C28  567   1.421   3.547  15.694 -0.1273 -0.4259 -0.2619
    5DOPE   H8R  568   1.329   3.592  15.650 -0.5019 -1.0775 -0.1663
    5DOPE   H8S  569   1.378   3.493  15.781 -2.9426  0.4625 -0.9840
    5DOPE   C29  570   1.501   3.453  15.605  1.0375 -0.3211  0.0008
    5DOPE   H9R  571   1.542   3.361  15.650 -0.6873 -2.3689 -2.3417
    5DOPE  C210  572   1.524   3.467  15.473  0.2729  0.1163 -0.2536
    5DOPE  H10R  573   1.592   3.399  15.421  0.9675 -0.6829  1.6056
    5DOPE  C211  574   1.477   3.585  15.393 -0.1772 -0.5952  0.2501
    5DOPE  H11R  575   1.495   3.682  15.444  0.9015 -1.1729  0.9980
    5DOPE  H11S  576   1.369   3.577  15.366 -0.1919  1.5641 -0.4501
    5DOPE  C212  577   1.545   3.594  15.255  0.4975  0.5893  0.3495
    5DOPE  H12R  578   1.652   3.609  15.281 -0.1449  0.9498  3.0525
    5DOPE  H12S  579   1.516   3.685  15.199 -4.3705 -1.3086 -0.7289
    5DOPE  C213  580   1.514   3.469  15.159 -0.0854 -1.0184  0.1433
    5DOPE  H13R  581   1.405   3.448  15.167 -0.2630 -0.0576  0.3669
    5DOPE  H13S  582   1.571   3.388  15.210 -0.5139 -1.7560 -0.5270
    5DOPE  C214  583   1.547   3.492  15.011 -0.4272  0.4383  0.1056
    5DOPE  H14R  584   1.495   3.584  14.976 -2.0882 -1.1443 -1.8570
    5DOPE  H14S  585   1.503   3.405  14.958 -1.4452  2.3038 -2.3507
    5DOPE  C215  586   1.697   3.502  14.982 -0.4496 -0.0386 -0.1198
    5DOPE  H15R  587   1.748   3.439  15.058 -1.3282  0.5320  0.9615
    5DOPE  H15S  588   1.720   3.608  15.006 -2.2874  0.5961 -0.9714
    5DOPE  C216  589   1.742   3.464  14.836 -0.1012 -0.8329  0.1501
    5DOPE  H16R  590   1.691   3.369  14.811  0.9627 -2.4390  3.4392
    5DOPE  H16S  591   1.853   3.459  14.839  0.0229  0.9133 -0.7358
    5DOPE  C217  592   1.716   3.578  14.734  0.2150  0.6852 -0.4465
    5DOPE  H17R  593   1.798   3.652  14.748 -0.6206  1.3301  1.4099
    5DOPE  H17S  594   1.626   3.637  14.762 -0.3148 -0.4882  0.4025
    5DOPE  C218  595   1.705   3.530  14.594 -0.4614 -0.7959  0.1566
    5DOPE  H18R  596   1.664   3.602  14.520  3.6662  0.9103 -0.7318
    5DOPE  H18S  597   1.631   3.447  14.604 -1.1837 -0.1037  0.7731
    5DOPE  H18T  598   1.800   3.500  14.545 -0.9149  1.9783 -2.7564
    5DOPE   C33  599   2.399   4.280  15.845  0.2250 -0.0154  0.0360
    5DOPE   H3X  600   2.388   4.199  15.770  0.2037 -0.2561  0.2982
    5DOPE   H3Y  601   2.506   4.285  15.874  0.1506 -1.5337  0.6551
    5DOPE   C34  602   2.386   4.413  15.763 -0.1276  0.0113  0.2998
    5DOPE   H4X  603   2.400   4.492  15.840 -0.5214  1.2255 -0.8459
    5DOPE   H4Y  604   2.478   4.422  15.701  0.2357  0.0647  0.8320
    5DOPE   C35  605   2.264   4.409  15.671 -0.0419 -0.7389 -0.1708
    5DOPE   H5X  606   2.232   4.515  15.663 -0.7477 -0.8423  1.1787
    5DOPE   H5Y  607   2.183   4.349  15.718 -0.1993  1.3245  2.4143
    5DOPE   C36  608   2.305   4.360  15.535 -0.3799 -0.1784  0.0799
    5DOPE   H6X  609   2.362   4.266  15.548  1.7209  1.1620  1.1862
    5DOPE   H6Y  610   2.376   4.443  15.514 -0.8773  0.3711  0.5232
    5DOPE   C37  611   2.191   4.343  15.429 -0.0510 -0.1077 -0.1677
    5DOPE   H7X  612   2.105   4.289  15.474  0.5397  0.0109  1.1289
    5DOPE   H7Y  613   2.149   4.444  15.409 -0.3963 -0.0444  0.8328
    5DOPE   C38  614   2.237   4.278  15.307  0.1222  0.6568  0.3375
    5DOPE   H8X  615   2.156   4.263  15.232  0.2719  1.4057  0.0154
    5DOPE   H8Y  616   2.273   4.178  15.338 -2.5896  0.1522  2.2251
    5DOPE   C39  617   2.360   4.335  15.237  0.0776 -0.4791  0.2962
    5DOPE   H9X  618   2.420   4.401  15.302 -2.5047  0.4271  1.9303
    5DOPE  C310  619   2.392   4.303  15.113 -0.2440  0.5371 -0.3804
    5DOPE  H10X  620   2.474   4.344  15.052 -0.5448  0.8084 -0.6023
    5DOPE  C311  621   2.312   4.199  15.037  0.6292  0.7312 -0.0332
    5DOPE  H11X  622   2.333   4.108  15.097 -1.2851  1.4727  1.9185
    5DOPE  H11Y  623   2.203   4.206  15.054  0.5142 -1.6790  0.6579
    5DOPE  C312  624   2.344   4.168  14.896  0.4531  0.2255  0.4622
    5DOPE  H12X  625   2.275   4.085  14.868 -0.2035  1.2953 -1.2480
    5DOPE  H12Y  626   2.447   4.129  14.880  0.0277 -0.0300 -2.0669
    5DOPE  C313  627   2.324   4.288  14.800 -0.1222 -0.0212 -0.3466
    5DOPE  H13X  628   2.216   4.308  14.788 -0.5729  0.3493  3.1580
    5DOPE  H13Y  629   2.367   4.381  14.844 -1.6892  1.4607 -1.7877
    5DOPE  C314  630   2.383   4.275  14.654 -0.3563 -0.5651 -0.3247
    5DOPE  H14X  631   2.489   4.250  14.677 -0.1180  2.2710  2.1918
    5DOPE  H14Y  632   2.386   4.379  14.616  1.7851 -0.1851  0.7091
    5DOPE  C315  633   2.311   4.186  14.558  0.3068 -0.5550 -0.3908
    5DOPE  H15X  634   2.206   4.221  14.562 -0.2167 -2.1219  0.1578
    5DOPE  H15Y  635   2.313   4.084  14.600  0.9525  0.9803  3.7414
    5DOPE  C316  636   2.363   4.188  14.420 -0.1063  0.4664  0.3551
    5DOPE  H16X  637   2.472   4.209  14.417  0.2102 -0.6205  2.5156
    5DOPE  H16Y  638   2.300   4.267  14.374 -2.3141 -1.5418 -0.2807
    5DOPE  C317  639   2.343   4.058  14.344  0.1715  0.2165  0.7742
    5DOPE  H17X  640   2.385   3.974  14.403 -0.7307  0.2294  1.4489
    5DOPE  H17Y  641   2.237   4.028  14.334  0.0443  0.6909  0.6618
    5DOPE  C318  642   2.411   4.050  14.200  0.1854  0.3551 -0.0939
    5DOPE  H18X  643   2.393   3.952  14.151 -0.9908  1.4943 -2.0770
    5DOPE  H18Y  644   2.374   4.134  14.137 -1.0630 -0.7196 -0.8446
    5DOPE  H18Z  645   2.522   4.058  14.210  0.5091 -2.1248 -1.0482
    6DOPE     N  646   1.649   4.882  16.449  0.1790  0.0805 -0.3928
    6DOPE   HN1  647   1.623   4.917  16.355 -0.5090  0.7229  0.0267
    6DOPE   HN2  648   1.643   4.779  16.437  0.7639 -0.1409  0.9412
    6DOPE   HN3  649   1.584   4.906  16.526 -0.3645 -0.5853 -0.6363
    6DOPE   C12  650   1.795   4.924  16.478  0.1400 -0.0733  0.1569
    6DOPE  H12A  651   1.830   4.896  16.580  0.5160  1.8357  0.5823
    6DOPE  H12B  652   1.806   5.033  16.464  1.6666  0.2183  2.7961
    6DOPE   C11  653   1.896   4.870  16.370 -0.0937  0.6161  0.1564
    6DOPE  H11A  654   1.995   4.922  16.377  0.5155 -0.2831 -1.2478
    6DOPE  H11B  655   1.865   4.911  16.271  1.5352  4.6595  1.0896
    6DOPE     P  656   1.994   4.639  16.471 -0.2119  0.3184 -0.2023
    6DOPE   O13  657   1.917   4.545  16.550  0.2841 -0.1750 -0.3787
    6DOPE   O14  658   2.085   4.727  16.549 -0.1392 -0.2016  0.1943
    6DOPE   O11  659   2.082   4.551  16.370  0.2583  0.2549  0.9465
    6DOPE   O12  660   1.904   4.726  16.369  0.1293 -0.0083  0.0722
    6DOPE    C1  661   2.153   4.615  16.264  0.0307 -0.1557 -0.1397
    6DOPE    HA  662   2.248   4.561  16.245  0.1267  0.3820 -1.2817
    6DOPE    HB  663   2.186   4.720  16.277  0.2834 -0.3536  0.9208
    6DOPE    C2  664   2.080   4.620  16.129 -0.0553  0.2793 -0.0730
    6DOPE    HS  665   1.987   4.679  16.139 -0.6337 -0.2551 -1.8393
    6DOPE   O21  666   2.056   4.487  16.088  0.5581  0.6014  0.4714
    6DOPE   C21  667   1.923   4.444  16.100 -0.4934  0.4049 -0.1955
    6DOPE   O22  668   1.839   4.514  16.148 -0.3497  0.5389 -0.8026
    6DOPE   C22  669   1.898   4.306  16.038 -0.2169 -0.9538 -0.5580
    6DOPE   H2R  670   1.808   4.270  16.091 -1.2253  1.8130 -0.2473
    6DOPE   H2S  671   1.987   4.245  16.067  1.7974  1.9997 -0.1220
    6DOPE    C3  672   2.171   4.680  16.025  0.4184 -0.3735 -0.1302
    6DOPE    HX  673   2.125   4.670  15.925 -1.4405 -0.3240  0.6868
    6DOPE    HY  674   2.264   4.620  16.021 -0.9042 -2.6502  1.2297
    6DOPE   O31  675   2.208   4.821  16.057  0.6275  0.0255 -0.0484
    6DOPE   C31  676   2.110   4.916  16.057  0.0964 -0.4741 -0.1021
    6DOPE   O32  677   1.995   4.892  16.024  0.3445  0.1015  0.4499
    6DOPE   C32  678   2.164   5.057  16.114  0.2189 -0.2303  0.2385
    6DOPE   H2X  679   2.107   5.082  16.206 -1.3753  0.4510 -0.8824
    6DOPE   H2Y  680   2.273   5.047  16.132  0.8806 -1.2750 -3.5369
    6DOPE   C23  681   1.883   4.314  15.886  0.0580 -0.3466  0.5649
    6DOPE   H3R  682   1.977   4.338  15.832  1.7474 -1.7848  2.7037
    6DOPE   H3S  683   1.814   4.398  15.865 -1.2033 -1.0824  1.6382
    6DOPE   C24  684   1.813   4.196  15.822  0.6750 -0.4311 -0.3198
    6DOPE   H4R  685   1.703   4.201  15.840  0.1568  0.9887 -3.2514
    6DOPE   H4S  686   1.850   4.099  15.860 -0.6841 -1.6770 -1.9927
    6DOPE   C25  687   1.829   4.202  15.665 -0.3019  0.4716  1.0007
    6DOPE   H5R  688   1.940   4.204  15.657 -0.2175 -3.6600 -1.1456
    6DOPE   H5S  689   1.799   4.298  15.617  1.7079 -0.2778 -2.0292
    6DOPE   C26  690   1.771   4.087  15.593  0.1210 -0.3546  0.6457
    6DOPE   H6R  691   1.662   4.085  15.610 -0.0054  1.4113  0.2284
    6DOPE   H6S  692   1.821   3.992  15.621  3.6211  0.9680 -0.5028
    6DOPE   C27  693   1.778   4.090  15.442 -0.5887 -0.4965 -0.3193
    6DOPE   H7R  694   1.887   4.093  15.419 -0.4125  0.7242  0.5558
    6DOPE   H7S  695   1.732   4.181  15.397 -0.9359 -0.4508  0.1228
    6DOPE   C28  696   1.707   3.965  15.385  0.0776 -0.6635  0.5270
    6DOPE   H8R  697   1.683   4.006  15.285 -1.1407  0.0133  1.0693
    6DOPE   H8S  698   1.617   3.933  15.442 -0.8416  0.4884 -0.2402
    6DOPE   C29  699   1.801   3.849  15.356  0.3175  0.1100  0.3712
    6DOPE   H9R  700   1.841   3.814  15.452 -0.9752  0.7072  1.1396
    6DOPE  C210  701   1.858   3.816  15.239 -0.2494  0.4609  1.1592
    6DOPE  H10R  702   1.914   3.722  15.230 -0.6116  0.2866  0.6775
    6DOPE  C211  703   1.852   3.871  15.099 -0.1281  0.1087  0.4712
    6DOPE  H11R  704   1.747   3.889  15.065  0.3899  2.1387 -0.2121
    6DOPE  H11S  705   1.898   3.803  15.025  1.3281 -0.0485  1.4730
    6DOPE  C212  706   1.931   4.003  15.083 -0.8059 -0.5064 -0.7687
    6DOPE  H12R  707   2.038   3.977  15.103 -1.0682 -0.3237  1.1066
    6DOPE  H12S  708   1.902   4.069  15.168  2.4461  0.2167 -0.0473
    6DOPE  C213  709   1.907   4.089  14.962  0.1597 -0.6087 -0.0578
    6DOPE  H13R  710   1.944   4.194  14.960 -0.6197 -0.2124  2.5015
    6DOPE  H13S  711   1.798   4.100  14.978 -0.1232 -1.6850 -1.1226
    6DOPE  C214  712   1.947   4.028  14.826 -0.0850 -0.3498 -0.5373
    6DOPE  H14R  713   1.887   3.934  14.821  1.1915 -1.1557 -1.2384
    6DOPE  H14S  714   2.051   3.988  14.829  0.1555  0.2350 -0.8876
    6DOPE  C215  715   1.934   4.113  14.710 -0.5765 -0.4683  0.6903
    6DOPE  H15R  716   1.996   4.204  14.722 -0.9843  0.0419 -0.7670
    6DOPE  H15S  717   1.830   4.152  14.710 -0.7028 -0.8022  0.9419
    6DOPE  C216  718   1.946   4.030  14.575 -0.4557 -0.0155 -0.3074
    6DOPE  H16R  719   2.048   3.992  14.554 -0.0666  0.4751  0.6465
    6DOPE  H16S  720   1.926   4.106  14.496  1.5632  0.0560 -0.8010
    6DOPE  C217  721   1.848   3.909  14.557  0.1537 -0.3825 -0.1510
    6DOPE  H17R  722   1.761   3.920  14.626 -0.2529 -2.6069 -0.2246
    6DOPE  H17S  723   1.898   3.825  14.609 -0.7636  0.0701  1.5396
    6DOPE  C218  724   1.825   3.865  14.413  0.9095 -0.8444 -0.2316
    6DOPE  H18R  725   1.767   3.940  14.355  2.0444  1.3476  1.3320
    6DOPE  H18S  726   1.759   3.775  14.416 -1.8525  0.9720 -1.9121
    6DOPE  H18T  727   1.915   3.832  14.356  1.1180 -1.2931  0.3450
    6DOPE   C33  728   2.145   5.169  16.016 -0.5955 -0.0466  0.2759
    6DOPE   H3X  729   2.150   5.261  16.078  1.8232 -0.1830  0.3729
    6DOPE   H3Y  730   2.044   5.178  15.969  0.3435 -1.7468 -2.2764
    6DOPE   C34  731   2.267   5.176  15.917 -0.5988  0.4414 -0.1746
    6DOPE   H4X  732   2.248   5.270  15.859 -0.8120 -0.4687 -1.6214
    6DOPE   H4Y  733   2.363   5.183  15.972 -0.1862 -0.6705 -0.7237
    6DOPE   C35  734   2.269   5.064  15.815 -0.4281  0.1835 -0.3188
    6DOPE   H5X  735   2.166   5.060  15.775 -1.5493 -0.8001  2.4336
    6DOPE   H5Y  736   2.283   4.970  15.874  0.3911 -1.0195 -2.3166
    6DOPE   C36  737   2.386   5.067  15.717  0.0140  0.5212  0.0044
    6DOPE   H6X  738   2.472   5.117  15.768  1.3027 -0.6892 -0.8996
    6DOPE   H6Y  739   2.354   5.132  15.633  1.6706  1.1574 -0.1808
    6DOPE   C37  740   2.435   4.938  15.658  0.2676  0.1731  0.6733
    6DOPE   H7X  741   2.510   4.951  15.577  0.6610 -3.8014  0.2250
    6DOPE   H7Y  742   2.493   4.888  15.738  2.1102  1.5683  0.2660
    6DOPE   C38  743   2.329   4.826  15.625  0.1589  0.1174 -0.3164
    6DOPE   H8X  744   2.265   4.811  15.714  1.8218  0.7997  1.0511
    6DOPE   H8Y  745   2.378   4.727  15.615  0.5439  0.4001 -1.3385
    6DOPE   C39  746   2.240   4.858  15.503  0.5769  0.4194  0.3335
    6DOPE   H9X  747   2.153   4.921  15.526  2.9637  2.7567  3.9304
    6DOPE  C310  748   2.259   4.817  15.376 -0.0668 -0.2175  0.1817
    6DOPE  H10X  749   2.177   4.823  15.304 -0.9699  2.2757  1.3005
    6DOPE  C311  750   2.381   4.732  15.338  0.8493 -0.6472 -0.1123
    6DOPE  H11X  751   2.460   4.759  15.411 -1.6418 -0.8232  2.8389
    6DOPE  H11Y  752   2.352   4.625  15.349  1.2434 -0.9631 -1.8192
    6DOPE  C312  753   2.424   4.727  15.190 -0.2867 -0.3014 -0.0045
    6DOPE  H12X  754   2.492   4.641  15.174  0.7887  0.2694  1.2384
    6DOPE  H12Y  755   2.480   4.821  15.166  2.1826 -1.6407  0.1534
    6DOPE  C313  756   2.305   4.715  15.090 -0.0557  0.0988 -0.1822
    6DOPE  H13X  757   2.250   4.619  15.101 -1.0350  0.4322 -1.8460
    6DOPE  H13Y  758   2.238   4.797  15.122  0.4949  0.4000  0.2145
    6DOPE  C314  759   2.349   4.708  14.945 -0.1121  0.2373  0.4545
    6DOPE  H14X  760   2.447   4.656  14.941  0.4270  1.2192  0.4764
    6DOPE  H14Y  761   2.369   4.814  14.919  0.3101 -0.2679 -1.3742
    6DOPE  C315  762   2.242   4.646  14.857  0.0262  0.0239  0.0070
    6DOPE  H15X  763   2.148   4.705  14.860 -0.4780 -0.7808  2.1258
    6DOPE  H15Y  764   2.215   4.544  14.891  3.9386 -0.9136  0.8906
    6DOPE  C316  765   2.289   4.620  14.712 -0.1762  0.4399  0.0173
    6DOPE  H16X  766   2.223   4.551  14.654  1.6642 -1.5391  0.1803
    6DOPE  H16Y  767   2.386   4.567  14.709 -1.9335 -3.0170 -0.3347
    6DOPE  C317  768   2.305   4.731  14.614 -0.6209  0.1703 -0.4556
    6DOPE  H17X  769   2.206   4.777  14.594 -0.8344  0.2623  0.7384
    6DOPE  H17Y  770   2.371   4.813  14.651 -2.5767  2.3895 -1.6279
    6DOPE  C318  771   2.368   4.675  14.488 -0.3757 -0.2287  0.2025
    6DOPE  H18X  772   2.346   4.733  14.395 -2.5729 -0.0138  0.8084
    6DOPE  H18Y  773   2.478   4.667  14.500 -0.2018 -1.2283 -1.5878
    6DOPE  H18Z  774   2.324   4.576  14.463  0.2922 -0.9363  1.6989
    7DOPE     N  775   4.288   5.722  15.887  0.1709 -0.3188 -0.7062
    7DOPE   HN1  776   4.243   5.633  15.919 -1.0967  0.6113  0.2041
    7DOPE   HN2  777   4.221   5.795  15.918 -0.1968 -0.6635 -0.6676
    7DOPE   HN3  778   4.297   5.727  15.784  1.8850  0.7262 -0.5350
    7DOPE   C12  779   4.420   5.764  15.941 -1.0760 -0.1551  0.3434
    7DOPE  H12A  780   4.416   5.780  16.051  0.4844  0.5297  0.3301
    7DOPE  H12B  781   4.451   5.864  15.904 -0.3304 -0.5853 -0.2339
    7DOPE   C11  782   4.521   5.650  15.918  0.3670 -0.1811 -0.4523
    7DOPE  H11A  783   4.625   5.684  15.937  0.4734 -1.7864  2.5617
    7DOPE  H11B  784   4.515   5.620  15.811  0.0737  0.5145 -0.6372
    7DOPE     P  785   4.555   5.393  15.961 -0.0998 -0.5654  0.4474
    7DOPE   O13  786   4.468   5.333  15.854 -0.6688  0.4839 -0.3439
    7DOPE   O14  787   4.564   5.309  16.083  0.3718 -0.3319 -0.3680
    7DOPE   O11  788   4.698   5.419  15.899  0.5695 -0.0767 -0.4148
    7DOPE   O12  789   4.495   5.539  16.004  0.1445 -0.5728  0.3025
    7DOPE    C1  790   4.786   5.316  15.880 -0.1464  0.5701  0.2279
    7DOPE    HA  791   4.743   5.215  15.895 -1.4402  0.6115 -2.5038
    7DOPE    HB  792   4.861   5.327  15.961  0.8707  0.7899 -0.7199
    7DOPE    C2  793   4.853   5.304  15.742 -0.2198  0.4250  0.0702
    7DOPE    HS  794   4.904   5.206  15.732  1.2706  0.7173  3.2627
    7DOPE   O21  795   4.940   5.417  15.724  0.0441 -0.5132  0.3401
    7DOPE   C21  796   5.057   5.397  15.787 -0.1560 -0.6534 -0.8333
    7DOPE   O22  797   5.085   5.299  15.851 -0.6655 -0.1124  0.2669
    7DOPE   C22  798   5.148   5.522  15.778  0.2476 -0.3505  0.0310
    7DOPE   H2R  799   5.220   5.508  15.861  0.1846  0.3583  0.2065
    7DOPE   H2S  800   5.090   5.616  15.787 -1.6044 -1.5402  1.3685
    7DOPE    C3  801   4.747   5.325  15.631 -0.5612  0.3098 -0.3304
    7DOPE    HX  802   4.718   5.432  15.640 -1.6827 -0.1283  1.8363
    7DOPE    HY  803   4.660   5.262  15.660 -0.3972 -0.5510 -1.6220
    7DOPE   O31  804   4.800   5.302  15.506  0.5413 -0.1656  0.2352
    7DOPE   C31  805   4.816   5.179  15.463 -0.3081 -0.2545 -0.0996
    7DOPE   O32  806   4.786   5.080  15.535 -0.6425 -0.4481  0.0310
    7DOPE   C32  807   4.884   5.174  15.324 -0.2902 -0.2743 -0.0017
    7DOPE   H2X  808   4.815   5.221  15.251 -0.2345 -0.7379 -0.3578
    7DOPE   H2Y  809   4.978   5.233  15.329 -0.3495 -0.2294  0.7159
    7DOPE   C23  810   5.221   5.535  15.635  0.6203 -0.0901  0.3976
    7DOPE   H3R  811   5.259   5.436  15.602  0.1735 -0.4438  0.9369
    7DOPE   H3S  812   5.306   5.607  15.646 -0.3782  1.5183 -1.6228
    7DOPE   C24  813   5.134   5.588  15.515  0.1127  0.0447 -0.2302
    7DOPE   H4R  814   5.104   5.694  15.524 -0.0770  0.1300 -1.6508
    7DOPE   H4S  815   5.042   5.526  15.507  1.9408 -2.7488 -0.9711
    7DOPE   C25  816   5.193   5.573  15.372 -0.4820  0.0239 -0.1368
    7DOPE   H5R  817   5.290   5.626  15.362 -0.0645 -0.9552 -1.6383
    7DOPE   H5S  818   5.117   5.616  15.304  0.5493 -0.7517 -1.8428
    7DOPE   C26  819   5.215   5.424  15.338 -0.0722 -0.3200  0.2267
    7DOPE   H6R  820   5.118   5.371  15.342 -0.2940  0.0743  0.1336
    7DOPE   H6S  821   5.291   5.379  15.406 -0.8590  0.7930  1.9224
    7DOPE   C27  822   5.263   5.395  15.193  0.0719 -0.2758 -0.1437
    7DOPE   H7R  823   5.263   5.492  15.139 -0.3360  1.1119  2.1782
    7DOPE   H7S  824   5.186   5.335  15.141  1.4888  0.3941 -3.2487
    7DOPE   C28  825   5.400   5.319  15.185 -0.6422  0.3056  0.5186
    7DOPE   H8R  826   5.376   5.216  15.218  2.5838 -0.3774  1.0922
    7DOPE   H8S  827   5.475   5.366  15.252  0.8804 -0.3183 -0.6750
    7DOPE   C29  828   5.449   5.340  15.044  0.5872 -0.3267  0.0947
    7DOPE   H9R  829   5.447   5.441  15.000  1.3092 -0.6190 -0.6269
    7DOPE  C210  830   5.496   5.235  14.964  0.2107 -0.2288  0.3193
    7DOPE  H10R  831   5.525   5.257  14.860  0.7794  0.8624  0.6879
    7DOPE  C211  832   5.518   5.098  15.003  0.8565  0.5317  0.3917
    7DOPE  H11R  833   5.452   5.058  15.083 -1.7029 -1.0991 -2.3061
    7DOPE  H11S  834   5.623   5.084  15.038  0.7146  0.6240  0.8594
    7DOPE  C212  835   5.498   5.000  14.887 -1.0417  0.8140 -0.1739
    7DOPE  H12R  836   5.560   5.027  14.800 -0.9200  1.7138  0.1820
    7DOPE  H12S  837   5.391   4.992  14.860 -1.5503 -1.2210  2.0618
    7DOPE  C213  838   5.562   4.859  14.918  0.8333  0.6064 -0.0346
    7DOPE  H13R  839   5.506   4.802  14.996  3.4909 -2.5215 -0.2195
    7DOPE  H13S  840   5.667   4.866  14.952  0.3537 -1.0605  2.0378
    7DOPE  C214  841   5.580   4.769  14.791 -0.0285 -0.6825  0.4450
    7DOPE  H14R  842   5.487   4.775  14.731  1.3092 -0.4506 -1.6947
    7DOPE  H14S  843   5.610   4.665  14.816 -1.4768 -0.8379  1.7092
    7DOPE  C215  844   5.692   4.823  14.698  0.4759  0.0718 -0.5200
    7DOPE  H15R  845   5.791   4.813  14.747  0.6898  0.4124 -0.8815
    7DOPE  H15S  846   5.684   4.930  14.670 -1.1297 -0.2611 -1.5070
    7DOPE  C216  847   5.695   4.738  14.571  0.0358  0.6590 -0.2836
    7DOPE  H16R  848   5.634   4.649  14.599 -1.9443  2.5955  1.9944
    7DOPE  H16S  849   5.801   4.708  14.565  0.0957  0.5824  0.9346
    7DOPE  C217  850   5.650   4.802  14.441  0.2122 -0.1543 -0.1553
    7DOPE  H17R  851   5.546   4.839  14.451 -0.1835 -1.5670  1.2743
    7DOPE  H17S  852   5.641   4.720  14.367 -0.3169  0.6235 -0.9870
    7DOPE  C218  853   5.737   4.905  14.380 -0.1333  0.5931  0.5055
    7DOPE  H18R  854   5.699   4.937  14.281 -0.6455 -1.0597  0.1477
    7DOPE  H18S  855   5.840   4.864  14.367 -0.4182 -0.2510  0.8632
    7DOPE  H18T  856   5.748   4.997  14.442  0.6590  3.0039 -2.9397
    7DOPE   C33  857   4.914   5.027  15.269 -0.0294 -0.0159  0.3976
    7DOPE   H3X  858   4.818   4.974  15.289 -0.5870  1.4744  2.0280
    7DOPE   H3Y  859   4.992   4.980  15.333  0.8781  3.0559  1.7410
    7DOPE   C34  860   4.968   5.028  15.127  0.0412 -0.7221  0.9736
    7DOPE   H4X  861   4.916   5.108  15.070  1.8886  0.7491  1.2470
    7DOPE   H4Y  862   5.074   5.061  15.136  0.6208 -1.7481 -1.2453
    7DOPE   C35  863   4.970   4.894  15.051 -0.0401 -0.2295  0.0925
    7DOPE   H5X  864   4.866   4.857  15.061 -0.6528  0.0621 -3.7262
    7DOPE   H5Y  865   5.045   4.826  15.097  0.3152  0.3738  0.4241
    7DOPE   C36  866   5.010   4.914  14.905 -0.2632  0.3761 -0.0499
    7DOPE   H6X  867   5.117   4.942  14.901  0.0599 -0.7981 -0.1378
    7DOPE   H6Y  868   4.954   4.992  14.850  1.2167  0.4543 -1.5403
    7DOPE   C37  869   5.000   4.786  14.818  0.2772  0.3638 -0.3386
    7DOPE   H7X  870   5.069   4.717  14.870  1.1605  1.2395 -0.3334
    7DOPE   H7Y  871   4.896   4.748  14.834 -0.3796  1.7968 -0.9755
    7DOPE   C38  872   5.032   4.793  14.668  0.2376 -0.3715 -0.4081
    7DOPE   H8X  873   4.957   4.863  14.624 -0.8374 -0.3119  1.4218
    7DOPE   H8Y  874   5.024   4.693  14.621  1.2714 -1.3736  1.4489
    7DOPE   C39  875   5.168   4.832  14.630 -0.0158  0.2973 -0.5214
    7DOPE   H9X  876   5.243   4.770  14.681 -0.4657  0.6856  0.6217
    7DOPE  C310  877   5.208   4.913  14.537 -0.2494 -0.9278  0.0770
    7DOPE  H10X  878   5.315   4.916  14.511 -0.6648  1.7618 -1.6229
    7DOPE  C311  879   5.124   4.989  14.438 -0.2751  0.3144 -0.3255
    7DOPE  H11X  880   5.034   5.030  14.489 -0.8508 -2.5683  1.2111
    7DOPE  H11Y  881   5.176   5.078  14.395  0.3308  0.8144  1.3481
    7DOPE  C312  882   5.073   4.902  14.319  0.0943  0.8984  0.4625
    7DOPE  H12X  883   5.006   4.959  14.251  0.3272  1.1238  0.4182
    7DOPE  H12Y  884   5.009   4.826  14.368  0.5046 -0.8863 -1.6350
    7DOPE  C313  885   5.185   4.834  14.228 -1.2586 -0.0255 -0.0701
    7DOPE  H13X  886   5.249   4.912  14.182 -0.2782 -0.8064 -0.0615
    7DOPE  H13Y  887   5.253   4.778  14.295 -1.0183  0.9572  0.5349
    7DOPE  C314  888   5.115   4.738  14.122 -0.6362 -0.6925  0.2620
    7DOPE  H14X  889   5.026   4.790  14.081 -0.8432 -0.8956  0.4494
    7DOPE  H14Y  890   5.087   4.649  14.183  0.8798 -0.5270  1.2499
    7DOPE  C315  891   5.218   4.702  14.014  0.0017  0.1095  0.4238
    7DOPE  H15X  892   5.187   4.607  13.968  1.4743  0.1779 -0.8033
    7DOPE  H15Y  893   5.310   4.688  14.076  1.0578  1.1718 -0.8222
    7DOPE  C316  894   5.224   4.810  13.902 -0.5815  0.4571  0.5704
    7DOPE  H16X  895   5.271   4.905  13.935 -1.6978  0.7115  1.5330
    7DOPE  H16Y  896   5.127   4.848  13.863  0.4677  0.4043 -2.3479
    7DOPE  C317  897   5.305   4.746  13.783 -0.1749  0.5889 -0.4875
    7DOPE  H17X  898   5.399   4.698  13.817 -1.6345 -1.7719  0.4307
    7DOPE  H17Y  899   5.245   4.662  13.743  0.7235 -0.2313 -0.1335
    7DOPE  C318  900   5.325   4.849  13.668  0.3768  0.8200 -0.2713
    7DOPE  H18X  901   5.420   4.822  13.617 -1.1128 -3.2632 -1.2650
    7DOPE  H18Y  902   5.240   4.857  13.597  1.0537  1.0581 -1.0701
    7DOPE  H18Z  903   5.327   4.953  13.709 -1.6827  0.6367  0.3745
    8DOPE     N  904   5.440   5.967  16.022  0.0090  0.0174  0.1926
    8DOPE   HN1  905   5.479   6.047  15.968 -1.9391  2.8449  2.6527
    8DOPE   HN2  906   5.401   5.998  16.113  0.8864  1.4742  0.1017
    8DOPE   HN3  907   5.518   5.909  16.060 -1.1028 -0.1074  2.4537
    8DOPE   C12  908   5.335   5.884  15.948 -0.1843 -0.2014 -0.3687
    8DOPE  H12A  909   5.312   5.807  16.024  1.9171 -1.4772 -0.9346
    8DOPE  H12B  910   5.389   5.846  15.858  2.1946  0.9571  0.4893
    8DOPE   C11  911   5.206   5.965  15.924  0.6186 -0.1676 -0.1944
    8DOPE  H11A  912   5.137   5.885  15.891  1.5328 -1.9473  1.9658
    8DOPE  H11B  913   5.220   6.034  15.838 -2.0866 -0.2679 -0.7761
    8DOPE     P  914   5.195   6.189  16.072  0.1690  0.3950 -0.4935
    8DOPE   O13  915   5.326   6.200  16.133  0.6147  0.0950  0.9125
    8DOPE   O14  916   5.078   6.235  16.156  0.1398 -0.6479 -0.4410
    8DOPE   O11  917   5.197   6.253  15.929 -0.5320  0.0086 -0.4874
    8DOPE   O12  918   5.162   6.036  16.046 -0.0523  0.1485 -0.1129
    8DOPE    C1  919   5.077   6.308  15.869 -0.2122 -0.1585 -0.2610
    8DOPE    HA  920   5.115   6.390  15.805  1.6967 -0.6798  0.1474
    8DOPE    HB  921   5.008   6.362  15.939 -0.4035 -0.0450 -0.5350
    8DOPE    C2  922   5.011   6.219  15.773  0.2512  0.1160  0.0366
    8DOPE    HS  923   4.974   6.134  15.834  2.0656 -0.5052  0.3255
    8DOPE   O21  924   5.106   6.172  15.669  0.0241 -0.3508 -0.1867
    8DOPE   C21  925   5.072   6.068  15.602  0.1382  0.2547 -0.7162
    8DOPE   O22  926   4.975   5.993  15.629 -0.4384  1.0389 -0.2347
    8DOPE   C22  927   5.169   6.050  15.489  0.1050 -0.7624  0.7760
    8DOPE   H2R  928   5.224   5.959  15.521  1.5323  0.5652  2.3038
    8DOPE   H2S  929   5.247   6.129  15.479  1.1429 -1.9423 -1.0075
    8DOPE    C3  930   4.883   6.284  15.705  0.7154 -0.1991  0.0037
    8DOPE    HX  931   4.828   6.329  15.790 -1.4911 -2.3182 -0.1847
    8DOPE    HY  932   4.815   6.203  15.671  0.4000 -0.7367  1.8145
    8DOPE   O31  933   4.912   6.374  15.597  0.1687 -0.1920  0.1106
    8DOPE   C31  934   4.890   6.509  15.625 -0.2873 -0.0258  0.1371
    8DOPE   O32  935   4.849   6.551  15.731  0.8353  0.2096  0.5268
    8DOPE   C32  936   4.884   6.584  15.492 -0.2341  0.3138 -0.0231
    8DOPE   H2X  937   4.881   6.501  15.418 -1.4521 -0.7549  1.1742
    8DOPE   H2Y  938   4.796   6.652  15.485  0.9441  1.8857  0.0065
    8DOPE   C23  939   5.106   6.011  15.351 -0.0842 -0.3813  0.7191
    8DOPE   H3R  940   5.045   5.919  15.355 -0.4356 -0.1428  0.9072
    8DOPE   H3S  941   5.185   5.987  15.277 -3.3084 -0.5841 -2.9687
    8DOPE   C24  942   5.025   6.128  15.282  0.2395  0.5015  0.2139
    8DOPE   H4R  943   5.088   6.219  15.284 -0.9614  1.3510  0.4546
    8DOPE   H4S  944   4.933   6.148  15.342  1.1553  0.5623  1.6436
    8DOPE   C25  945   4.985   6.108  15.139  0.1603  0.2345  0.3541
    8DOPE   H5R  946   4.911   6.026  15.119 -0.9461  1.1088  0.7738
    8DOPE   H5S  947   5.080   6.101  15.081 -0.8899  1.1929 -1.5701
    8DOPE   C26  948   4.913   6.233  15.089 -0.5460  1.3551 -0.4192
    8DOPE   H6R  949   4.919   6.240  14.978  1.5684  0.4130 -0.4029
    8DOPE   H6S  950   4.969   6.325  15.117 -0.0166  0.8806  0.0938
    8DOPE   C27  951   4.773   6.247  15.143 -0.1238 -0.0976 -0.5021
    8DOPE   H7R  952   4.775   6.252  15.254  1.0466 -0.7886 -0.4741
    8DOPE   H7S  953   4.721   6.153  15.113 -0.3404 -0.4535  0.9095
    8DOPE   C28  954   4.707   6.376  15.097  1.4033 -0.1368  0.7908
    8DOPE   H8R  955   4.708   6.374  14.986 -0.2176 -1.3181  0.7489
    8DOPE   H8S  956   4.767   6.461  15.134 -0.0187  0.9506  0.6673
    8DOPE   C29  957   4.566   6.384  15.143  0.6314 -0.5500  0.2274
    8DOPE   H9R  958   4.503   6.298  15.115  2.7967 -2.2587  0.3475
    8DOPE  C210  959   4.513   6.490  15.208  0.2456 -1.1135 -0.7006
    8DOPE  H10R  960   4.421   6.484  15.267  0.1070 -0.2874 -0.8121
    8DOPE  C211  961   4.594   6.615  15.234 -0.0455  0.5328 -0.8836
    8DOPE  H11R  962   4.655   6.641  15.144  0.4247  1.0686 -0.4197
    8DOPE  H11S  963   4.661   6.596  15.320  0.0697  1.1074 -0.8411
    8DOPE  C212  964   4.502   6.730  15.279  1.6306 -0.1161 -0.2895
    8DOPE  H12R  965   4.448   6.691  15.368  1.2521 -1.2129 -0.9876
    8DOPE  H12S  966   4.432   6.754  15.197  0.2002 -1.6028  0.4438
    8DOPE  C213  967   4.578   6.862  15.299 -0.2239  0.1281  0.0354
    8DOPE  H13R  968   4.642   6.884  15.211  1.3489 -0.8991  0.8698
    8DOPE  H13S  969   4.651   6.860  15.383 -1.8672  0.2921  1.5126
    8DOPE  C214  970   4.503   6.976  15.334 -0.0599 -0.4814  0.5800
    8DOPE  H14R  971   4.572   7.055  15.369 -0.4114 -0.7167  1.8567
    8DOPE  H14S  972   4.438   6.958  15.422 -0.8998 -0.0981  0.0509
    8DOPE  C215  973   4.410   7.034  15.225  1.0767 -0.7597  0.3278
    8DOPE  H15R  974   4.320   6.973  15.203 -0.1047  0.1188  2.3482
    8DOPE  H15S  975   4.477   7.058  15.140  2.8654  1.8447  2.3001
    8DOPE  C216  976   4.365   7.170  15.272  0.2530 -0.0177  0.2731
    8DOPE  H16R  977   4.324   7.227  15.185  3.0804  0.9439 -0.5371
    8DOPE  H16S  978   4.458   7.229  15.285 -1.4597  2.6312  1.5566
    8DOPE  C217  979   4.274   7.160  15.393  0.0439 -0.4129 -0.0181
    8DOPE  H17R  980   4.337   7.156  15.484 -1.3277  1.5271  1.0761
    8DOPE  H17S  981   4.208   7.070  15.389  1.0987 -1.3846  2.4909
    8DOPE  C218  982   4.182   7.280  15.399 -0.1132 -0.0557 -0.8906
    8DOPE  H18R  983   4.118   7.293  15.309 -1.9293  1.0909  0.5095
    8DOPE  H18S  984   4.237   7.377  15.400 -1.0038  0.4569 -1.1995
    8DOPE  H18T  985   4.128   7.278  15.496  3.0521  0.3200  1.0575
    8DOPE   C33  986   5.017   6.667  15.469 -0.5693 -0.4246 -0.5387
    8DOPE   H3X  987   5.113   6.611  15.479 -0.6085 -0.4901 -0.5259
    8DOPE   H3Y  988   5.027   6.752  15.539  2.1838 -1.3576  0.3623
    8DOPE   C34  989   5.017   6.748  15.338 -0.0879 -0.0389  0.0369
    8DOPE   H4X  990   4.935   6.824  15.333  0.4214  0.4752 -0.8385
    8DOPE   H4Y  991   5.119   6.788  15.319 -0.4135  1.2999  0.9194
    8DOPE   C35  992   4.979   6.662  15.212 -0.0544  0.4717  0.2986
    8DOPE   H5X  993   4.868   6.656  15.219  0.0834 -1.1199  2.1758
    8DOPE   H5Y  994   5.021   6.559  15.218 -1.0632  0.0441  0.1540
    8DOPE   C36  995   5.014   6.716  15.074  0.0348  0.6536 -0.5295
    8DOPE   H6X  996   5.123   6.719  15.057  0.6058 -3.1175  1.3676
    8DOPE   H6Y  997   4.973   6.819  15.063 -2.3383 -0.2511 -0.7582
    8DOPE   C37  998   4.962   6.621  14.964  0.8407 -0.3202  0.6485
    8DOPE   H7X  999   5.003   6.519  14.975  0.1035 -0.6763  0.1859
    8DOPE   H7Y 1000   4.852   6.604  14.970  1.1370 -2.3377  1.1475
    8DOPE   C38 1001   4.997   6.676  14.831  0.1133 -0.5017  0.2661
    8DOPE   H8X 1002   5.097   6.723  14.834 -0.8756  1.6980  0.7869
    8DOPE   H8Y 1003   4.937   6.767  14.810 -0.6322 -1.0146  0.1551
    8DOPE   C39 1004   4.975   6.576  14.718  0.2451 -0.5818 -0.1598
    8DOPE   H9X 1005   4.898   6.499  14.733  0.9775 -1.1320  0.8937
    8DOPE  C310 1006   5.053   6.566  14.610 -0.3834  0.5034  0.4681
    8DOPE  H10X 1007   5.012   6.493  14.538  0.3030 -0.3511  0.9254
    8DOPE  C311 1008   5.172   6.654  14.580  0.1715  0.0177 -0.4898
    8DOPE  H11X 1009   5.156   6.751  14.631 -0.7772 -0.0409 -0.6627
    8DOPE  H11Y 1010   5.266   6.613  14.623 -0.0323 -0.9684 -0.9413
    8DOPE  C312 1011   5.207   6.697  14.435  0.0969  0.5927 -0.2941
    8DOPE  H12X 1012   5.115   6.722  14.378  0.0205  0.7259 -0.1146
    8DOPE  H12Y 1013   5.261   6.613  14.387 -1.2584  0.2171 -1.2405
    8DOPE  C313 1014   5.314   6.813  14.438 -0.3113  0.1251 -0.1169
    8DOPE  H13X 1015   5.270   6.890  14.505 -0.1017  1.5897 -1.6010
    8DOPE  H13Y 1016   5.402   6.772  14.490 -0.5643  0.8346  0.9013
    8DOPE  C314 1017   5.336   6.877  14.295 -0.0858 -0.0774  0.0788
    8DOPE  H14X 1018   5.240   6.923  14.264 -0.7573 -0.7780  1.0816
    8DOPE  H14Y 1019   5.350   6.801  14.216  2.5785 -1.1311  1.4402
    8DOPE  C315 1020   5.442   6.995  14.292 -0.1133  0.6463  0.4721
    8DOPE  H15X 1021   5.536   6.943  14.321 -1.1440 -0.6582  1.5988
    8DOPE  H15Y 1022   5.408   7.073  14.364  0.5817  0.4456  1.0312
    8DOPE  C316 1023   5.478   7.049  14.152 -0.1498 -0.6426 -0.2153
    8DOPE  H16X 1024   5.502   6.963  14.086  2.7582 -0.2219  0.1522
    8DOPE  H16Y 1025   5.577   7.100  14.158  0.4013 -1.7349  0.3017
    8DOPE  C317 1026   5.377   7.145  14.086 -0.7021 -0.1884  0.0308
    8DOPE  H17X 1027   5.281   7.098  14.057 -1.2649  0.4786  0.7653
    8DOPE  H17Y 1028   5.334   7.212  14.164  0.8540  0.4524  0.3856
    8DOPE  C318 1029   5.428   7.229  13.970 -0.6454  0.0992  0.2749
    8DOPE  H18X 1030   5.488   7.319  13.994 -1.9401  0.8746  0.7027
    8DOPE  H18Y 1031   5.353   7.268  13.898 -1.5388 -2.9302 -0.5808
    8DOPE  H18Z 1032   5.481   7.160  13.901 -1.5343 -0.5080  0.1819
    9DOPE     N 1033   1.871   4.302  16.629  0.5505  0.7245 -0.4194
    9DOPE   HN1 1034   1.886   4.401  16.598  0.8484  0.8171  0.0119
    9DOPE   HN2 1035   1.802   4.295  16.706 -0.4894  0.9212 -1.3006
    9DOPE   HN3 1036   1.967   4.273  16.654 -0.4374 -1.5767  0.9976
    9DOPE   C12 1037   1.829   4.204  16.517 -0.1122 -0.0469  0.2877
    9DOPE  H12A 1038   1.792   4.108  16.557  1.6798 -1.5193 -1.3759
    9DOPE  H12B 1039   1.917   4.183  16.452 -1.3152 -0.8251 -1.1567
    9DOPE   C11 1040   1.729   4.260  16.408  0.6126 -0.8536  0.4950
    9DOPE  H11A 1041   1.707   4.173  16.343  0.7778 -0.8963  0.4959
    9DOPE  H11B 1042   1.785   4.341  16.357  1.0424  0.2734  2.6265
    9DOPE     P 1043   1.476   4.255  16.480 -0.2832  0.0138 -0.6134
    9DOPE   O13 1044   1.390   4.345  16.561  0.5513 -0.0270 -0.7454
    9DOPE   O14 1045   1.490   4.112  16.521 -0.0912 -0.1726  0.1828
    9DOPE   O11 1046   1.432   4.259  16.328  0.2226 -0.1874  0.2154
    9DOPE   O12 1047   1.621   4.328  16.474  0.7938 -0.0861 -0.6960
    9DOPE    C1 1048   1.438   4.385  16.254 -0.3142  0.5039 -0.7710
    9DOPE    HA 1049   1.539   4.430  16.262 -0.3924  0.2789  2.6613
    9DOPE    HB 1050   1.359   4.453  16.293  0.6082  0.7845  0.6736
    9DOPE    C2 1051   1.398   4.353  16.110 -0.6686 -0.3089  0.1978
    9DOPE    HS 1052   1.432   4.446  16.059 -0.3030 -1.3553 -1.5474
    9DOPE   O21 1053   1.257   4.320  16.095 -0.2560 -0.1143  0.1204
    9DOPE   C21 1054   1.174   4.423  16.111 -0.5865 -0.0076  0.2147
    9DOPE   O22 1055   1.200   4.538  16.140 -0.0061  0.0275 -0.1280
    9DOPE   C22 1056   1.038   4.379  16.067 -0.4029  0.3849 -0.1808
    9DOPE   H2R 1057   0.977   4.352  16.155  0.3069 -2.3329 -0.4222
    9DOPE   H2S 1058   1.053   4.284  16.010 -2.1909  0.8010 -1.4410
    9DOPE    C3 1059   1.483   4.237  16.052  0.0742  0.1009  0.2446
    9DOPE    HX 1060   1.464   4.140  16.104 -0.7722 -0.5706 -1.2804
    9DOPE    HY 1061   1.590   4.260  16.072 -0.1624 -0.2810  2.2049
    9DOPE   O31 1062   1.468   4.230  15.906 -0.5887 -0.4913  0.1688
    9DOPE   C31 1063   1.375   4.138  15.877 -0.0167 -0.2616  0.0260
    9DOPE   O32 1064   1.301   4.082  15.957 -0.5711 -0.2121  0.1122
    9DOPE   C32 1065   1.366   4.119  15.729 -0.1705 -0.2038  0.0781
    9DOPE   H2X 1066   1.468   4.121  15.686 -0.6028 -0.9190 -1.0256
    9DOPE   H2Y 1067   1.326   4.016  15.717 -0.4033 -0.3114  1.5460
    9DOPE   C23 1068   0.965   4.476  15.989 -0.0496  0.1207  0.9101
    9DOPE   H3R 1069   0.962   4.580  16.028 -0.1569  1.0983 -1.5102
    9DOPE   H3S 1070   0.860   4.441  15.993  0.4973 -1.5678  1.3548
    9DOPE   C24 1071   1.003   4.489  15.842 -0.2712  0.7970  0.8336
    9DOPE   H4R 1072   1.112   4.496  15.821 -0.0050 -0.2472  1.7901
    9DOPE   H4S 1073   0.954   4.584  15.814  1.5539  1.6142  0.2549
    9DOPE   C25 1074   0.941   4.373  15.754 -0.2052  0.0672 -0.4703
    9DOPE   H5R 1075   0.837   4.354  15.787 -0.1689  0.3108 -0.2136
    9DOPE   H5S 1076   1.005   4.284  15.772  0.9486  0.6333 -1.6304
    9DOPE   C26 1077   0.951   4.411  15.607 -0.5130 -0.0659 -0.6993
    9DOPE   H6R 1078   1.055   4.426  15.571 -0.4825 -1.1501 -1.1196
    9DOPE   H6S 1079   0.882   4.494  15.582  0.8692  1.9873  1.8460
    9DOPE   C27 1080   0.900   4.296  15.516 -0.1005 -0.7890  0.0726
    9DOPE   H7R 1081   0.791   4.277  15.530 -0.9801  2.5285 -1.0922
    9DOPE   H7S 1082   0.957   4.201  15.524  0.9068 -0.4304 -2.0871
    9DOPE   C28 1083   0.907   4.329  15.365  0.8149 -0.0025  0.2908
    9DOPE   H8R 1084   1.013   4.328  15.331  1.7039  0.4820  2.8657
    9DOPE   H8S 1085   0.882   4.436  15.345  2.3856  0.4729  0.7160
    9DOPE   C29 1086   0.812   4.229  15.294  0.8490  0.2475  0.1413
    9DOPE   H9R 1087   0.719   4.209  15.349  0.9027  0.1140  0.1829
    9DOPE  C210 1088   0.827   4.161  15.173  0.1576  0.0892 -0.0233
    9DOPE  H10R 1089   0.754   4.084  15.143  0.8256 -1.2189  1.5402
    9DOPE  C211 1090   0.955   4.173  15.087  0.6395 -0.0970 -0.1209
    9DOPE  H11R 1091   0.994   4.075  15.052  2.2710  0.4868 -0.0409
    9DOPE  H11S 1092   1.041   4.225  15.135  0.2660  1.0626 -0.6850
    9DOPE  C212 1093   0.937   4.268  14.968 -0.1224  0.0411 -0.0705
    9DOPE  H12R 1094   1.036   4.300  14.928 -0.6366  1.1785 -0.4749
    9DOPE  H12S 1095   0.885   4.364  14.989  2.2417  1.7630 -1.5715
    9DOPE  C213 1096   0.867   4.204  14.850  0.4232 -0.1973  0.3988
    9DOPE  H13R 1097   0.827   4.284  14.784  0.6956 -1.5858 -1.5283
    9DOPE  H13S 1098   0.784   4.145  14.894 -0.0375 -2.6622 -3.3219
    9DOPE  C214 1099   0.966   4.116  14.766  0.0888 -0.3653 -0.8534
    9DOPE  H14R 1100   1.021   4.047  14.834 -1.8266 -0.0410  1.1246
    9DOPE  H14S 1101   1.040   4.188  14.725  0.4165 -0.5991 -0.6834
    9DOPE  C215 1102   0.907   4.034  14.657  0.6280  0.6861  0.3519
    9DOPE  H15R 1103   0.830   4.092  14.603  0.6574  0.9930  0.6389
    9DOPE  H15S 1104   0.849   3.951  14.703 -0.4556  0.6184 -1.0549
    9DOPE  C216 1105   1.013   3.983  14.557  0.3202 -0.4845 -0.2990
    9DOPE  H16R 1106   1.074   3.897  14.591 -0.2719 -0.2735  1.3676
    9DOPE  H16S 1107   1.079   4.070  14.535  1.3920 -0.4123  2.7536
    9DOPE  C217 1108   0.952   3.944  14.419 -0.7739  0.1282  0.4077
    9DOPE  H17R 1109   0.896   4.027  14.372 -1.5220 -0.3791  0.3955
    9DOPE  H17S 1110   0.875   3.866  14.436 -0.0541 -0.5407  0.6815
    9DOPE  C218 1111   1.061   3.887  14.326 -0.0518  0.6086  0.4407
    9DOPE  H18R 1112   1.136   3.843  14.395 -1.1550 -0.5912  0.9246
    9DOPE  H18S 1113   1.102   3.964  14.257  0.2371  1.3771  1.4581
    9DOPE  H18T 1114   1.029   3.797  14.268 -0.8829  0.5000  1.0536
    9DOPE   C33 1115   1.281   4.222  15.650 -0.3625  0.6527  0.4155
    9DOPE   H3X 1116   1.273   4.319  15.704 -1.0568  0.3936  0.7833
    9DOPE   H3Y 1117   1.180   4.176  15.643  1.2627 -3.8658  2.7084
    9DOPE   C34 1118   1.343   4.235  15.515  0.0918  0.8129  0.1214
    9DOPE   H4X 1119   1.297   4.318  15.456  0.3101  0.0928 -1.1026
    9DOPE   H4Y 1120   1.447   4.273  15.522 -0.0769  0.9761  2.7799
    9DOPE   C35 1121   1.337   4.111  15.420  0.3873 -0.8944 -0.7309
    9DOPE   H5X 1122   1.232   4.074  15.428 -0.0800  0.5057  0.0229
    9DOPE   H5Y 1123   1.416   4.037  15.444  0.7235  0.2364  1.9895
    9DOPE   C36 1124   1.367   4.157  15.276  0.3758 -0.2060  0.4178
    9DOPE   H6X 1125   1.464   4.211  15.286 -0.1341  0.7961  0.1296
    9DOPE   H6Y 1126   1.288   4.228  15.243  1.0104  0.4537  0.2970
    9DOPE   C37 1127   1.369   4.040  15.181  0.0139  0.4829  0.4682
    9DOPE   H7X 1128   1.439   3.963  15.220 -2.0012 -2.2262 -0.9407
    9DOPE   H7Y 1129   1.262   4.010  15.181  0.0624  0.0690  3.1004
    9DOPE   C38 1130   1.416   4.072  15.040 -0.3173  0.3467  0.1924
    9DOPE   H8X 1131   1.446   3.978  14.990 -0.6951 -0.8697  2.1479
    9DOPE   H8Y 1132   1.500   4.144  15.053  0.8290 -1.0965  1.2611
    9DOPE   C39 1133   1.315   4.147  14.952 -0.0735  0.2190  0.3096
    9DOPE   H9X 1134   1.221   4.171  15.002  0.2598  1.2017  0.4877
    9DOPE  C310 1135   1.334   4.196  14.824  0.1807 -0.6940  0.1953
    9DOPE  H10X 1136   1.251   4.259  14.787 -0.8404  0.0261  3.4092
    9DOPE  C311 1137   1.458   4.184  14.742 -0.1013  0.0202 -0.0460
    9DOPE  H11X 1138   1.492   4.289  14.726  2.0914 -0.5928  0.2275
    9DOPE  H11Y 1139   1.535   4.136  14.806 -1.7544 -0.1624  1.8972
    9DOPE  C312 1140   1.439   4.097  14.616 -0.6612 -0.5579 -0.9894
    9DOPE  H12X 1141   1.533   4.098  14.558 -0.6858  0.4841 -1.0269
    9DOPE  H12Y 1142   1.369   4.142  14.542  0.4908  0.3752 -1.5452
    9DOPE  C313 1143   1.420   3.946  14.654 -0.1824 -0.4313  0.3247
    9DOPE  H13X 1144   1.501   3.899  14.715  0.3417  1.0371  0.8059
    9DOPE  H13Y 1145   1.327   3.936  14.714  1.4967 -1.7796  2.8805
    9DOPE  C314 1146   1.405   3.851  14.532 -0.3475 -0.1142  0.4769
    9DOPE  H14X 1147   1.509   3.852  14.492 -0.7194  2.0562 -0.5766
    9DOPE  H14Y 1148   1.345   3.905  14.455  0.1365 -1.1202 -0.6544
    9DOPE  C315 1149   1.344   3.714  14.568 -0.3570  0.2072 -0.9246
    9DOPE  H15X 1150   1.240   3.731  14.604 -0.1477 -1.3506  0.5176
    9DOPE  H15Y 1151   1.387   3.673  14.662  1.2610  2.7769 -0.4385
    9DOPE  C316 1152   1.344   3.612  14.459 -0.4230  0.1578  0.2099
    9DOPE  H16X 1153   1.443   3.579  14.421 -0.6927  0.9883 -1.2967
    9DOPE  H16Y 1154   1.294   3.653  14.368  0.9416  1.1087 -0.1476
    9DOPE  C317 1155   1.278   3.481  14.507 -0.6428  0.2675  0.0313
    9DOPE  H17X 1156   1.341   3.443  14.590  2.7257  0.9114 -2.0535
    9DOPE  H17Y 1157   1.172   3.489  14.541 -0.6258  1.5372 -0.1531
    9DOPE  C318 1158   1.281   3.374  14.397  0.1769  0.1829  0.2638
    9DOPE  H18X 1159   1.378   3.319  14.395 -0.0671 -0.3148  1.2352
    9DOPE  H18Y 1160   1.201   3.299  14.417 -1.8483  1.6649 -1.7721
    9DOPE  H18Z 1161   1.273   3.414  14.294  0.4042  0.7534  0.4670
   10DOPE     N 1162   1.524   6.359  16.346  0.2580 -0.8247  0.1543
   10DOPE   HN1 1163   1.577   6.331  16.432  0.9070  0.7169  0.3019
   10DOPE   HN2 1164   1.483   6.454  16.359  2.6064  0.1173  1.4321
   10DOPE   HN3 1165   1.452   6.285  16.342 -1.8442  1.1358 -1.2002
   10DOPE   C12 1166   1.615   6.366  16.227 -0.1366 -0.3796  0.6744
   10DOPE  H12A 1167   1.687   6.449  16.239 -0.5599 -0.1274  1.5207
   10DOPE  H12B 1168   1.552   6.395  16.140  0.0661  0.0392  0.6672
   10DOPE   C11 1169   1.674   6.226  16.202  0.6877  0.1610 -0.2900
   10DOPE  H11A 1170   1.690   6.200  16.095  0.8566  0.2446 -0.2867
   10DOPE  H11B 1171   1.594   6.156  16.236 -1.6397  2.0386 -1.6201
   10DOPE     P 1172   1.841   6.047  16.292  0.3114 -0.1339  0.0255
   10DOPE   O13 1173   1.735   5.969  16.353 -0.1546 -0.8810 -0.4327
   10DOPE   O14 1174   1.974   6.039  16.361 -0.3325 -0.0476 -0.9514
   10DOPE   O11 1175   1.862   6.010  16.132  0.0024 -0.1406 -0.6246
   10DOPE   O12 1176   1.798   6.196  16.278  0.5729 -0.3245  0.7859
   10DOPE    C1 1177   1.761   5.937  16.061 -0.2674  0.8287 -0.9654
   10DOPE    HA 1178   1.784   5.953  15.954  1.0948 -0.7467 -0.9430
   10DOPE    HB 1179   1.666   5.988  16.087 -1.6159 -1.3218 -1.4471
   10DOPE    C2 1180   1.769   5.782  16.094 -0.0500 -0.2670 -0.0293
   10DOPE    HS 1181   1.791   5.768  16.202  2.5050  2.2105 -0.1099
   10DOPE   O21 1182   1.876   5.734  16.007  0.2321  0.4190 -0.7490
   10DOPE   C21 1183   1.903   5.607  16.010  0.0545 -0.7321 -0.4919
   10DOPE   O22 1184   1.847   5.526  16.085 -0.0984 -0.0501 -0.4192
   10DOPE   C22 1185   2.001   5.569  15.904 -0.3645  0.4621 -0.2703
   10DOPE   H2R 1186   2.100   5.551  15.949 -1.8263 -1.3750  2.5107
   10DOPE   H2S 1187   2.003   5.651  15.829  0.5723 -0.1442 -0.9287
   10DOPE    C3 1188   1.624   5.721  16.086 -0.3108 -0.0857  0.4895
   10DOPE    HX 1189   1.558   5.798  16.133 -2.5543  0.1803 -2.8166
   10DOPE    HY 1190   1.629   5.633  16.154 -0.6337  0.5530  1.3661
   10DOPE   O31 1191   1.591   5.687  15.950  0.1874 -0.3392 -0.4567
   10DOPE   C31 1192   1.548   5.566  15.921  0.3519 -0.4283 -0.8988
   10DOPE   O32 1193   1.515   5.485  16.003 -0.0974 -0.2106 -0.1853
   10DOPE   C32 1194   1.570   5.559  15.773 -0.7371  1.2097 -0.2010
   10DOPE   H2X 1195   1.552   5.657  15.722 -0.4378  1.4815  0.2080
   10DOPE   H2Y 1196   1.675   5.539  15.744 -1.8395 -1.4447 -2.8892
   10DOPE   C23 1197   1.947   5.444  15.824 -0.2130  0.3317 -0.2568
   10DOPE   H3R 1198   1.845   5.462  15.784 -0.7349 -2.4820 -0.3679
   10DOPE   H3S 1199   1.937   5.351  15.883 -0.7202  0.3534 -0.3075
   10DOPE   C24 1200   2.024   5.418  15.694  0.1549  0.5717  0.5842
   10DOPE   H4R 1201   2.132   5.393  15.703  0.4540  0.8233 -1.6855
   10DOPE   H4S 1202   2.020   5.512  15.634  1.0807 -0.2653 -0.8573
   10DOPE   C25 1203   1.957   5.318  15.593  0.5993 -1.1715  0.1901
   10DOPE   H5R 1204   1.861   5.362  15.556  0.2155  0.1715  2.5604
   10DOPE   H5S 1205   1.930   5.229  15.653 -1.8919  0.4303  1.6578
   10DOPE   C26 1206   2.055   5.271  15.477 -0.0219 -0.2749 -0.8664
   10DOPE   H6R 1207   2.141   5.215  15.520 -0.7334 -0.7355  0.0016
   10DOPE   H6S 1208   2.094   5.365  15.431 -1.8393  0.7699 -0.3982
   10DOPE   C27 1209   1.980   5.176  15.381  0.2381  0.2327 -0.4049
   10DOPE   H7R 1210   1.883   5.219  15.348 -1.6184 -0.9214  3.0704
   10DOPE   H7S 1211   1.949   5.092  15.448  0.5973 -1.6763 -2.5183
   10DOPE   C28 1212   2.063   5.131  15.258 -0.6964  0.9782 -0.4856
   10DOPE   H8R 1213   2.020   5.046  15.201  2.6687 -1.8466  0.8366
   10DOPE   H8S 1214   2.157   5.083  15.293 -1.8012 -0.7066  0.3099
   10DOPE   C29 1215   2.086   5.240  15.159  0.4459 -0.7270 -0.3822
   10DOPE   H9R 1216   2.103   5.342  15.197  0.4047 -0.6717 -0.5116
   10DOPE  C210 1217   2.103   5.229  15.030 -0.0128  0.5884  0.5227
   10DOPE  H10R 1218   2.125   5.317  14.969 -0.6779  0.3347 -0.0963
   10DOPE  C211 1219   2.097   5.106  14.934 -0.2963 -0.0693  0.3189
   10DOPE  H11R 1220   2.049   5.018  14.983 -1.5509 -0.4560 -1.4932
   10DOPE  H11S 1221   2.198   5.079  14.897 -0.1396  0.5482  0.2895
   10DOPE  C212 1222   2.006   5.135  14.814 -0.7232 -0.3237  0.3681
   10DOPE  H12R 1223   2.030   5.235  14.770  2.1288 -0.3440  1.6862
   10DOPE  H12S 1224   1.901   5.131  14.852  0.1341 -1.5751  2.8112
   10DOPE  C213 1225   2.019   5.030  14.704  0.4314 -0.2241 -0.2143
   10DOPE  H13R 1226   2.020   4.932  14.756 -0.5993 -0.6533 -0.9599
   10DOPE  H13S 1227   2.116   5.039  14.651 -0.0682  3.8969 -0.7061
   10DOPE  C214 1228   1.916   5.032  14.586  0.4779 -0.1575 -0.3481
   10DOPE  H14R 1229   1.850   5.121  14.579 -0.9263 -1.1947 -0.8516
   10DOPE  H14S 1230   1.844   4.950  14.608 -1.5825  1.6870  0.0973
   10DOPE  C215 1231   1.975   5.003  14.448 -0.4125 -0.5200 -0.0732
   10DOPE  H15R 1232   2.040   4.913  14.454  1.9538  1.1649  3.3043
   10DOPE  H15S 1233   2.047   5.086  14.429  0.2649 -1.0463  0.1180
   10DOPE  C216 1234   1.872   4.975  14.342 -0.3508  0.0273  0.6560
   10DOPE  H16R 1235   1.811   4.891  14.380 -0.3572 -0.3370 -0.1526
   10DOPE  H16S 1236   1.928   4.940  14.253 -0.1780 -0.0867  0.8081
   10DOPE  C217 1237   1.788   5.090  14.295  0.1370 -0.2531  0.9209
   10DOPE  H17R 1238   1.844   5.173  14.247 -1.4695 -0.0069 -0.6584
   10DOPE  H17S 1239   1.729   5.139  14.375  1.8984  2.0447  0.9064
   10DOPE  C218 1240   1.682   5.043  14.190  0.0999  0.3896  0.7413
   10DOPE  H18R 1241   1.729   5.040  14.090 -1.4689  1.9105 -0.0932
   10DOPE  H18S 1242   1.595   5.111  14.176  0.1401  0.0266 -1.8439
   10DOPE  H18T 1243   1.640   4.942  14.210  0.7523  0.4080  2.3581
   10DOPE   C33 1244   1.476   5.449  15.717 -0.8155 -0.0955  0.0751
   10DOPE   H3X 1245   1.444   5.476  15.614  0.8708 -0.4392 -0.5714
   10DOPE   H3Y 1246   1.392   5.429  15.787 -0.4885  0.1230  0.5327
   10DOPE   C34 1247   1.552   5.317  15.696 -0.1186  0.4340  0.0792
   10DOPE   H4X 1248   1.652   5.344  15.656 -0.3907  1.6535  0.1706
   10DOPE   H4Y 1249   1.582   5.268  15.792 -1.3511 -2.2358 -0.8032
   10DOPE   C35 1250   1.487   5.217  15.597  1.3622 -0.3266 -0.6168
   10DOPE   H5X 1251   1.378   5.236  15.597  1.3060 -0.6139  0.1575
   10DOPE   H5Y 1252   1.501   5.113  15.634  1.4647 -0.5745 -1.3329
   10DOPE   C36 1253   1.541   5.223  15.452  0.1169 -0.1776  0.4298
   10DOPE   H6X 1254   1.645   5.184  15.454 -0.6559 -2.4422  0.1729
   10DOPE   H6Y 1255   1.535   5.330  15.422  0.9590 -0.3807 -0.5050
   10DOPE   C37 1256   1.460   5.144  15.345  0.4500  0.0370  0.0451
   10DOPE   H7X 1257   1.463   5.035  15.370  0.8049 -0.1226 -0.6810
   10DOPE   H7Y 1258   1.354   5.174  15.359  0.7920  0.5715  1.6960
   10DOPE   C38 1259   1.480   5.177  15.195 -0.4292 -0.9298  0.1574
   10DOPE   H8X 1260   1.457   5.285  15.183  0.2817 -1.0172 -2.6472
   10DOPE   H8Y 1261   1.407   5.115  15.139 -0.4525  0.4080 -1.3729
   10DOPE   C39 1262   1.618   5.136  15.158 -0.4366 -0.3497 -0.1057
   10DOPE   H9X 1263   1.636   5.031  15.188 -0.9347 -0.3418  0.2418
   10DOPE  C310 1264   1.709   5.207  15.092  0.6309 -0.2736 -0.6668
   10DOPE  H10X 1265   1.813   5.176  15.075  1.3810 -0.4943  3.3696
   10DOPE  C311 1266   1.688   5.348  15.040 -0.5684 -0.5895 -0.6340
   10DOPE  H11X 1267   1.717   5.355  14.934 -1.7054  0.6221 -0.9066
   10DOPE  H11Y 1268   1.582   5.381  15.036 -0.6876 -0.9990 -0.8943
   10DOPE  C312 1269   1.767   5.454  15.116  0.3260 -0.0013  0.2501
   10DOPE  H12X 1270   1.732   5.551  15.074 -2.5158  0.0132  2.3024
   10DOPE  H12Y 1271   1.874   5.442  15.091  0.1846  0.8174 -0.7926
   10DOPE  C313 1272   1.742   5.470  15.263  0.3930  0.2283 -0.0185
   10DOPE  H13X 1273   1.640   5.432  15.287 -0.0545  1.5402  0.2276
   10DOPE  H13Y 1274   1.825   5.429  15.323  1.5182  3.4447  0.8061
   10DOPE  C314 1275   1.743   5.621  15.301  0.2100 -1.0706 -0.3039
   10DOPE  H14X 1276   1.666   5.686  15.254  0.2063 -1.5109 -0.9168
   10DOPE  H14Y 1277   1.837   5.670  15.267 -0.2008 -0.3339 -0.3858
   10DOPE  C315 1278   1.734   5.645  15.455  0.3755 -0.1733  0.0033
   10DOPE  H15X 1279   1.792   5.562  15.501  1.8253  0.3503 -0.8090
   10DOPE  H15Y 1280   1.629   5.644  15.490 -0.1501  1.5533 -1.4177
   10DOPE  C316 1281   1.808   5.776  15.482 -0.1593  0.8307 -0.2070
   10DOPE  H16X 1282   1.766   5.853  15.414  1.2144 -0.1276 -2.2761
   10DOPE  H16Y 1283   1.908   5.761  15.436 -0.1632 -0.7007  0.2357
   10DOPE  C317 1284   1.807   5.809  15.629 -0.1952 -0.2958  0.6233
   10DOPE  H17X 1285   1.705   5.790  15.671  0.0213 -1.1260  0.7928
   10DOPE  H17Y 1286   1.885   5.745  15.675  0.5525  0.9914  1.1736
   10DOPE  C318 1287   1.848   5.953  15.657 -0.4742 -0.6026  0.0685
   10DOPE  H18X 1288   1.841   5.986  15.763 -0.7293  1.4883 -0.5392
   10DOPE  H18Y 1289   1.945   5.980  15.609 -0.1270 -2.2108 -0.1948
   10DOPE  H18Z 1290   1.775   6.018  15.604  0.5341 -0.7321 -1.5303
   11DOPE     N 1291   0.710   3.459  16.187  0.0366  0.3678  0.5877
   11DOPE   HN1 1292   0.761   3.419  16.268 -2.3055 -3.6087  0.3902
   11DOPE   HN2 1293   0.625   3.403  16.164  0.9195 -0.8450  0.1860
   11DOPE   HN3 1294   0.770   3.477  16.104 -0.2290  1.6359  0.6442
   11DOPE   C12 1295   0.659   3.591  16.221  0.6380 -0.3689 -0.5078
   11DOPE  H12A 1296   0.751   3.652  16.217  1.1231 -1.1320 -1.0323
   11DOPE  H12B 1297   0.616   3.589  16.324  1.3747  1.8484 -0.0912
   11DOPE   C11 1298   0.561   3.648  16.110  1.0300 -0.2846  0.5295
   11DOPE  H11A 1299   0.592   3.631  16.005 -1.5962 -2.5590  0.0253
   11DOPE  H11B 1300   0.557   3.758  16.124 -0.5692 -0.0564 -1.2476
   11DOPE     P 1301   0.382   3.453  16.053 -0.3039  0.3936  0.0447
   11DOPE   O13 1302   0.234   3.431  16.062  0.1374  0.4282 -0.2895
   11DOPE   O14 1303   0.471   3.353  16.113 -0.5890 -0.1072 -0.3166
   11DOPE   O11 1304   0.423   3.467  15.901 -0.1574  0.2490 -0.1740
   11DOPE   O12 1305   0.424   3.591  16.121 -0.1424 -0.0354  0.2676
   11DOPE    C1 1306   0.355   3.378  15.812 -0.7380 -0.3623  0.1733
   11DOPE    HA 1307   0.375   3.406  15.706 -1.4424  0.4467  0.2363
   11DOPE    HB 1308   0.244   3.379  15.825 -0.4820 -1.0432  2.9827
   11DOPE    C2 1309   0.400   3.230  15.813 -0.2616 -0.1119 -0.5094
   11DOPE    HS 1310   0.377   3.194  15.916  1.4100 -1.0585 -0.4300
   11DOPE   O21 1311   0.539   3.226  15.792 -0.1820  0.4238 -0.6167
   11DOPE   C21 1312   0.604   3.113  15.841  0.1507  0.0475 -0.5260
   11DOPE   O22 1313   0.543   3.019  15.888  0.6189  0.6928 -0.4533
   11DOPE   C22 1314   0.754   3.122  15.809  0.1611 -0.8377 -0.5060
   11DOPE   H2R 1315   0.806   3.026  15.833  0.1563 -0.2235  2.2516
   11DOPE   H2S 1316   0.794   3.207  15.869 -1.2332 -0.6576  0.1996
   11DOPE    C3 1317   0.332   3.146  15.703 -0.1899 -0.0148 -0.1858
   11DOPE    HX 1318   0.223   3.167  15.707 -0.5857 -1.3841 -1.9730
   11DOPE    HY 1319   0.334   3.037  15.726 -1.5433 -0.5562 -2.3494
   11DOPE   O31 1320   0.375   3.181  15.566 -0.5054  0.6786 -0.2913
   11DOPE   C31 1321   0.459   3.097  15.502  0.2176  0.2221  0.0272
   11DOPE   O32 1322   0.488   2.983  15.534  0.1107  0.0494  0.4386
   11DOPE   C32 1323   0.523   3.182  15.389 -1.0111  0.0809 -0.0711
   11DOPE   H2X 1324   0.444   3.243  15.340  0.1318  1.7902  0.1275
   11DOPE   H2Y 1325   0.606   3.238  15.436  0.5549 -1.7705 -0.4823
   11DOPE   C23 1326   0.786   3.149  15.661 -0.1818  0.0427  0.0154
   11DOPE   H3R 1327   0.759   3.250  15.624  0.0203  1.1583  2.6821
   11DOPE   H3S 1328   0.743   3.067  15.600  2.0053 -1.0158 -0.2221
   11DOPE   C24 1329   0.937   3.142  15.647  0.0494  0.7400  0.9226
   11DOPE   H4R 1330   0.984   3.048  15.683  0.4654  0.9560  0.9491
   11DOPE   H4S 1331   0.982   3.227  15.703 -0.2810  0.3773  1.7551
   11DOPE   C25 1332   0.979   3.152  15.504 -0.2521  0.4227  0.3292
   11DOPE   H5R 1333   0.946   3.253  15.471 -0.0912  0.1216 -0.7960
   11DOPE   H5S 1334   0.940   3.063  15.450 -1.0021 -0.8820  2.8572
   11DOPE   C26 1335   1.133   3.156  15.487 -0.6748  0.2614 -0.0779
   11DOPE   H6R 1336   1.172   3.053  15.475  0.1440  0.4042  1.2554
   11DOPE   H6S 1337   1.180   3.192  15.581 -1.9526 -2.9383  1.9596
   11DOPE   C27 1338   1.174   3.249  15.367  0.8205  0.6907 -0.1784
   11DOPE   H7R 1339   1.283   3.265  15.361  0.7808  0.5375 -1.7805
   11DOPE   H7S 1340   1.131   3.350  15.383  1.3776  0.6913  1.5592
   11DOPE   C28 1341   1.113   3.201  15.235  0.1880 -1.2018 -0.0422
   11DOPE   H8R 1342   1.004   3.185  15.248 -0.2860  1.7677  0.3173
   11DOPE   H8S 1343   1.158   3.104  15.204  0.2647 -0.8759 -0.9919
   11DOPE   C29 1344   1.111   3.311  15.128  0.2954 -0.0328  0.1145
   11DOPE   H9R 1345   1.102   3.413  15.168 -0.7349 -0.9326  2.3078
   11DOPE  C210 1346   1.120   3.294  14.993  1.2285 -0.8071  0.0392
   11DOPE  H10R 1347   1.111   3.379  14.924 -1.2021  0.3502  1.6319
   11DOPE  C211 1348   1.131   3.148  14.941  0.3025  0.2530  0.1408
   11DOPE  H11R 1349   1.069   3.131  14.850  1.9231 -0.0756 -0.9534
   11DOPE  H11S 1350   1.087   3.076  15.013 -1.9729  0.3946 -1.0178
   11DOPE  C212 1351   1.271   3.105  14.895 -0.3154  0.2582  0.0322
   11DOPE  H12R 1352   1.277   2.997  14.871 -0.0530  0.5073 -1.0695
   11DOPE  H12S 1353   1.352   3.129  14.967 -1.1156 -1.3404  1.5562
   11DOPE  C213 1354   1.295   3.183  14.763  0.2907 -0.2142  0.3161
   11DOPE  H13R 1355   1.285   3.292  14.784  2.5459  0.1532 -0.2367
   11DOPE  H13S 1356   1.231   3.151  14.678  0.7808 -0.7656  0.1506
   11DOPE  C214 1357   1.437   3.160  14.713  0.0809 -0.6494  0.5648
   11DOPE  H14R 1358   1.505   3.184  14.798  1.0185  0.5525 -0.4819
   11DOPE  H14S 1359   1.454   3.240  14.638 -0.4604 -3.1262 -2.3786
   11DOPE  C215 1360   1.465   3.017  14.656  0.7144  0.7799  0.2649
   11DOPE  H15R 1361   1.391   2.980  14.582 -0.8105  3.5708  0.3072
   11DOPE  H15S 1362   1.461   2.945  14.741  1.5400  0.1047 -0.2396
   11DOPE  C216 1363   1.603   2.996  14.587  0.6411 -0.3564  0.3014
   11DOPE  H16R 1364   1.614   2.890  14.557 -0.5232 -0.8503  1.5456
   11DOPE  H16S 1365   1.685   3.023  14.658 -1.5596 -0.3206  2.9780
   11DOPE  C217 1366   1.623   3.071  14.446 -0.0319 -0.3157  0.0648
   11DOPE  H17R 1367   1.617   3.180  14.468  4.4370 -0.1943  1.5318
   11DOPE  H17S 1368   1.548   3.062  14.365 -0.7772  2.2145  0.3640
   11DOPE  C218 1369   1.762   3.031  14.394  0.2416 -0.5336  0.2662
   11DOPE  H18R 1370   1.830   3.045  14.480  0.7726  1.7234 -0.4553
   11DOPE  H18S 1371   1.784   3.097  14.308 -1.2673 -1.6265 -1.0247
   11DOPE  H18T 1372   1.768   2.925  14.360  1.1839  0.0461 -1.4819
   11DOPE   C33 1373   0.588   3.089  15.283 -0.4363 -0.0152 -0.0401
   11DOPE   H3X 1374   0.514   3.053  15.207 -1.2352  0.7946  0.3364
   11DOPE   H3Y 1375   0.621   3.002  15.344 -0.8423  0.4390  0.8424
   11DOPE   C34 1376   0.713   3.150  15.216  0.1167  0.7113 -0.1146
   11DOPE   H4X 1377   0.758   3.223  15.288  0.9841  1.3167 -1.2394
   11DOPE   H4Y 1378   0.793   3.073  15.212  0.4131  0.9766  0.4582
   11DOPE   C35 1379   0.680   3.209  15.082 -0.0876 -0.3212  0.4215
   11DOPE   H5X 1380   0.779   3.252  15.055 -0.1190  0.2327  1.1406
   11DOPE   H5Y 1381   0.607   3.292  15.089  1.4805  1.1852 -0.2093
   11DOPE   C36 1382   0.645   3.113  14.964  0.1110 -0.2488  0.3144
   11DOPE   H6X 1383   0.544   3.069  14.974 -0.5416  0.8526 -0.9764
   11DOPE   H6Y 1384   0.724   3.035  14.959 -0.3898 -0.7789  0.5850
   11DOPE   C37 1385   0.646   3.191  14.830  0.4251  0.4026 -0.0066
   11DOPE   H7X 1386   0.600   3.290  14.850 -1.8732 -0.6442  0.1749
   11DOPE   H7Y 1387   0.749   3.192  14.789 -0.3870 -0.5582 -2.2372
   11DOPE   C38 1388   0.561   3.122  14.717  0.0010  0.1460  0.6290
   11DOPE   H8X 1389   0.465   3.099  14.768  0.1115 -0.3336  0.6228
   11DOPE   H8Y 1390   0.610   3.025  14.696  1.6694  1.5081 -2.4151
   11DOPE   C39 1391   0.546   3.212  14.596  0.0706 -0.4101 -0.1073
   11DOPE   H9X 1392   0.641   3.253  14.560 -0.2563  0.3576 -0.1106
   11DOPE  C310 1393   0.430   3.268  14.550  0.0453 -0.4540 -0.0785
   11DOPE  H10X 1394   0.442   3.337  14.465 -0.9907  0.5887  0.5831
   11DOPE  C311 1395   0.290   3.253  14.612  0.4220 -0.6759  0.7820
   11DOPE  H11X 1396   0.234   3.166  14.573  1.5658 -1.0126 -0.1789
   11DOPE  H11Y 1397   0.296   3.251  14.723  0.8147  2.7700  0.9457
   11DOPE  C312 1398   0.208   3.387  14.587  0.3494  0.3979 -0.1522
   11DOPE  H12X 1399   0.267   3.475  14.621  3.3135 -1.6692  0.4461
   11DOPE  H12Y 1400   0.117   3.388  14.651  1.5455 -0.5133  1.6446
   11DOPE  C313 1401   0.161   3.407  14.440  0.5878 -0.6870  0.2523
   11DOPE  H13X 1402   0.248   3.404  14.371 -2.0175 -0.9097 -3.2911
   11DOPE  H13Y 1403   0.102   3.325  14.392 -0.4478  1.2563 -2.0095
   11DOPE  C314 1404   0.072   3.527  14.417  0.2250 -0.0749  0.3695
   11DOPE  H14X 1405   0.115   3.627  14.441  1.1104 -0.8106  2.0592
   11DOPE  H14Y 1406  -0.022   3.515  14.476 -0.3749  0.1944 -0.5185
   11DOPE  C315 1407   0.018   3.533  14.267 -0.0579 -0.6356  0.6077
   11DOPE  H15X 1408  -0.039   3.440  14.247 -1.6200  0.6493 -1.2248
   11DOPE  H15Y 1409   0.102   3.543  14.195 -1.0325  0.5634 -0.4026
   11DOPE  C316 1410  -0.079   3.645  14.241 -0.5042  0.2046  0.2172
   11DOPE  H16X 1411  -0.023   3.740  14.229  0.7408 -0.6730 -1.4017
   11DOPE  H16Y 1412  -0.155   3.652  14.322 -0.6494 -2.4650  0.3983
   11DOPE  C317 1413  -0.154   3.640  14.111 -0.1885 -0.2202  0.2683
   11DOPE  H17X 1414  -0.093   3.630  14.019  1.4154  0.2298  1.2382
   11DOPE  H17Y 1415  -0.227   3.557  14.105 -0.6045  0.1885 -0.6183
   11DOPE  C318 1416  -0.229   3.787  14.094 -0.5771  0.0584 -0.3975
   11DOPE  H18X 1417  -0.156   3.869  14.107 -0.6944 -0.1477  1.8135
   11DOPE  H18Y 1418  -0.273   3.793  13.992 -0.3183  1.1645 -0.4506
   11DOPE  H18Z 1419  -0.308   3.805  14.169 -0.2249  3.0620 -0.6339
   12DOPE     N 1420   2.738   6.761  16.056  0.5366  0.0916 -0.3937
   12DOPE   HN1 1421   2.664   6.742  15.986  0.9344 -1.7793 -0.3533
   12DOPE   HN2 1422   2.724   6.687  16.128 -2.4715  1.4816  0.6166
   12DOPE   HN3 1423   2.713   6.855  16.093 -0.3888 -0.5190  0.6073
   12DOPE   C12 1424   2.877   6.759  16.005 -0.3891 -0.0832 -0.1653
   12DOPE  H12A 1425   2.952   6.786  16.082  1.5816  0.6486 -2.2264
   12DOPE  H12B 1426   2.876   6.817  15.910 -1.1817  0.2431  0.0265
   12DOPE   C11 1427   2.917   6.614  15.977  0.0845 -0.0092 -0.4182
   12DOPE  H11A 1428   2.873   6.583  15.880  0.3971 -1.3485 -0.1515
   12DOPE  H11B 1429   2.885   6.539  16.053 -0.7258  0.0401 -0.6988
   12DOPE     P 1430   3.151   6.531  16.031  0.1216  0.4519 -0.2568
   12DOPE   O13 1431   3.108   6.390  16.015  0.0820 -0.2564  0.2611
   12DOPE   O14 1432   3.169   6.579  16.168  0.0157  0.1806 -0.1855
   12DOPE   O11 1433   3.288   6.547  15.962  0.2609  0.2076 -0.6219
   12DOPE   O12 1434   3.052   6.617  15.957  0.2966 -0.1061  0.2749
   12DOPE    C1 1435   3.338   6.677  15.938 -0.5888 -0.1433 -0.0936
   12DOPE    HA 1436   3.433   6.697  15.991  0.6177 -1.3823 -1.6961
   12DOPE    HB 1437   3.267   6.758  15.966 -0.6832  0.4968 -2.0366
   12DOPE    C2 1438   3.364   6.700  15.790 -1.1191 -0.9999  0.1047
   12DOPE    HS 1439   3.389   6.809  15.786  0.4696 -1.3661 -0.3778
   12DOPE   O21 1440   3.254   6.670  15.706 -0.1604 -0.4693  0.3510
   12DOPE   C21 1441   3.150   6.749  15.721  0.1799  0.0388  0.1065
   12DOPE   O22 1442   3.149   6.857  15.785 -0.2212  0.2727 -0.0240
   12DOPE   C22 1443   3.029   6.693  15.634 -0.1031  0.6360  0.2669
   12DOPE   H2R 1444   2.965   6.784  15.633 -0.9252  0.1496  2.3540
   12DOPE   H2S 1445   2.993   6.606  15.694  2.9851 -1.0757 -0.1799
   12DOPE    C3 1446   3.493   6.622  15.740 -0.0830 -0.4520 -0.4284
   12DOPE    HX 1447   3.479   6.515  15.769 -0.9863 -0.2737 -0.1744
   12DOPE    HY 1448   3.575   6.666  15.802  0.2823  1.7401 -2.3490
   12DOPE   O31 1449   3.531   6.623  15.603  0.0921  0.2882  0.1633
   12DOPE   C31 1450   3.567   6.731  15.552  0.2697 -1.1263 -0.5052
   12DOPE   O32 1451   3.580   6.841  15.610  1.1703 -0.0547  0.7407
   12DOPE   C32 1452   3.587   6.707  15.401 -0.3812  0.4730  0.2083
   12DOPE   H2X 1453   3.585   6.804  15.346 -0.6936 -0.4857 -1.5362
   12DOPE   H2Y 1454   3.687   6.661  15.386 -1.9350 -3.0985  0.0060
   12DOPE   C23 1455   3.066   6.655  15.491  0.6065  0.0538 -0.4043
   12DOPE   H3R 1456   3.137   6.731  15.452  0.7452  1.1539  1.8539
   12DOPE   H3S 1457   2.977   6.655  15.425 -0.2012  0.5218  0.6688
   12DOPE   C24 1458   3.123   6.511  15.484 -0.2371  0.0114  0.3123
   12DOPE   H4R 1459   3.070   6.439  15.550 -0.5306 -1.0028 -0.9917
   12DOPE   H4S 1460   3.233   6.505  15.496 -0.3729 -0.8497  1.2578
   12DOPE   C25 1461   3.110   6.455  15.339  0.6348 -0.3628 -0.0995
   12DOPE   H5R 1462   3.178   6.515  15.275  2.4336 -1.8858  0.2947
   12DOPE   H5S 1463   3.004   6.449  15.306  0.3749 -0.8336  0.7846
   12DOPE   C26 1464   3.145   6.304  15.321 -0.5570  0.4141 -0.0797
   12DOPE   H6R 1465   3.079   6.251  15.393  0.6429 -1.5377 -0.3238
   12DOPE   H6S 1466   3.248   6.289  15.361 -0.7165 -2.0853 -0.4679
   12DOPE   C27 1467   3.128   6.243  15.183  0.5411 -0.0766  0.5593
   12DOPE   H7R 1468   3.032   6.286  15.147  0.7091  0.6126  0.9040
   12DOPE   H7S 1469   3.107   6.134  15.183  0.2597 -0.0301 -0.4475
   12DOPE   C28 1470   3.232   6.275  15.079 -0.0659 -0.3004  0.0744
   12DOPE   H8R 1471   3.244   6.386  15.075  0.0305 -0.3269 -2.1677
   12DOPE   H8S 1472   3.192   6.240  14.981 -0.4109  1.0520 -0.2909
   12DOPE   C29 1473   3.360   6.211  15.119  0.2940 -0.1529 -0.3880
   12DOPE   H9R 1474   3.435   6.268  15.177  2.7966 -1.3867 -2.2319
   12DOPE  C210 1475   3.399   6.082  15.105 -0.6171 -0.0868  0.1474
   12DOPE  H10R 1476   3.502   6.064  15.138 -1.0234 -2.2279  0.4016
   12DOPE  C211 1477   3.327   5.963  15.046  0.3685 -0.2236 -0.0777
   12DOPE  H11R 1478   3.257   5.988  14.964 -0.4447  0.2001  0.7281
   12DOPE  H11S 1479   3.257   5.919  15.120  0.5278  1.9263  1.4429
   12DOPE  C212 1480   3.429   5.856  14.989  0.3992  0.2971  0.0576
   12DOPE  H12R 1481   3.476   5.817  15.082 -0.4464  0.1968  0.4554
   12DOPE  H12S 1482   3.510   5.904  14.930  0.3080  0.2754 -0.0850
   12DOPE  C213 1483   3.356   5.746  14.905 -0.4177  0.5482  0.1389
   12DOPE  H13R 1484   3.302   5.685  14.980  0.4486  0.5366  0.7604
   12DOPE  H13S 1485   3.445   5.688  14.873  0.0993  1.4292 -0.0467
   12DOPE  C214 1486   3.266   5.781  14.786 -0.1199  0.1222 -0.0062
   12DOPE  H14R 1487   3.180   5.838  14.828 -0.4074 -0.6684  0.4934
   12DOPE  H14S 1488   3.238   5.685  14.739 -0.0654  0.4293 -0.6697
   12DOPE  C215 1489   3.324   5.883  14.688  0.1636  0.3442 -0.5510
   12DOPE  H15R 1490   3.429   5.853  14.666  0.4008 -0.8021  1.8411
   12DOPE  H15S 1491   3.331   5.979  14.743  1.6994 -0.8926  1.5609
   12DOPE  C216 1492   3.250   5.889  14.557 -0.3422 -0.3446  0.0617
   12DOPE  H16R 1493   3.141   5.874  14.573 -0.3640 -1.1464 -0.7082
   12DOPE  H16S 1494   3.280   5.802  14.495 -0.3111  0.7694 -1.5559
   12DOPE  C217 1495   3.276   6.021  14.482 -0.1067  0.6636  0.5225
   12DOPE  H17R 1496   3.385   6.032  14.460 -0.3366 -1.7153 -2.4076
   12DOPE  H17S 1497   3.248   6.109  14.544 -0.3398  2.2077 -1.6323
   12DOPE  C218 1498   3.200   6.045  14.350  0.7220  0.5025  0.2707
   12DOPE  H18R 1499   3.092   6.021  14.363  0.9200 -1.7693 -1.7222
   12DOPE  H18S 1500   3.242   5.976  14.274 -0.4000 -0.7682  0.7717
   12DOPE  H18T 1501   3.225   6.150  14.322 -2.0575  0.5491 -2.5443
   12DOPE   C33 1502   3.492   6.608  15.332  0.0791  0.3812 -0.0353
   12DOPE   H3X 1503   3.391   6.647  15.355  0.2990  0.0711  1.6019
   12DOPE   H3Y 1504   3.503   6.508  15.379  1.7674  0.0058 -1.1159
   12DOPE   C34 1505   3.513   6.582  15.182  0.0999 -0.3952  0.1775
   12DOPE   H4X 1506   3.620   6.578  15.154 -0.3398  0.2510 -1.6930
   12DOPE   H4Y 1507   3.462   6.486  15.159 -0.3762 -0.2589  0.6258
   12DOPE   C35 1508   3.463   6.704  15.088  0.9545 -0.4560 -0.1113
   12DOPE   H5X 1509   3.507   6.800  15.123 -0.9981  0.4413  0.0524
   12DOPE   H5Y 1510   3.356   6.726  15.111  0.5758  1.4910 -3.0992
   12DOPE   C36 1511   3.490   6.665  14.945 -0.4531  0.0609  0.2163
   12DOPE   H6X 1512   3.430   6.574  14.925 -0.2926 -0.1042  0.4808
   12DOPE   H6Y 1513   3.596   6.631  14.938 -0.5794 -0.8623  2.1100
   12DOPE   C37 1514   3.442   6.778  14.847 -0.9276  0.4702  0.2019
   12DOPE   H7X 1515   3.419   6.748  14.742  1.0731  2.4619 -0.9021
   12DOPE   H7Y 1516   3.351   6.819  14.895 -0.2732  0.6616  1.3098
   12DOPE   C38 1517   3.551   6.884  14.829 -0.2972  0.5243 -0.7680
   12DOPE   H8X 1518   3.648   6.829  14.825 -1.3834 -1.4689 -0.8404
   12DOPE   H8Y 1519   3.541   6.944  14.922 -3.7916  0.3763 -0.9110
   12DOPE   C39 1520   3.525   6.976  14.712  0.4716 -0.1652  0.7017
   12DOPE   H9X 1521   3.464   7.066  14.731 -0.2025 -0.2832 -0.7724
   12DOPE  C310 1522   3.599   6.967  14.602 -0.2724  0.7450 -0.4200
   12DOPE  H10X 1523   3.578   7.046  14.528 -0.7719  1.7866  0.7810
   12DOPE  C311 1524   3.710   6.869  14.580 -0.0626 -0.2255 -0.5075
   12DOPE  H11X 1525   3.783   6.913  14.509 -0.8885 -0.6059 -1.6152
   12DOPE  H11Y 1526   3.762   6.835  14.673  1.3273 -1.5025 -1.6991
   12DOPE  C312 1527   3.663   6.742  14.511 -0.2655 -0.0444  0.5475
   12DOPE  H12X 1528   3.657   6.773  14.405  0.4500  1.4668  0.9266
   12DOPE  H12Y 1529   3.562   6.716  14.550  1.0601 -0.1678  4.3642
   12DOPE  C313 1530   3.743   6.612  14.544  0.6472  0.7415 -0.2915
   12DOPE  H13X 1531   3.851   6.639  14.536  0.2744  1.9546 -1.5297
   12DOPE  H13Y 1532   3.721   6.580  14.648 -1.5985  0.5880 -0.7581
   12DOPE  C314 1533   3.717   6.490  14.452  0.0889  0.7630 -0.4860
   12DOPE  H14X 1534   3.620   6.447  14.485  1.2540 -0.9684  0.8944
   12DOPE  H14Y 1535   3.793   6.413  14.477  1.5742  2.0619 -0.8337
   12DOPE  C315 1536   3.741   6.514  14.298  1.3260 -0.2699  0.2086
   12DOPE  H15X 1537   3.679   6.592  14.249  1.3800 -0.4548 -0.1585
   12DOPE  H15Y 1538   3.713   6.419  14.249 -2.9194  1.1048 -0.4125
   12DOPE  C316 1539   3.882   6.560  14.267  0.1541  0.1244  0.3990
   12DOPE  H16X 1540   3.960   6.493  14.308  0.3835 -0.5771 -1.1347
   12DOPE  H16Y 1541   3.893   6.667  14.291 -0.2389  0.7576 -2.0112
   12DOPE  C317 1542   3.908   6.565  14.112  0.0283  0.6422 -0.7649
   12DOPE  H17X 1543   3.878   6.468  14.069  1.0130  0.4489 -1.0542
   12DOPE  H17Y 1544   3.851   6.655  14.080 -1.0278 -0.4263 -1.9583
   12DOPE  C318 1545   4.048   6.597  14.082  0.2384  0.2502  0.3949
   12DOPE  H18X 1546   4.074   6.697  14.123 -1.6934  0.7557  0.4653
   12DOPE  H18Y 1547   4.121   6.523  14.121 -0.7573 -0.6344  0.5892
   12DOPE  H18Z 1548   4.072   6.598  13.973 -0.1387 -0.7084  0.2960
   13DOPE     N 1549   2.496   0.920  16.235  0.5990  0.1494  0.1917
   13DOPE   HN1 1550   2.586   0.952  16.275  0.0057  0.4458  1.3102
   13DOPE   HN2 1551   2.421   0.947  16.301 -1.3512 -1.2487 -1.3307
   13DOPE   HN3 1552   2.496   0.818  16.217 -0.6139  0.2356 -0.4037
   13DOPE   C12 1553   2.475   0.984  16.102  0.1749  0.1486 -0.0558
   13DOPE  H12A 1554   2.378   0.949  16.059  1.2802 -2.7057 -0.4981
   13DOPE  H12B 1555   2.561   0.945  16.043 -0.5565 -0.9046 -0.4787
   13DOPE   C11 1556   2.463   1.133  16.130 -0.0135  0.9106 -0.0431
   13DOPE  H11A 1557   2.357   1.159  16.154  0.1633 -0.9728  3.4372
   13DOPE  H11B 1558   2.482   1.186  16.034 -0.4655  1.0734 -0.0456
   13DOPE     P 1559   2.699   1.237  16.194 -0.0517 -0.0696  0.2060
   13DOPE   O13 1560   2.773   1.121  16.134  0.0460 -0.1392 -0.6969
   13DOPE   O14 1561   2.765   1.305  16.309 -0.0832 -0.0177 -0.2595
   13DOPE   O11 1562   2.651   1.330  16.081  0.1749 -0.3960 -0.1160
   13DOPE   O12 1563   2.552   1.182  16.235  0.5887  0.1103 -0.3161
   13DOPE    C1 1564   2.735   1.399  15.988 -0.0209  0.6133 -0.0498
   13DOPE    HA 1565   2.838   1.357  15.991 -0.0431  0.5301 -0.4125
   13DOPE    HB 1566   2.743   1.499  16.035 -0.5165  0.2263  0.8913
   13DOPE    C2 1567   2.688   1.397  15.841 -0.3857  0.2373  0.2372
   13DOPE    HS 1568   2.725   1.484  15.784  1.2334  0.0148  0.9053
   13DOPE   O21 1569   2.544   1.390  15.831  0.2202 -0.4532  0.1626
   13DOPE   C21 1570   2.495   1.508  15.865  0.2768 -0.2984 -0.8208
   13DOPE   O22 1571   2.556   1.610  15.889  0.3857  0.2764  0.1785
   13DOPE   C22 1572   2.345   1.495  15.906 -0.2127 -0.3342  0.0401
   13DOPE   H2R 1573   2.327   1.545  16.003 -3.4982 -1.9311  0.3603
   13DOPE   H2S 1574   2.335   1.386  15.928 -2.0185 -0.0498  0.7487
   13DOPE    C3 1575   2.742   1.269  15.770 -0.4796  0.5687  0.4902
   13DOPE    HX 1576   2.713   1.177  15.825  1.0976 -1.2191 -1.5257
   13DOPE    HY 1577   2.852   1.281  15.766 -0.6089  1.6713 -2.7921
   13DOPE   O31 1578   2.707   1.257  15.630  0.1505 -0.2420  0.0028
   13DOPE   C31 1579   2.588   1.200  15.606 -0.7258 -0.1896 -0.1844
   13DOPE   O32 1580   2.519   1.149  15.699  0.0326  0.0810 -0.1362
   13DOPE   C32 1581   2.555   1.197  15.459  0.0736  0.2099 -0.8941
   13DOPE   H2X 1582   2.549   1.295  15.407  0.7275  1.0101  0.4693
   13DOPE   H2Y 1583   2.636   1.141  15.408 -0.7542 -1.9672  0.0392
   13DOPE   C23 1584   2.230   1.533  15.806 -0.0628 -0.1194  0.0325
   13DOPE   H3R 1585   2.251   1.640  15.789  2.3803 -0.2409  1.7159
   13DOPE   H3S 1586   2.132   1.505  15.849  0.1061 -3.0083 -1.2099
   13DOPE   C24 1587   2.247   1.458  15.671 -0.7845 -0.4193 -0.1360
   13DOPE   H4R 1588   2.238   1.348  15.687 -1.7742 -0.5176 -1.2206
   13DOPE   H4S 1589   2.341   1.487  15.618 -0.4073 -0.8477  0.2919
   13DOPE   C25 1590   2.138   1.491  15.563  0.3511  0.4782 -0.0798
   13DOPE   H5R 1591   2.143   1.601  15.547 -0.8107  0.5640  0.0757
   13DOPE   H5S 1592   2.040   1.464  15.606  0.8281  0.8066  1.2616
   13DOPE   C26 1593   2.152   1.423  15.421  0.9288 -0.2066  0.0064
   13DOPE   H6R 1594   2.084   1.336  15.429  0.5615  0.1182  0.4728
   13DOPE   H6S 1595   2.260   1.402  15.406  1.3825  1.5567  0.5141
   13DOPE   C27 1596   2.090   1.514  15.313 -0.6444 -0.2690  0.4523
   13DOPE   H7R 1597   2.135   1.616  15.317 -1.0302 -0.0928  0.3806
   13DOPE   H7S 1598   1.983   1.531  15.340 -1.3348 -1.5384 -1.2595
   13DOPE   C28 1599   2.091   1.449  15.174  0.7972 -1.0949 -0.4081
   13DOPE   H8R 1600   2.004   1.492  15.121  0.0929 -2.4204 -0.3504
   13DOPE   H8S 1601   2.069   1.340  15.176 -0.2945 -0.8752  0.5673
   13DOPE   C29 1602   2.222   1.470  15.115 -0.5637 -0.1481 -0.3477
   13DOPE   H9R 1603   2.312   1.440  15.171 -0.8093  0.5440  0.4310
   13DOPE  C210 1604   2.242   1.546  15.001 -0.1402 -0.1549  0.8882
   13DOPE  H10R 1605   2.337   1.520  14.952 -0.8174 -1.8993  0.4390
   13DOPE  C211 1606   2.130   1.616  14.926 -0.4576 -0.0061 -0.1452
   13DOPE  H11R 1607   2.134   1.724  14.951 -4.3153  0.1953  0.2260
   13DOPE  H11S 1608   2.030   1.572  14.946 -0.3588 -0.2616 -0.2115
   13DOPE  C212 1609   2.149   1.618  14.770  0.6557  0.5507  0.1504
   13DOPE  H12R 1610   2.054   1.627  14.713  1.0876  1.0400 -0.5067
   13DOPE  H12S 1611   2.176   1.515  14.736 -2.6952 -0.3339 -0.2551
   13DOPE  C213 1612   2.249   1.724  14.714  0.4354  0.2199 -0.1037
   13DOPE  H13R 1613   2.345   1.695  14.763  0.9188  1.2403 -0.4217
   13DOPE  H13S 1614   2.220   1.828  14.740  4.1840  1.4484 -0.1778
   13DOPE  C214 1615   2.261   1.716  14.566 -0.3157  0.4321  0.2993
   13DOPE  H14R 1616   2.287   1.617  14.524 -0.8193 -0.1534  1.3240
   13DOPE  H14S 1617   2.343   1.783  14.533 -0.3170 -0.9668 -2.9482
   13DOPE  C215 1618   2.147   1.780  14.492 -0.4509 -0.6515  0.2718
   13DOPE  H15R 1619   2.157   1.890  14.500 -1.6857 -0.4942 -0.0800
   13DOPE  H15S 1620   2.049   1.748  14.533 -0.1942 -0.7410  0.8189
   13DOPE  C216 1621   2.138   1.759  14.335 -0.4316  0.5443 -0.2131
   13DOPE  H16R 1622   2.163   1.654  14.309 -2.7928 -0.1370  0.0007
   13DOPE  H16S 1623   2.220   1.820  14.292  2.5684 -1.4008  2.3292
   13DOPE  C217 1624   2.008   1.815  14.274  0.0988  0.7828 -0.1638
   13DOPE  H17R 1625   2.014   1.815  14.163 -0.1573  3.1220 -0.2364
   13DOPE  H17S 1626   1.997   1.921  14.305  0.4655  0.6533  0.4192
   13DOPE  C218 1627   1.887   1.733  14.314  0.2956  0.0979  0.4799
   13DOPE  H18R 1628   1.894   1.709  14.422  0.7539  0.1033  0.4523
   13DOPE  H18S 1629   1.885   1.636  14.260 -3.1243  0.4267 -0.2065
   13DOPE  H18T 1630   1.792   1.782  14.284  0.2187 -1.8048 -3.0220
   13DOPE   C33 1631   2.431   1.109  15.436  0.1957  0.3605 -0.0340
   13DOPE   H3X 1632   2.345   1.132  15.503  1.3040 -0.1164  1.6290
   13DOPE   H3Y 1633   2.458   1.002  15.452 -1.7760 -0.5921 -2.4607
   13DOPE   C34 1634   2.392   1.117  15.286 -0.2783 -0.4654 -0.4141
   13DOPE   H4X 1635   2.400   1.225  15.259  0.9155  0.1729  2.1442
   13DOPE   H4Y 1636   2.454   1.056  15.218 -0.2987  0.0577 -0.9088
   13DOPE   C35 1637   2.250   1.079  15.254  0.6906  0.3924  0.0862
   13DOPE   H5X 1638   2.187   1.150  15.312  1.0736  1.4333 -0.7633
   13DOPE   H5Y 1639   2.232   0.974  15.288  0.7599  0.2772 -0.2324
   13DOPE   C36 1640   2.226   1.100  15.105 -0.4056  0.4730  0.4938
   13DOPE   H6X 1641   2.300   1.037  15.052  0.1389  0.7288  0.9359
   13DOPE   H6Y 1642   2.246   1.203  15.069  0.7840  0.1625  0.2054
   13DOPE   C37 1643   2.085   1.051  15.066 -0.5202  0.2396  0.7181
   13DOPE   H7X 1644   2.077   0.945  15.099 -2.1913  0.6928  1.9160
   13DOPE   H7Y 1645   2.014   1.111  15.128 -1.2741  0.1233 -0.0140
   13DOPE   C38 1646   2.045   1.049  14.913 -0.4489 -0.5845 -0.2641
   13DOPE   H8X 1647   1.948   0.998  14.902 -0.3125 -0.9020 -0.0080
   13DOPE   H8Y 1648   2.124   0.998  14.853  0.8296  0.9221  0.0563
   13DOPE   C39 1649   2.008   1.193  14.889 -0.9588 -0.6220  0.6191
   13DOPE   H9X 1650   2.010   1.256  14.979  1.6179  1.6012 -0.8529
   13DOPE  C310 1651   1.985   1.258  14.772  0.0798 -0.0032  0.0563
   13DOPE  H10X 1652   1.952   1.363  14.771  0.4582  0.1161 -0.4960
   13DOPE  C311 1653   1.995   1.204  14.627  0.3313  0.0323 -0.6679
   13DOPE  H11X 1654   2.057   1.111  14.628  0.7020  0.2644  0.9128
   13DOPE  H11Y 1655   1.891   1.189  14.589  0.7870 -1.3809 -1.4629
   13DOPE  C312 1656   2.060   1.306  14.533  0.1247 -0.1279 -0.3321
   13DOPE  H12X 1657   2.162   1.328  14.573  0.2920 -1.6855  0.1586
   13DOPE  H12Y 1658   2.004   1.402  14.525  2.1557  1.0656 -0.9537
   13DOPE  C313 1659   2.070   1.260  14.388 -0.1329  0.4263 -0.4791
   13DOPE  H13X 1660   2.133   1.169  14.380 -0.9347 -0.1849  0.0106
   13DOPE  H13Y 1661   1.965   1.232  14.362 -0.2746  0.5489 -0.0410
   13DOPE  C314 1662   2.109   1.372  14.291  0.0163 -0.5224 -0.4006
   13DOPE  H14X 1663   2.160   1.451  14.351 -1.1212  0.5475 -0.7908
   13DOPE  H14Y 1664   2.010   1.409  14.256  0.4109  0.1536 -0.8407
   13DOPE  C315 1665   2.190   1.327  14.174 -0.3542 -0.1803  0.8050
   13DOPE  H15X 1666   2.285   1.287  14.215  0.7553  1.2996 -0.2230
   13DOPE  H15Y 1667   2.216   1.411  14.106 -0.7357  0.0534  0.9476
   13DOPE  C316 1668   2.123   1.222  14.088 -0.1782 -0.5179 -0.1480
   13DOPE  H16X 1669   2.129   1.125  14.141  2.3090 -0.5258 -0.3427
   13DOPE  H16Y 1670   2.183   1.219  13.994  1.4139  0.2793  0.8096
   13DOPE  C317 1671   1.971   1.251  14.041  0.1370 -1.0052 -0.3358
   13DOPE  H17X 1672   1.945   1.156  13.988  2.6575 -0.9377 -1.8376
   13DOPE  H17Y 1673   1.908   1.273  14.130 -0.9400 -0.8604 -1.1095
   13DOPE  C318 1674   1.962   1.372  13.950  0.3424  0.6039 -0.2218
   13DOPE  H18X 1675   1.913   1.344  13.854  0.0400 -2.9196  0.8264
   13DOPE  H18Y 1676   1.886   1.439  13.995 -1.1513 -2.4423  2.1896
   13DOPE  H18Z 1677   2.057   1.430  13.941  0.5539  0.0678 -1.8676
   14DOPE     N 1678   5.397   5.045  16.520  0.1467  0.3122 -0.4146
   14DOPE   HN1 1679   5.315   5.095  16.478  0.2497  1.5595  0.8127
   14DOPE   HN2 1680   5.370   5.003  16.611  0.3523 -1.4683 -1.1312
   14DOPE   HN3 1681   5.476   5.112  16.530  0.6119 -0.0732 -1.3490
   14DOPE   C12 1682   5.440   4.933  16.426 -1.3671 -0.2695 -0.0125
   14DOPE  H12A 1683   5.448   4.979  16.325  1.3127  0.2544  0.3730
   14DOPE  H12B 1684   5.370   4.848  16.417 -0.1298 -1.3443  0.2771
   14DOPE   C11 1685   5.579   4.881  16.468 -0.6807  0.0447 -0.2965
   14DOPE  H11A 1686   5.627   4.824  16.386 -1.2886 -0.9376  0.0082
   14DOPE  H11B 1687   5.555   4.810  16.550 -1.2342 -0.1957 -0.6608
   14DOPE     P 1688   5.820   4.972  16.506 -0.4910  0.4656  0.0293
   14DOPE   O13 1689   5.868   4.844  16.570  0.4115 -0.2442  0.3550
   14DOPE   O14 1690   5.880   5.099  16.552  0.1516 -0.0806  0.5292
   14DOPE   O11 1691   5.845   4.959  16.355 -0.6804  0.0357 -0.2859
   14DOPE   O12 1692   5.668   4.979  16.518 -0.0842 -0.0318  0.4336
   14DOPE    C1 1693   5.795   5.060  16.263 -0.1902 -0.6361 -0.0930
   14DOPE    HA 1694   5.809   5.163  16.303 -0.0628 -0.9974  0.8294
   14DOPE    HB 1695   5.686   5.061  16.247  0.1803 -0.1149 -3.0816
   14DOPE    C2 1696   5.870   5.059  16.128  0.1529 -0.7866 -0.4491
   14DOPE    HS 1697   5.816   5.123  16.056  0.7072 -0.0459 -0.2225
   14DOPE   O21 1698   5.876   4.917  16.089 -0.3075  0.2022  0.3687
   14DOPE   C21 1699   5.793   4.893  15.993  0.4867 -0.3640  0.2656
   14DOPE   O22 1700   5.722   4.972  15.936  0.4557  0.7832 -0.2761
   14DOPE   C22 1701   5.800   4.741  15.978 -0.3166  0.4825  0.6938
   14DOPE   H2R 1702   5.741   4.704  16.064 -0.6241  0.5030  0.4929
   14DOPE   H2S 1703   5.906   4.707  15.983 -0.3436  0.2094 -0.2973
   14DOPE    C3 1704   6.006   5.117  16.140 -0.0144  0.1087 -0.3551
   14DOPE    HX 1705   6.061   5.052  16.210 -2.2080 -0.0549  1.2951
   14DOPE    HY 1706   5.991   5.220  16.180  1.1887 -0.1938  0.9237
   14DOPE   O31 1707   6.061   5.118  16.013  0.4245  0.0528  0.0068
   14DOPE   C31 1708   6.179   5.175  16.019  0.3182  0.2732  0.6707
   14DOPE   O32 1709   6.235   5.221  16.120  0.3812 -0.2910  0.2827
   14DOPE   C32 1710   6.254   5.156  15.885 -0.8094 -0.9468  0.9538
   14DOPE   H2X 1711   6.296   5.054  15.868 -0.2005 -0.5301 -0.1039
   14DOPE   H2Y 1712   6.175   5.179  15.810  1.6859  1.4515 -1.1428
   14DOPE   C23 1713   5.728   4.680  15.854  0.9632 -1.0393 -0.9141
   14DOPE   H3R 1714   5.629   4.730  15.856  2.4141  2.0553 -0.3669
   14DOPE   H3S 1715   5.707   4.575  15.885 -1.9310 -0.7278 -1.5609
   14DOPE   C24 1716   5.808   4.682  15.725  0.1998  0.5874  0.0808
   14DOPE   H4R 1717   5.825   4.789  15.699 -0.7610  0.9727  0.9773
   14DOPE   H4S 1718   5.744   4.632  15.650  3.1545  0.5164 -2.6192
   14DOPE   C25 1719   5.934   4.601  15.740  0.6101 -0.0966 -0.6795
   14DOPE   H5R 1720   5.909   4.498  15.772 -0.8926  0.2518 -0.6651
   14DOPE   H5S 1721   6.005   4.643  15.815  0.8969 -0.1688 -0.9085
   14DOPE   C26 1722   6.010   4.582  15.611 -0.3369  0.7772 -0.3163
   14DOPE   H6R 1723   6.038   4.679  15.564  0.9104 -0.3317 -2.0284
   14DOPE   H6S 1724   5.946   4.531  15.536 -0.6098  0.8871 -0.1567
   14DOPE   C27 1725   6.133   4.494  15.636 -0.3707  0.8063 -0.0883
   14DOPE   H7R 1726   6.104   4.387  15.649 -0.7265  0.7483 -1.2651
   14DOPE   H7S 1727   6.178   4.517  15.735  0.3844  0.9967 -0.4635
   14DOPE   C28 1728   6.230   4.511  15.521 -0.4907  0.4811  0.3292
   14DOPE   H8R 1729   6.269   4.614  15.504  0.3306 -0.0073 -0.9222
   14DOPE   H8S 1730   6.163   4.488  15.436 -1.3343 -0.1116  1.1436
   14DOPE   C29 1731   6.343   4.415  15.532  0.4777 -0.5637  0.2312
   14DOPE   H9R 1732   6.380   4.395  15.633 -1.3018 -0.5616  0.9203
   14DOPE  C210 1733   6.392   4.361  15.420  0.1693 -0.3790  0.2487
   14DOPE  H10R 1734   6.484   4.301  15.433  0.9035  1.0919  2.2194
   14DOPE  C211 1735   6.348   4.380  15.279 -0.4331  0.5073 -0.4108
   14DOPE  H11R 1736   6.381   4.479  15.242  0.4807  0.3560 -0.0518
   14DOPE  H11S 1737   6.240   4.359  15.268  0.0573 -1.3355 -2.5256
   14DOPE  C212 1738   6.412   4.273  15.185 -0.0224  0.2682  0.4525
   14DOPE  H12R 1739   6.388   4.168  15.214 -3.8328  0.8953  0.0775
   14DOPE  H12S 1740   6.521   4.286  15.203 -0.1450 -0.6681  2.1008
   14DOPE  C213 1741   6.364   4.289  15.040  0.3511 -0.0219 -0.2670
   14DOPE  H13R 1742   6.259   4.325  15.035  0.2709  0.0554  1.3088
   14DOPE  H13S 1743   6.386   4.197  14.983  2.5954 -0.4235  1.1190
   14DOPE  C214 1744   6.456   4.403  14.986  0.1535  0.6214  0.2099
   14DOPE  H14R 1745   6.565   4.387  15.000  0.0567 -0.5213 -0.2540
   14DOPE  H14S 1746   6.427   4.503  15.025 -0.0142  0.9046 -0.6349
   14DOPE  C215 1747   6.459   4.408  14.832 -0.3498  0.7235  0.0490
   14DOPE  H15R 1748   6.526   4.327  14.796  0.2291  1.0519  0.3864
   14DOPE  H15S 1749   6.500   4.507  14.805  1.2895  0.7626  2.4140
   14DOPE  C216 1750   6.325   4.393  14.754  0.6754  0.3682  0.1764
   14DOPE  H16R 1751   6.252   4.467  14.794  0.0759  1.3453 -2.5325
   14DOPE  H16S 1752   6.275   4.294  14.767  0.3285  0.1654 -2.2247
   14DOPE  C217 1753   6.337   4.421  14.604 -0.1596 -0.4159  0.5782
   14DOPE  H17R 1754   6.332   4.532  14.592 -0.8437 -0.5506 -0.5145
   14DOPE  H17S 1755   6.244   4.395  14.549  0.4429 -0.5729 -0.3999
   14DOPE  C218 1756   6.456   4.365  14.534  0.1662 -0.0674  0.6751
   14DOPE  H18R 1757   6.469   4.419  14.438  0.6223 -1.7089 -0.2159
   14DOPE  H18S 1758   6.436   4.259  14.508 -1.3996  0.2657  0.3690
   14DOPE  H18T 1759   6.553   4.384  14.583  1.1094  1.5152 -1.6192
   14DOPE   C33 1760   6.370   5.253  15.859  0.2494  0.5254 -0.4511
   14DOPE   H3X 1761   6.443   5.228  15.940  0.5786 -1.5873 -1.3286
   14DOPE   H3Y 1762   6.349   5.360  15.881  0.1290  0.4401 -0.1409
   14DOPE   C34 1763   6.437   5.241  15.722  0.3067 -0.5995 -0.5512
   14DOPE   H4X 1764   6.468   5.136  15.703  1.9052 -0.1458 -0.5321
   14DOPE   H4Y 1765   6.362   5.274  15.646 -0.1870 -1.1435 -0.3059
   14DOPE   C35 1766   6.555   5.347  15.725  0.0786 -0.1292 -0.1001
   14DOPE   H5X 1767   6.649   5.300  15.760 -0.3580 -1.4742 -0.6478
   14DOPE   H5Y 1768   6.527   5.423  15.801  2.3770 -0.9748  1.6965
   14DOPE   C36 1769   6.595   5.409  15.588  0.4782  0.4184 -1.0843
   14DOPE   H6X 1770   6.656   5.500  15.606  0.7730  0.4844 -2.3387
   14DOPE   H6Y 1771   6.500   5.433  15.537 -1.2284 -1.9894  0.7483
   14DOPE   C37 1772   6.687   5.310  15.509  0.6824  0.1392 -0.3610
   14DOPE   H7X 1773   6.765   5.260  15.570  1.4292  2.5883  0.8330
   14DOPE   H7Y 1774   6.607   5.236  15.485  0.3453  0.0757  0.9097
   14DOPE   C38 1775   6.743   5.370  15.382  0.1922  0.5466 -0.2348
   14DOPE   H8X 1776   6.770   5.476  15.401 -1.9418  1.2208 -0.6689
   14DOPE   H8Y 1777   6.660   5.381  15.309  0.8059 -0.2994 -1.0762
   14DOPE   C39 1778   6.854   5.289  15.321 -0.0222  0.0533 -0.0178
   14DOPE   H9X 1779   6.947   5.285  15.381 -0.1844 -2.7612  0.1677
   14DOPE  C310 1780   6.847   5.223  15.205  0.2843  0.1684 -0.6110
   14DOPE  H10X 1781   6.936   5.174  15.162  0.7588  1.2214 -0.8557
   14DOPE  C311 1782   6.725   5.222  15.115  0.3947 -0.7736  0.2287
   14DOPE  H11X 1783   6.698   5.116  15.094  2.0970 -1.2014  0.0311
   14DOPE  H11Y 1784   6.631   5.260  15.161 -0.9544  0.4253 -3.1938
   14DOPE  C312 1785   6.739   5.301  14.988 -0.1476 -0.4153 -0.2313
   14DOPE  H12X 1786   6.797   5.393  15.011  0.4568 -0.7342 -0.4356
   14DOPE  H12Y 1787   6.640   5.334  14.951 -0.3543 -1.9094 -1.0659
   14DOPE  C313 1788   6.819   5.242  14.871 -0.5782  0.9085  0.1256
   14DOPE  H13X 1789   6.917   5.210  14.913 -1.5692 -0.8327  1.2726
   14DOPE  H13Y 1790   6.763   5.151  14.840  2.0381 -0.9549  0.5423
   14DOPE  C314 1791   6.833   5.337  14.755  0.4116 -0.2734  0.0772
   14DOPE  H14X 1792   6.910   5.289  14.692  0.5325 -1.3148  0.9923
   14DOPE  H14Y 1793   6.859   5.441  14.782 -1.5937  0.5918 -1.0853
   14DOPE  C315 1794   6.701   5.356  14.675  0.3689  0.1033 -0.7549
   14DOPE  H15X 1795   6.709   5.457  14.630 -0.5197  0.0942 -0.9391
   14DOPE  H15Y 1796   6.618   5.356  14.749  2.6980 -2.4435  2.1303
   14DOPE  C316 1797   6.660   5.251  14.572 -0.5861 -0.1302  0.5446
   14DOPE  H16X 1798   6.644   5.155  14.625 -0.1152 -0.2271  0.5126
   14DOPE  H16Y 1799   6.745   5.239  14.500 -0.0680 -2.6595  1.4702
   14DOPE  C317 1800   6.521   5.275  14.503  0.4375  0.3643  0.4011
   14DOPE  H17X 1801   6.455   5.321  14.581 -1.9196 -1.9861 -0.0414
   14DOPE  H17Y 1802   6.544   5.346  14.421 -0.1066 -1.8307 -1.7364
   14DOPE  C318 1803   6.453   5.148  14.451 -0.2908  0.1577  0.1920
   14DOPE  H18X 1804   6.525   5.088  14.391 -0.4913 -1.7730  1.7557
   14DOPE  H18Y 1805   6.430   5.075  14.532 -0.0917  1.2922  1.3041
   14DOPE  H18Z 1806   6.360   5.179  14.399 -1.2432  0.9950  2.2430
   15DOPE     N 1807   0.764   2.602  16.757  0.3446  0.7558 -0.1617
   15DOPE   HN1 1808   0.820   2.616  16.844 -0.5399  0.7304  0.4275
   15DOPE   HN2 1809   0.783   2.680  16.691 -0.3702 -0.4963 -1.9305
   15DOPE   HN3 1810   0.665   2.627  16.773 -1.6494 -3.3998 -3.8022
   15DOPE   C12 1811   0.769   2.470  16.694 -0.0950  1.0172  0.0327
   15DOPE  H12A 1812   0.722   2.402  16.768  0.0605  1.0151  0.1308
   15DOPE  H12B 1813   0.871   2.443  16.660 -1.5949 -1.6084 -2.9330
   15DOPE   C11 1814   0.672   2.462  16.568  0.3601  0.6989 -0.8349
   15DOPE  H11A 1815   0.573   2.454  16.617  1.0872 -0.5247  0.5294
   15DOPE  H11B 1816   0.677   2.371  16.505 -2.3203 -0.7539  0.8661
   15DOPE     P 1817   0.790   2.603  16.372 -0.3520  0.2654 -0.1749
   15DOPE   O13 1818   0.918   2.564  16.432  0.2498  0.0380 -0.5768
   15DOPE   O14 1819   0.764   2.739  16.325 -0.0999 -0.0236 -0.0355
   15DOPE   O11 1820   0.742   2.490  16.272 -0.1092 -0.4074  0.4727
   15DOPE   O12 1821   0.688   2.578  16.485 -0.2994 -0.8924  0.3619
   15DOPE    C1 1822   0.600   2.478  16.243 -0.5424 -0.3753 -0.8681
   15DOPE    HA 1823   0.542   2.560  16.293  1.4888  1.4494 -1.3598
   15DOPE    HB 1824   0.555   2.390  16.294  0.2259  0.6982  1.8518
   15DOPE    C2 1825   0.568   2.478  16.094  0.0533 -0.3783  0.2247
   15DOPE    HS 1826   0.459   2.495  16.089  0.3179  1.9258  1.0056
   15DOPE   O21 1827   0.633   2.372  16.030  0.4967  0.7353  0.6391
   15DOPE   C21 1828   0.567   2.255  16.037  0.0527  0.1301  0.1710
   15DOPE   O22 1829   0.459   2.237  16.090  0.5293  0.7649 -0.4326
   15DOPE   C22 1830   0.650   2.146  15.965  0.1684 -0.3440  0.2835
   15DOPE   H2R 1831   0.600   2.047  15.963  0.0644 -0.3178 -2.0324
   15DOPE   H2S 1832   0.742   2.130  16.024 -1.0107 -1.5700  1.8726
   15DOPE    C3 1833   0.615   2.610  16.037  0.2168  0.4093 -0.4947
   15DOPE    HX 1834   0.726   2.611  16.029  0.3233  3.3076  0.1213
   15DOPE    HY 1835   0.590   2.686  16.114  0.8511 -0.0787  0.1999
   15DOPE   O31 1836   0.559   2.634  15.908 -0.4147  0.3991  0.0036
   15DOPE   C31 1837   0.631   2.721  15.832  0.4649 -0.0845  0.1026
   15DOPE   O32 1838   0.727   2.784  15.872 -0.4731  0.3919  0.0672
   15DOPE   C32 1839   0.566   2.742  15.688  0.0484 -0.7532 -0.7967
   15DOPE   H2X 1840   0.475   2.801  15.708  0.8044 -0.4285  2.2463
   15DOPE   H2Y 1841   0.638   2.807  15.634 -1.7340 -0.2790 -2.7039
   15DOPE   C23 1842   0.676   2.178  15.815  0.5176  0.3999  0.1409
   15DOPE   H3R 1843   0.740   2.102  15.765  1.4180  0.8679  0.5561
   15DOPE   H3S 1844   0.724   2.277  15.808 -0.5674  0.9214 -0.1948
   15DOPE   C24 1845   0.543   2.179  15.734 -0.3677  0.1495  0.2941
   15DOPE   H4R 1846   0.474   2.256  15.774  0.5931  1.4408 -0.4491
   15DOPE   H4S 1847   0.489   2.083  15.750  0.5999 -0.4525 -0.0031
   15DOPE   C25 1848   0.553   2.214  15.582 -0.2712 -0.6485 -0.8216
   15DOPE   H5R 1849   0.600   2.129  15.527  1.8192 -0.7640  1.0137
   15DOPE   H5S 1850   0.612   2.307  15.566  0.5961 -1.0729 -0.1592
   15DOPE   C26 1851   0.418   2.240  15.513 -0.9741  1.1544 -0.1448
   15DOPE   H6R 1852   0.377   2.333  15.558  0.1800  0.3819  2.7239
   15DOPE   H6S 1853   0.356   2.154  15.547 -1.0937  1.1991 -0.2499
   15DOPE   C27 1854   0.443   2.235  15.357  0.4825 -0.3865 -0.4195
   15DOPE   H7R 1855   0.485   2.135  15.336  3.3799 -0.0586  2.9493
   15DOPE   H7S 1856   0.519   2.306  15.319  1.2673  0.4449  2.4638
   15DOPE   C28 1857   0.304   2.259  15.284  0.1301  0.4596  0.0353
   15DOPE   H8R 1858   0.259   2.357  15.310 -0.7723  0.3877 -1.1658
   15DOPE   H8S 1859   0.239   2.176  15.319  0.1400  0.2537 -0.4244
   15DOPE   C29 1860   0.325   2.258  15.132  0.3142 -0.4825  0.2329
   15DOPE   H9R 1861   0.404   2.325  15.096  0.0779 -1.9156 -3.4298
   15DOPE  C210 1862   0.270   2.168  15.051  0.8230 -0.1114  0.6533
   15DOPE  H10R 1863   0.302   2.173  14.946  0.8019  0.2533  0.6635
   15DOPE  C211 1864   0.184   2.044  15.080  0.3531 -0.1975  0.6551
   15DOPE  H11R 1865   0.126   2.023  14.988 -1.3435  3.6621  0.6589
   15DOPE  H11S 1866   0.110   2.057  15.162  2.7141  0.5626  2.8059
   15DOPE  C212 1867   0.272   1.923  15.127  0.1113  0.7259 -0.0897
   15DOPE  H12R 1868   0.202   1.843  15.159  1.0271 -0.8911 -1.9648
   15DOPE  H12S 1869   0.335   1.938  15.218 -1.5700  0.8643  1.1112
   15DOPE  C213 1870   0.353   1.869  15.013 -0.2131  0.1411 -0.1247
   15DOPE  H13R 1871   0.441   1.935  14.999 -0.9189  1.1239  0.0247
   15DOPE  H13S 1872   0.292   1.884  14.922 -1.4978 -0.9564  0.5200
   15DOPE  C214 1873   0.406   1.723  15.017 -0.1656  1.1474 -0.5296
   15DOPE  H14R 1874   0.313   1.665  15.000  0.7921 -0.2304 -1.1901
   15DOPE  H14S 1875   0.433   1.690  15.120 -0.5842 -3.8139 -1.7698
   15DOPE  C215 1876   0.518   1.680  14.919  0.1659  0.1817  0.0754
   15DOPE  H15R 1877   0.494   1.706  14.814 -3.1387 -2.1607  0.1050
   15DOPE  H15S 1878   0.526   1.569  14.917 -2.8042 -0.1426  1.1229
   15DOPE  C216 1879   0.654   1.742  14.963  0.1195 -0.7188 -0.2101
   15DOPE  H16R 1880   0.698   1.686  15.048 -0.4167 -1.0944 -0.1797
   15DOPE  H16S 1881   0.639   1.846  14.997  0.2923 -0.7808  0.0590
   15DOPE  C217 1882   0.752   1.740  14.845 -0.1042 -0.2531 -0.1193
   15DOPE  H17R 1883   0.697   1.791  14.763 -1.4878  0.6250  1.2979
   15DOPE  H17S 1884   0.793   1.639  14.821  2.8772  0.3687  1.8766
   15DOPE  C218 1885   0.879   1.828  14.880 -0.2346  0.3336 -0.3218
   15DOPE  H18R 1886   0.945   1.775  14.953  0.9324 -0.5528 -1.9525
   15DOPE  H18S 1887   0.845   1.927  14.916  0.0439  0.5837 -0.7460
   15DOPE  H18T 1888   0.944   1.836  14.791 -0.4298  0.9749 -0.4135
   15DOPE   C33 1889   0.534   2.607  15.613 -0.5645 -0.6551  0.5881
   15DOPE   H3X 1890   0.458   2.544  15.663 -0.7796 -0.0654  1.0056
   15DOPE   H3Y 1891   0.624   2.542  15.613 -0.2272 -0.1946  0.4755
   15DOPE   C34 1892   0.491   2.642  15.470 -0.1776 -0.8714  0.5979
   15DOPE   H4X 1893   0.461   2.550  15.415  0.8666 -1.1187  0.4295
   15DOPE   H4Y 1894   0.400   2.706  15.475  0.4832  0.0049  2.1278
   15DOPE   C35 1895   0.605   2.700  15.374 -0.0477  0.2209  0.0204
   15DOPE   H5X 1896   0.676   2.618  15.354  1.5211  1.6453 -0.4942
   15DOPE   H5Y 1897   0.662   2.781  15.424 -1.6094  1.8644 -0.7594
   15DOPE   C36 1898   0.542   2.747  15.244 -0.6311  0.6991  0.6774
   15DOPE   H6X 1899   0.610   2.822  15.198  0.2914  0.0188  0.8871
   15DOPE   H6Y 1900   0.443   2.790  15.269 -0.6341  0.9693  0.2261
   15DOPE   C37 1901   0.527   2.634  15.139  0.2403  0.1647 -0.2306
   15DOPE   H7X 1902   0.626   2.586  15.123 -0.3841 -0.4436 -2.5726
   15DOPE   H7Y 1903   0.446   2.572  15.182  1.1121 -0.6678  0.2469
   15DOPE   C38 1904   0.471   2.696  15.002  0.1976  0.3922 -0.7704
   15DOPE   H8X 1905   0.523   2.786  14.963  0.7690  0.7718  0.7662
   15DOPE   H8Y 1906   0.374   2.740  15.032 -0.6923 -1.7440 -0.3308
   15DOPE   C39 1907   0.443   2.577  14.912 -0.0143  0.6119 -0.0280
   15DOPE   H9X 1908   0.376   2.503  14.959  0.9531  0.8601  1.8181
   15DOPE  C310 1909   0.490   2.552  14.794  0.0059  0.1069  0.1779
   15DOPE  H10X 1910   0.469   2.457  14.742 -0.0187 -0.5762  1.4035
   15DOPE  C311 1911   0.580   2.642  14.713  0.5630 -0.2427 -0.2723
   15DOPE  H11X 1912   0.507   2.701  14.653  0.2997  0.5228  0.7899
   15DOPE  H11Y 1913   0.645   2.708  14.774  1.2040 -2.2854  1.3926
   15DOPE  C312 1914   0.676   2.566  14.612 -0.0064  0.3796  0.6142
   15DOPE  H12X 1915   0.744   2.507  14.676 -1.3244 -1.6988  0.2151
   15DOPE  H12Y 1916   0.741   2.644  14.566  2.5029 -1.4478  0.8505
   15DOPE  C313 1917   0.610   2.465  14.514  0.1055 -0.0763  0.6235
   15DOPE  H13X 1918   0.588   2.368  14.565 -0.4426 -0.0445  0.4559
   15DOPE  H13Y 1919   0.510   2.508  14.491 -0.7700 -2.3588 -0.1990
   15DOPE  C314 1920   0.686   2.438  14.387  0.0322  0.0002 -0.3301
   15DOPE  H14X 1921   0.653   2.349  14.330  0.1425 -0.3214  0.1061
   15DOPE  H14Y 1922   0.787   2.419  14.427 -0.3160  1.0704  1.1599
   15DOPE  C315 1923   0.699   2.557  14.291  0.3448  0.5506  0.5500
   15DOPE  H15X 1924   0.724   2.652  14.343  1.9271  0.0408  0.8011
   15DOPE  H15Y 1925   0.598   2.574  14.249  0.8859  0.4956 -0.8321
   15DOPE  C316 1926   0.800   2.517  14.177  0.8880 -0.2471 -0.8698
   15DOPE  H16X 1927   0.773   2.420  14.130 -2.2552  0.9658 -1.7599
   15DOPE  H16Y 1928   0.904   2.506  14.215  0.4846 -0.8452  0.0996
   15DOPE  C317 1929   0.810   2.612  14.062  0.6177 -0.7647 -0.1397
   15DOPE  H17X 1930   0.709   2.606  14.015  0.1792  1.5441  0.3706
   15DOPE  H17Y 1931   0.832   2.713  14.101 -1.5828 -0.1535 -0.3465
   15DOPE  C318 1932   0.910   2.565  13.949  0.8676  0.2665  0.1243
   15DOPE  H18X 1933   0.880   2.463  13.918  1.4186 -0.4018  1.6771
   15DOPE  H18Y 1934   0.903   2.635  13.864  1.8393 -1.1586 -1.1704
   15DOPE  H18Z 1935   1.014   2.571  13.988  1.2055  0.7153 -0.8447
   16DOPE     N 1936   7.429   4.048  16.268  0.3102  0.4905  0.1602
   16DOPE   HN1 1937   7.455   4.116  16.342  0.9820  0.9763 -0.5117
   16DOPE   HN2 1938   7.370   3.977  16.316  2.0089 -0.2495  1.2587
   16DOPE   HN3 1939   7.520   4.002  16.248 -1.8314 -3.4455 -1.8173
   16DOPE   C12 1940   7.366   4.112  16.147 -0.5325 -0.2521  0.2283
   16DOPE  H12A 1941   7.268   4.159  16.172 -0.8593 -0.6213 -0.3258
   16DOPE  H12B 1942   7.354   4.028  16.076 -0.2709 -1.3324  1.4415
   16DOPE   C11 1943   7.456   4.223  16.085 -0.3678 -0.3509  0.2141
   16DOPE  H11A 1944   7.429   4.314  16.143 -3.4927 -2.0925  1.7774
   16DOPE  H11B 1945   7.429   4.240  15.979 -2.2931 -1.4856  0.4795
   16DOPE     P 1946   7.701   4.253  16.172  0.0233 -0.2671  0.1377
   16DOPE   O13 1947   7.694   4.184  16.302  0.0102  0.3583  0.7448
   16DOPE   O14 1948   7.678   4.397  16.182  0.3721 -0.5047 -0.0638
   16DOPE   O11 1949   7.839   4.242  16.091  0.3986 -0.2591  0.3240
   16DOPE   O12 1950   7.590   4.181  16.078  0.3935  0.5361 -0.0051
   16DOPE    C1 1951   7.885   4.117  16.029 -0.0877 -0.1869 -0.0135
   16DOPE    HA 1952   7.858   4.026  16.087  2.1359  0.4562  2.2107
   16DOPE    HB 1953   7.996   4.118  16.024 -0.0583 -1.6250 -0.1936
   16DOPE    C2 1954   7.826   4.107  15.886  0.0109  0.4498 -0.4301
   16DOPE    HS 1955   7.716   4.094  15.899  0.0847  0.2672  0.0249
   16DOPE   O21 1956   7.877   3.989  15.819  0.6396  0.0240 -0.0090
   16DOPE   C21 1957   7.822   3.876  15.846  0.0542  0.0696  0.0007
   16DOPE   O22 1958   7.751   3.853  15.941 -0.3567  0.1919  0.0213
   16DOPE   C22 1959   7.879   3.763  15.753 -0.1371 -0.6661 -0.6651
   16DOPE   H2R 1960   7.940   3.702  15.823 -1.5408 -1.1638  0.1693
   16DOPE   H2S 1961   7.945   3.804  15.674  0.2971 -1.0927 -0.5305
   16DOPE    C3 1962   7.841   4.235  15.803 -1.1486  0.0286 -0.7526
   16DOPE    HX 1963   7.948   4.249  15.777 -0.7878 -2.3806 -0.7732
   16DOPE    HY 1964   7.812   4.327  15.858  2.7423  0.4974  0.8498
   16DOPE   O31 1965   7.753   4.210  15.689  0.0744 -0.0659  0.5409
   16DOPE   C31 1966   7.818   4.201  15.577  0.1347  0.4342  0.3196
   16DOPE   O32 1967   7.939   4.202  15.567 -0.4271  0.3520 -0.2830
   16DOPE   C32 1968   7.723   4.181  15.462  0.0092  0.2988 -0.2814
   16DOPE   H2X 1969   7.639   4.117  15.499 -0.8540  0.5666 -1.6907
   16DOPE   H2Y 1970   7.678   4.281  15.444 -0.3266  0.0601 -0.7829
   16DOPE   C23 1971   7.755   3.692  15.698  0.1160 -0.2063  0.0724
   16DOPE   H3R 1972   7.689   3.649  15.777 -1.6713  2.0870 -0.0797
   16DOPE   H3S 1973   7.801   3.614  15.634  0.9417  1.9277 -2.0587
   16DOPE   C24 1974   7.692   3.775  15.593  0.2681  0.0416  0.3474
   16DOPE   H4R 1975   7.747   3.770  15.497 -0.6466 -0.1309 -0.1771
   16DOPE   H4S 1976   7.687   3.883  15.619  0.4738  0.8005 -2.4796
   16DOPE   C25 1977   7.537   3.737  15.575 -0.0496 -0.2467 -0.5063
   16DOPE   H5R 1978   7.481   3.768  15.665  1.2096  0.0240  0.1984
   16DOPE   H5S 1979   7.524   3.626  15.573 -1.0344 -0.1379 -0.5334
   16DOPE   C26 1980   7.479   3.805  15.452  0.2094  0.0596 -0.0746
   16DOPE   H6R 1981   7.527   3.762  15.362  1.8987  1.5821  0.0481
   16DOPE   H6S 1982   7.506   3.913  15.463 -1.9490  0.6020  0.4419
   16DOPE   C27 1983   7.330   3.781  15.433 -0.1030 -0.2908 -0.1761
   16DOPE   H7R 1984   7.287   3.789  15.535  0.6318 -0.7078  0.1787
   16DOPE   H7S 1985   7.303   3.677  15.405  0.2332 -0.8623  1.4989
   16DOPE   C28 1986   7.272   3.878  15.336  0.8012 -0.2533 -0.3120
   16DOPE   H8R 1987   7.315   3.980  15.349 -1.2985  0.8946 -1.8265
   16DOPE   H8S 1988   7.163   3.892  15.353  0.7395 -1.5369  0.5072
   16DOPE   C29 1989   7.301   3.820  15.197  0.0420 -0.2633  0.4744
   16DOPE   H9R 1990   7.239   3.732  15.170  0.4009 -0.1442 -0.8053
   16DOPE  C210 1991   7.385   3.866  15.102 -0.0336  0.4858  0.2247
   16DOPE  H10R 1992   7.418   3.806  15.016 -2.7120 -1.1440  0.2502
   16DOPE  C211 1993   7.478   3.984  15.120  0.1232  0.0470 -0.1922
   16DOPE  H11R 1994   7.577   3.948  15.157  0.0768  1.0078  0.9173
   16DOPE  H11S 1995   7.437   4.046  15.202 -3.4624 -2.7767  0.3849
   16DOPE  C212 1996   7.504   4.071  14.996  0.1603  0.4224 -0.1781
   16DOPE  H12R 1997   7.542   4.010  14.911  0.2390 -0.5727  0.5594
   16DOPE  H12S 1998   7.576   4.155  15.011  0.2083  0.7033 -1.7140
   16DOPE  C213 1999   7.378   4.150  14.964 -0.2379 -0.0594  0.0289
   16DOPE  H13R 2000   7.347   4.210  15.052 -1.0358  0.1039 -0.3527
   16DOPE  H13S 2001   7.291   4.081  14.948 -0.0104 -0.3232 -0.0788
   16DOPE  C214 2002   7.376   4.233  14.834  0.0254  0.2595 -0.4462
   16DOPE  H14R 2003   7.399   4.164  14.751 -0.7235 -3.0616  1.9019
   16DOPE  H14S 2004   7.452   4.314  14.831  0.9471 -0.6008 -0.4444
   16DOPE  C215 2005   7.233   4.295  14.808  0.0488 -0.2088 -0.2225
   16DOPE  H15R 2006   7.203   4.351  14.900 -1.5646 -0.6888 -0.4142
   16DOPE  H15S 2007   7.158   4.214  14.795  0.1573  0.0141 -2.6569
   16DOPE  C216 2008   7.225   4.377  14.684 -0.0195 -0.0746  0.2779
   16DOPE  H16R 2009   7.230   4.323  14.587  0.6518  0.8161 -0.2114
   16DOPE  H16S 2010   7.313   4.445  14.687 -0.4078  0.5147 -0.7500
   16DOPE  C217 2011   7.104   4.483  14.671 -0.1208 -0.4205  0.6695
   16DOPE  H17R 2012   7.144   4.559  14.600  0.7397 -0.1443  1.4298
   16DOPE  H17S 2013   7.098   4.531  14.771  0.2777 -1.0310  0.9949
   16DOPE  C218 2014   6.971   4.420  14.631  0.3872  0.5291  0.3394
   16DOPE  H18R 2015   6.967   4.383  14.526 -1.3799 -1.3350  0.9942
   16DOPE  H18S 2016   6.885   4.484  14.658  0.7260  1.0620  0.1665
   16DOPE  H18T 2017   6.964   4.323  14.686  1.6480 -0.3048 -0.8723
   16DOPE   C33 2018   7.776   4.113  15.330 -0.0287 -0.1996  0.2520
   16DOPE   H3X 2019   7.678   4.076  15.292  0.8659 -1.7105 -0.6399
   16DOPE   H3Y 2020   7.835   4.020  15.344  1.3668  0.3644 -1.5993
   16DOPE   C34 2021   7.837   4.202  15.227  0.1985 -0.0529  0.3043
   16DOPE   H4X 2022   7.772   4.287  15.195  0.8412 -0.0332 -0.9909
   16DOPE   H4Y 2023   7.930   4.251  15.264  0.8480  0.1070 -1.4613
   16DOPE   C35 2024   7.861   4.114  15.105  0.3681 -0.0481  0.1640
   16DOPE   H5X 2025   7.759   4.078  15.082 -0.1378  0.3074  1.7117
   16DOPE   H5Y 2026   7.921   4.023  15.129  2.2138  1.2957  0.8192
   16DOPE   C36 2027   7.923   4.194  14.992  0.8784 -0.9569 -0.9739
   16DOPE   H6X 2028   8.022   4.233  15.023  0.2708 -0.6416  0.6885
   16DOPE   H6Y 2029   7.864   4.287  14.979 -1.6674 -1.8326  2.6001
   16DOPE   C37 2030   7.927   4.117  14.859 -0.3634  0.2470 -0.1841
   16DOPE   H7X 2031   7.990   4.027  14.872 -1.0863 -0.3706 -0.8363
   16DOPE   H7Y 2032   7.824   4.085  14.830  0.1018 -2.1513  0.5802
   16DOPE   C38 2033   7.996   4.187  14.740  0.5964 -0.3910  0.2219
   16DOPE   H8X 2034   8.014   4.107  14.666  0.6166  1.7408 -2.2359
   16DOPE   H8Y 2035   8.098   4.218  14.771  1.2751 -1.7639 -0.5667
   16DOPE   C39 2036   7.917   4.303  14.698  0.2107  0.1196  0.0323
   16DOPE   H9X 2037   7.892   4.358  14.790  0.6983 -0.8653  0.7659
   16DOPE  C310 2038   7.858   4.324  14.580  0.2595 -0.3827  0.2929
   16DOPE  H10X 2039   7.792   4.409  14.561 -0.7576 -0.7638  1.9254
   16DOPE  C311 2040   7.856   4.234  14.458 -1.3489 -0.9491  0.1633
   16DOPE  H11X 2041   7.866   4.128  14.487 -2.2018 -0.5331  2.1930
   16DOPE  H11Y 2042   7.761   4.256  14.404  0.1843  2.0830 -1.5609
   16DOPE  C312 2043   7.971   4.256  14.344  0.3035  0.1785 -0.6375
   16DOPE  H12X 2044   8.063   4.202  14.374  0.4120 -0.0419 -1.3398
   16DOPE  H12Y 2045   7.990   4.362  14.317 -3.0308  1.2687  0.7909
   16DOPE  C313 2046   7.933   4.186  14.211  0.4320  0.3091  0.1149
   16DOPE  H13X 2047   7.908   4.084  14.247 -0.0681 -0.1556 -1.4953
   16DOPE  H13Y 2048   7.835   4.222  14.172  1.1184  0.7867 -1.2288
   16DOPE  C314 2049   8.042   4.188  14.100 -0.4810  0.2874  0.0409
   16DOPE  H14X 2050   8.042   4.294  14.066 -0.9423  0.3983  0.3837
   16DOPE  H14Y 2051   8.005   4.130  14.013  0.7905 -0.6647  0.1045
   16DOPE  C315 2052   8.177   4.134  14.139 -0.2203  0.1283 -0.4258
   16DOPE  H15X 2053   8.171   4.027  14.170 -2.4032 -0.4904 -2.6511
   16DOPE  H15Y 2054   8.222   4.198  14.217  1.3808 -0.7495 -0.5855
   16DOPE  C316 2055   8.269   4.123  14.016 -0.1601 -0.1225 -0.4136
   16DOPE  H16X 2056   8.297   4.224  13.980  0.3306  0.2036  0.8460
   16DOPE  H16Y 2057   8.209   4.080  13.932 -0.7776  2.2880 -1.2897
   16DOPE  C317 2058   8.399   4.052  14.036 -0.1226  0.8593 -0.6959
   16DOPE  H17X 2059   8.441   4.082  14.135 -0.9627  0.0305 -0.0782
   16DOPE  H17Y 2060   8.381   3.944  14.056 -0.8145  1.4346  2.2956
   16DOPE  C318 2061   8.501   4.054  13.918 -0.7732  0.0694 -0.7339
   16DOPE  H18X 2062   8.566   3.965  13.932 -2.1820 -0.6622  1.5359
   16DOPE  H18Y 2063   8.446   4.057  13.821  3.1779 -0.1471 -3.2261
   16DOPE  H18Z 2064   8.564   4.146  13.918  1.6658 -1.4802  0.6795
   17DOPE     N 2065   2.241   5.952  16.400  0.4935  0.4040  0.0713
   17DOPE   HN1 2066   2.300   6.017  16.456 -2.7857  0.6027  3.7163
   17DOPE   HN2 2067   2.143   5.984  16.410  0.6445  0.4593  1.7814
   17DOPE   HN3 2068   2.251   5.856  16.438  0.2465  0.3519  0.0046
   17DOPE   C12 2069   2.272   5.943  16.251 -0.0341 -0.3864  0.3350
   17DOPE  H12A 2070   2.176   5.904  16.211  0.7036 -1.5976 -0.3289
   17DOPE  H12B 2071   2.352   5.867  16.250  1.9003  1.5350  1.3821
   17DOPE   C11 2072   2.301   6.075  16.189 -0.1938  0.2173 -0.3716
   17DOPE  H11A 2073   2.216   6.141  16.218  0.5987  0.9100  0.4303
   17DOPE  H11B 2074   2.306   6.058  16.079 -0.7447 -2.7462 -0.0245
   17DOPE     P 2075   2.561   6.106  16.165  0.1426 -0.1144  0.1251
   17DOPE   O13 2076   2.591   5.963  16.174 -0.1031  0.4299 -0.0383
   17DOPE   O14 2077   2.663   6.205  16.218  0.3377  0.2651 -0.0007
   17DOPE   O11 2078   2.525   6.152  16.021  0.0923 -0.2641  0.2042
   17DOPE   O12 2079   2.423   6.134  16.246 -0.4840 -0.1595  0.4858
   17DOPE    C1 2080   2.472   6.276  15.969 -0.7251 -0.2353  0.0414
   17DOPE    HA 2081   2.531   6.361  16.008  0.7572 -2.0493  1.9783
   17DOPE    HB 2082   2.366   6.281  16.000 -0.3478 -1.2657  1.6463
   17DOPE    C2 2083   2.494   6.266  15.819 -0.7187  0.5331  0.4166
   17DOPE    HS 2084   2.444   6.354  15.772 -1.2358  0.6605  1.1799
   17DOPE   O21 2085   2.441   6.144  15.758 -0.0333  0.0091  0.0441
   17DOPE   C21 2086   2.313   6.152  15.736 -0.3808 -0.5200 -0.2554
   17DOPE   O22 2087   2.238   6.241  15.770  0.2823 -0.1394 -0.0024
   17DOPE   C22 2088   2.269   6.026  15.664  0.0780  0.4496 -0.1704
   17DOPE   H2R 2089   2.175   5.984  15.706  0.5094 -2.6843 -1.9589
   17DOPE   H2S 2090   2.346   5.951  15.694  1.0518  1.4507 -0.0955
   17DOPE    C3 2091   2.645   6.270  15.785 -0.4125  0.1659  0.3551
   17DOPE    HX 2092   2.691   6.179  15.829 -1.8669 -1.0257 -0.4746
   17DOPE    HY 2093   2.704   6.351  15.833 -0.2130  0.4466 -0.3538
   17DOPE   O31 2094   2.663   6.275  15.646  0.3052  0.1649 -0.3743
   17DOPE   C31 2095   2.667   6.403  15.595 -0.3897 -0.2620  0.1639
   17DOPE   O32 2096   2.612   6.500  15.647 -0.0408  0.5558 -0.0213
   17DOPE   C32 2097   2.721   6.393  15.455 -0.1642  0.0266  0.3744
   17DOPE   H2X 2098   2.827   6.358  15.458  0.1834  0.9781 -0.3280
   17DOPE   H2Y 2099   2.679   6.301  15.409 -0.2774 -0.3370  1.1828
   17DOPE   C23 2100   2.277   6.035  15.514  0.4532 -0.3647  0.2181
   17DOPE   H3R 2101   2.380   6.073  15.493 -0.0416  2.0311  1.7398
   17DOPE   H3S 2102   2.207   6.110  15.473 -0.9492 -0.1803  2.7937
   17DOPE   C24 2103   2.247   5.898  15.459 -0.0585 -0.1239  0.6382
   17DOPE   H4R 2104   2.176   5.848  15.529 -0.0639 -1.3456 -0.2169
   17DOPE   H4S 2105   2.334   5.829  15.453 -0.5141 -0.6781  0.2763
   17DOPE   C25 2106   2.198   5.902  15.314  0.4495 -0.7292 -0.6180
   17DOPE   H5R 2107   2.258   5.982  15.266 -1.5976  2.0128  1.0949
   17DOPE   H5S 2108   2.096   5.944  15.304  1.2446  1.3698 -0.4424
   17DOPE   C26 2109   2.200   5.764  15.241  0.1494 -0.3013 -0.0570
   17DOPE   H6R 2110   2.160   5.690  15.314 -0.1944 -0.2347 -0.1726
   17DOPE   H6S 2111   2.307   5.737  15.248  0.0541 -0.8057 -0.4519
   17DOPE   C27 2112   2.155   5.756  15.097  0.5845 -0.0172 -0.2403
   17DOPE   H7R 2113   2.215   5.826  15.035  2.0893 -1.8655 -0.9932
   17DOPE   H7S 2114   2.051   5.794  15.094  0.8103  0.6700  0.3104
   17DOPE   C28 2115   2.153   5.610  15.038 -1.2223 -0.1221  0.5032
   17DOPE   H8R 2116   2.100   5.610  14.941 -3.1410 -2.6177  1.4544
   17DOPE   H8S 2117   2.079   5.562  15.106 -4.2032  2.3256 -0.7570
   17DOPE   C29 2118   2.296   5.557  15.040  0.1191  0.3221 -0.0302
   17DOPE   H9R 2119   2.342   5.544  15.139  0.8911  0.1333 -0.4056
   17DOPE  C210 2120   2.360   5.498  14.939  0.3779 -0.3600 -0.6022
   17DOPE  H10R 2121   2.459   5.457  14.965 -0.6019 -0.6728  3.3460
   17DOPE  C211 2122   2.307   5.477  14.806 -0.1601  0.8003 -0.2238
   17DOPE  H11R 2123   2.344   5.563  14.746 -0.6655  1.3554  0.2546
   17DOPE  H11S 2124   2.196   5.478  14.806 -0.1772  3.0287  0.9691
   17DOPE  C212 2125   2.361   5.351  14.730 -1.1019 -0.2037  0.0302
   17DOPE  H12R 2126   2.324   5.263  14.787 -1.2006 -0.6939 -0.7704
   17DOPE  H12S 2127   2.472   5.352  14.732 -0.9613 -3.2643 -0.3768
   17DOPE  C213 2128   2.322   5.332  14.574 -0.0006 -0.1602 -0.1999
   17DOPE  H13R 2129   2.346   5.418  14.509  0.7989  0.0512  0.3685
   17DOPE  H13S 2130   2.212   5.315  14.579  0.0371 -0.3790 -0.0914
   17DOPE  C214 2131   2.390   5.205  14.518 -0.6502 -0.9061 -0.4031
   17DOPE  H14R 2132   2.364   5.127  14.594 -2.9047  0.4376  0.3156
   17DOPE  H14S 2133   2.499   5.227  14.514 -0.6138 -1.2600 -1.5623
   17DOPE  C215 2134   2.351   5.168  14.374 -0.0929 -0.4955  0.1445
   17DOPE  H15R 2135   2.361   5.262  14.316  0.1612  0.9585  2.4222
   17DOPE  H15S 2136   2.249   5.125  14.362 -0.9719  0.9193  1.9588
   17DOPE  C216 2137   2.453   5.071  14.302  0.1304 -0.0718 -0.5258
   17DOPE  H16R 2138   2.472   4.985  14.371  0.2507 -0.2091 -0.7287
   17DOPE  H16S 2139   2.551   5.120  14.285 -0.0593  0.2794 -0.6039
   17DOPE  C217 2140   2.403   5.022  14.161  0.0324 -0.9709  0.5361
   17DOPE  H17R 2141   2.481   4.974  14.100  1.0752 -0.8628  1.7449
   17DOPE  H17S 2142   2.377   5.115  14.105  0.2859 -0.9541  0.4502
   17DOPE  C218 2143   2.281   4.934  14.166  1.1161  0.3336  0.6860
   17DOPE  H18R 2144   2.198   4.999  14.201  1.1381  0.6119  0.2254
   17DOPE  H18S 2145   2.283   4.843  14.231  2.2040  0.5086  0.9166
   17DOPE  H18T 2146   2.252   4.906  14.063  1.9994  2.1401 -0.0874
   17DOPE   C33 2147   2.707   6.512  15.355  0.0424 -0.4059  0.0575
   17DOPE   H3X 2148   2.793   6.578  15.376  0.1782 -0.8352  0.8609
   17DOPE   H3Y 2149   2.613   6.570  15.373 -0.2671 -0.7672 -0.3703
   17DOPE   C34 2150   2.680   6.482  15.204  1.0113 -0.7625 -0.3625
   17DOPE   H4X 2151   2.581   6.432  15.210  0.4276  0.4266  0.2453
   17DOPE   H4Y 2152   2.675   6.584  15.161  1.1597  1.0656  3.4902
   17DOPE   C35 2153   2.781   6.389  15.148 -0.1067 -0.5399  0.2017
   17DOPE   H5X 2154   2.800   6.296  15.205  3.9604 -1.1141 -1.7286
   17DOPE   H5Y 2155   2.876   6.445  15.159 -0.4039 -0.2264  1.2915
   17DOPE   C36 2156   2.738   6.339  15.006 -0.0318  0.4688  0.4648
   17DOPE   H6X 2157   2.715   6.421  14.934 -0.7713 -1.4186 -1.5588
   17DOPE   H6Y 2158   2.642   6.286  15.021 -0.1359  0.2909 -0.7323
   17DOPE   C37 2159   2.850   6.259  14.933  0.0149  0.3147  0.3186
   17DOPE   H7X 2160   2.942   6.321  14.926  0.7068 -0.5146  1.5560
   17DOPE   H7Y 2161   2.889   6.174  14.994  0.8373  0.4964  0.0518
   17DOPE   C38 2162   2.809   6.199  14.796  0.3215  0.3539  0.4963
   17DOPE   H8X 2163   2.718   6.135  14.798 -0.6064  1.5900 -0.3856
   17DOPE   H8Y 2164   2.892   6.137  14.756 -0.0595 -0.9464  1.6436
   17DOPE   C39 2165   2.786   6.308  14.693  0.0371 -0.1456  0.3692
   17DOPE   H9X 2166   2.683   6.345  14.687 -0.3816 -1.1430  1.0251
   17DOPE  C310 2167   2.874   6.359  14.600 -0.2626 -0.9711  0.0641
   17DOPE  H10X 2168   2.839   6.450  14.549 -0.6823 -1.1611  0.0128
   17DOPE  C311 2169   3.021   6.320  14.581 -0.3044 -0.2732  0.2538
   17DOPE  H11X 2170   3.061   6.244  14.651  2.1118  0.5299 -0.1360
   17DOPE  H11Y 2171   3.038   6.269  14.484 -0.8779 -0.0494  0.0294
   17DOPE  C312 2172   3.105   6.446  14.593  0.1930  0.1280 -0.1604
   17DOPE  H12X 2173   3.083   6.507  14.683  1.6150 -0.9651  0.9722
   17DOPE  H12Y 2174   3.079   6.511  14.507  2.2111  2.4940  0.8916
   17DOPE  C313 2175   3.263   6.416  14.582  0.5908 -0.0266 -0.2919
   17DOPE  H13X 2176   3.280   6.360  14.488 -0.2835 -2.2901  0.8278
   17DOPE  H13Y 2177   3.309   6.516  14.571 -1.6191  0.9150 -1.8063
   17DOPE  C314 2178   3.326   6.358  14.705 -0.8840 -0.3724 -0.6380
   17DOPE  H14X 2179   3.292   6.253  14.718 -2.4354  0.2679  0.7782
   17DOPE  H14Y 2180   3.277   6.402  14.794 -3.0755 -0.9758 -1.4654
   17DOPE  C315 2181   3.472   6.359  14.709 -0.0866  0.4838  0.0668
   17DOPE  H15X 2182   3.515   6.461  14.696  0.4448  0.2946  0.2848
   17DOPE  H15Y 2183   3.510   6.286  14.634  3.9933 -0.7389  2.9713
   17DOPE  C316 2184   3.533   6.293  14.835 -0.7971  0.2487 -0.5813
   17DOPE  H16X 2185   3.482   6.196  14.852 -0.7583  0.3740  0.2729
   17DOPE  H16Y 2186   3.527   6.362  14.922  1.7199 -0.7883  0.5011
   17DOPE  C317 2187   3.685   6.273  14.818 -0.2983 -0.2778  0.1389
   17DOPE  H17X 2188   3.700   6.218  14.723 -0.2520  2.2050 -1.4044
   17DOPE  H17Y 2189   3.748   6.365  14.809  1.4757 -1.3799  0.8985
   17DOPE  C318 2190   3.749   6.201  14.929 -0.8696  0.4039  0.1677
   17DOPE  H18X 2191   3.734   6.257  15.024 -2.1940  1.0079 -0.3775
   17DOPE  H18Y 2192   3.715   6.095  14.929  0.2543 -0.0068 -1.8762
   17DOPE  H18Z 2193   3.858   6.197  14.909 -0.7502  2.5424  0.1544
   18DOPE     N 2194   6.632   3.624  16.365 -0.0638  0.3176 -0.3008
   18DOPE   HN1 2195   6.587   3.674  16.286  0.9038 -0.8225 -1.6326
   18DOPE   HN2 2196   6.637   3.527  16.328 -2.8660  0.1938 -0.5976
   18DOPE   HN3 2197   6.567   3.618  16.447  1.0337 -1.7249  0.4896
   18DOPE   C12 2198   6.766   3.688  16.408  0.4040 -0.2648 -0.1044
   18DOPE  H12A 2199   6.826   3.617  16.470  1.7080  2.5826  2.0955
   18DOPE  H12B 2200   6.732   3.765  16.480 -0.0698  1.1194 -1.7548
   18DOPE   C11 2201   6.845   3.749  16.300 -0.6883 -0.0985  0.3425
   18DOPE  H11A 2202   6.781   3.825  16.248  1.7426  1.3155 -0.7429
   18DOPE  H11B 2203   6.850   3.674  16.219  0.5014 -0.2710  0.5616
   18DOPE     P 2204   7.051   3.898  16.254  0.6050 -0.0908 -0.2228
   18DOPE   O13 2205   7.189   3.900  16.313  0.0587  0.2199 -0.4946
   18DOPE   O14 2206   6.988   4.032  16.243 -0.0504 -0.3869 -0.4768
   18DOPE   O11 2207   7.063   3.836  16.110 -0.0794 -0.6026 -0.4860
   18DOPE   O12 2208   6.965   3.803  16.348 -0.6904  0.2375  0.4738
   18DOPE    C1 2209   7.140   3.715  16.090 -0.4514  0.0462 -0.4508
   18DOPE    HA 2210   7.114   3.636  16.163  1.3206  0.0041  0.1606
   18DOPE    HB 2211   7.245   3.747  16.102 -0.2144  0.0993 -2.3246
   18DOPE    C2 2212   7.123   3.669  15.943  0.5996  0.6231 -1.1727
   18DOPE    HS 2213   7.212   3.607  15.919  1.7010  1.4964  0.4604
   18DOPE   O21 2214   7.103   3.776  15.858  0.2036  0.0520  0.1846
   18DOPE   C21 2215   7.211   3.842  15.825  0.1072 -0.6512 -0.5799
   18DOPE   O22 2216   7.324   3.816  15.863  0.0057  0.1243 -0.2489
   18DOPE   C22 2217   7.171   3.964  15.741 -0.1388 -0.1131  0.7126
   18DOPE   H2R 2218   7.092   4.017  15.799  0.8577  0.2307  1.7724
   18DOPE   H2S 2219   7.129   3.920  15.648  0.0638 -0.3512  0.7333
   18DOPE    C3 2220   7.003   3.569  15.934  0.0243 -0.0415 -0.2409
   18DOPE    HX 2221   6.910   3.593  15.990  1.0852 -2.1129  2.6858
   18DOPE    HY 2222   7.040   3.477  15.984  0.9684  0.6317  0.3340
   18DOPE   O31 2223   6.962   3.539  15.798 -0.4275  0.0036 -0.3618
   18DOPE   C31 2224   7.013   3.431  15.744 -0.2800  0.3727 -0.5877
   18DOPE   O32 2225   7.079   3.345  15.803  0.9214 -0.3659 -0.0676
   18DOPE   C32 2226   6.985   3.436  15.600  0.4724  0.1857 -0.0852
   18DOPE   H2X 2227   6.879   3.467  15.582 -0.1563 -1.7492  0.0952
   18DOPE   H2Y 2228   7.050   3.519  15.564  2.1608 -0.8169  0.5682
   18DOPE   C23 2229   7.292   4.052  15.704  0.9618 -0.2588 -0.2419
   18DOPE   H3R 2230   7.372   3.986  15.663  0.0121 -1.2838 -0.5168
   18DOPE   H3S 2231   7.329   4.105  15.794 -1.9422  1.4844  0.0355
   18DOPE   C24 2232   7.235   4.133  15.591  0.3087 -0.8808  1.2509
   18DOPE   H4R 2233   7.154   4.192  15.637 -0.3932 -0.7389 -0.1178
   18DOPE   H4S 2234   7.192   4.068  15.511  2.2829 -0.9256  0.1456
   18DOPE   C25 2235   7.337   4.234  15.533 -0.8800  0.7551  0.4390
   18DOPE   H5R 2236   7.404   4.173  15.469 -0.2120  0.2941  1.5477
   18DOPE   H5S 2237   7.403   4.274  15.612 -0.5903  0.7090  0.2213
   18DOPE   C26 2238   7.285   4.358  15.454 -0.4642  0.6125 -0.3670
   18DOPE   H6R 2239   7.378   4.406  15.415  0.5145  0.2398  1.3788
   18DOPE   H6S 2240   7.246   4.430  15.529 -0.6742  1.2143 -1.0407
   18DOPE   C27 2241   7.184   4.330  15.347  0.5110 -0.0190  0.3068
   18DOPE   H7R 2242   7.089   4.286  15.384 -0.0828 -0.7017 -1.9032
   18DOPE   H7S 2243   7.228   4.251  15.282  3.1992  0.1723  1.7508
   18DOPE   C28 2244   7.153   4.461  15.271 -0.0989  0.3318 -0.2588
   18DOPE   H8R 2245   7.247   4.494  15.222 -0.1296 -0.3780 -0.8172
   18DOPE   H8S 2246   7.115   4.540  15.339  1.5866  0.9453  0.0250
   18DOPE   C29 2247   7.057   4.436  15.155 -0.0621 -0.3248  0.5491
   18DOPE   H9R 2248   7.088   4.346  15.099  0.1728  0.6847 -1.0315
   18DOPE  C210 2249   6.981   4.526  15.088  0.4464 -0.2655  0.8565
   18DOPE  H10R 2250   6.929   4.494  14.997 -0.2105 -0.1575  1.1869
   18DOPE  C211 2251   6.976   4.671  15.116 -0.0342 -0.2496 -0.0405
   18DOPE  H11R 2252   6.959   4.732  15.024  2.8294  1.2163  0.3067
   18DOPE  H11S 2253   7.075   4.704  15.151  0.2571  0.3201 -1.3442
   18DOPE  C212 2254   6.860   4.708  15.217 -0.6151  0.0392  0.0520
   18DOPE  H12R 2255   6.888   4.812  15.244  0.8280  0.2420 -1.9703
   18DOPE  H12S 2256   6.859   4.649  15.311  0.6411 -0.8396 -0.4609
   18DOPE  C213 2257   6.728   4.699  15.143  0.4965  0.1641  0.3196
   18DOPE  H13R 2258   6.732   4.609  15.079 -1.4764  0.9753 -1.0278
   18DOPE  H13S 2259   6.732   4.791  15.081 -0.8023  0.8558  1.2152
   18DOPE  C214 2260   6.604   4.693  15.237  0.5589  0.1704 -0.4714
   18DOPE  H14R 2261   6.605   4.596  15.290 -0.8119 -0.7201 -1.9986
   18DOPE  H14S 2262   6.508   4.694  15.182  0.4138 -2.2469 -0.3719
   18DOPE  C215 2263   6.597   4.810  15.341  0.4906 -0.2148  0.6116
   18DOPE  H15R 2264   6.615   4.910  15.296  0.8757 -2.0553 -3.7849
   18DOPE  H15S 2265   6.682   4.805  15.412 -0.5152  0.3667  1.8953
   18DOPE  C216 2266   6.464   4.804  15.416 -0.0854  0.1230  0.6331
   18DOPE  H16R 2267   6.447   4.702  15.456 -2.3409  0.9064  1.9185
   18DOPE  H16S 2268   6.385   4.837  15.345 -1.1687 -1.3172  1.1240
   18DOPE  C217 2269   6.441   4.904  15.527 -0.3436  0.4635  0.1330
   18DOPE  H17R 2270   6.458   5.009  15.494  2.6285  0.4672  1.3491
   18DOPE  H17S 2271   6.524   4.897  15.601 -1.4237 -0.3185  1.3091
   18DOPE  C218 2272   6.309   4.881  15.604 -0.4605  0.6830 -0.3973
   18DOPE  H18R 2273   6.224   4.887  15.532 -0.1486 -2.6523 -1.2221
   18DOPE  H18S 2274   6.288   4.945  15.692  0.1077  0.3033  0.0228
   18DOPE  H18T 2275   6.302   4.774  15.634 -2.3727  0.7298 -0.5228
   18DOPE   C33 2276   7.022   3.305  15.529 -0.2652  0.4385  0.9118
   18DOPE   H3X 2277   6.939   3.232  15.539  1.5562 -1.6138  2.2683
   18DOPE   H3Y 2278   7.103   3.253  15.586 -0.2300 -0.1684  0.3232
   18DOPE   C34 2279   7.083   3.327  15.391  0.4985  0.0568  0.0163
   18DOPE   H4X 2280   7.008   3.376  15.324 -0.5073 -0.4555  0.7324
   18DOPE   H4Y 2281   7.168   3.397  15.394  0.0960  0.5661 -0.2880
   18DOPE   C35 2282   7.121   3.192  15.338  0.1183  0.2469  0.0465
   18DOPE   H5X 2283   7.023   3.146  15.317  0.1316 -1.0136  2.4197
   18DOPE   H5Y 2284   7.181   3.133  15.411 -2.2403  0.0108  1.9022
   18DOPE   C36 2285   7.201   3.187  15.209  0.1022 -0.2585  1.0775
   18DOPE   H6X 2286   7.195   3.079  15.182 -3.4524  0.5408 -2.2598
   18DOPE   H6Y 2287   7.307   3.213  15.228 -0.4546  3.1538  0.0760
   18DOPE   C37 2288   7.153   3.277  15.094 -0.0905 -0.4312  0.4719
   18DOPE   H7X 2289   7.043   3.266  15.087 -0.0233 -2.3438  1.6716
   18DOPE   H7Y 2290   7.159   3.379  15.137 -0.3038  0.0655 -0.6264
   18DOPE   C38 2291   7.230   3.258  14.962  0.2410  0.6107 -0.2722
   18DOPE   H8X 2292   7.245   3.151  14.935 -0.0895 -0.2772  2.6910
   18DOPE   H8Y 2293   7.332   3.300  14.976 -0.2464  2.1024 -0.9632
   18DOPE   C39 2294   7.153   3.330  14.852 -0.3722  0.4512 -0.0888
   18DOPE   H9X 2295   7.066   3.267  14.828  0.0493 -0.7533  1.3845
   18DOPE  C310 2296   7.164   3.454  14.815 -0.4514 -0.3778  0.3084
   18DOPE  H10X 2297   7.085   3.485  14.745  0.1515 -1.9494 -1.1720
   18DOPE  C311 2298   7.258   3.558  14.869 -0.0195  0.2704 -0.1636
   18DOPE  H11X 2299   7.202   3.630  14.933  1.3148 -0.0770  1.4770
   18DOPE  H11Y 2300   7.330   3.504  14.934  0.5151  1.4080  0.2178
   18DOPE  C312 2301   7.338   3.619  14.756  0.4758  0.2232 -0.1279
   18DOPE  H12X 2302   7.409   3.550  14.706 -0.1075  1.0024 -2.1469
   18DOPE  H12Y 2303   7.402   3.696  14.804  0.0394  0.8558 -0.5406
   18DOPE  C313 2304   7.248   3.701  14.656 -0.1231  1.0333 -0.2368
   18DOPE  H13X 2305   7.308   3.738  14.571 -1.5015  1.9508 -0.8461
   18DOPE  H13Y 2306   7.166   3.638  14.615  0.7339  0.9901 -1.9556
   18DOPE  C314 2307   7.169   3.813  14.717 -0.1574 -0.3607  1.5726
   18DOPE  H14X 2308   7.242   3.890  14.750  0.8069 -0.6605  0.2482
   18DOPE  H14Y 2309   7.110   3.785  14.807 -0.3198  0.0191  1.5902
   18DOPE  C315 2310   7.075   3.889  14.623 -0.1397 -0.3380 -0.3681
   18DOPE  H15X 2311   7.026   3.973  14.678  1.8653 -0.3814  1.6425
   18DOPE  H15Y 2312   6.992   3.821  14.594 -1.0522  0.4362  0.3534
   18DOPE  C316 2313   7.141   3.950  14.494 -0.0239  0.3715 -0.4607
   18DOPE  H16X 2314   7.197   3.876  14.433 -1.1851  0.0063 -1.1091
   18DOPE  H16Y 2315   7.197   4.043  14.521  0.3121  0.6193 -1.9128
   18DOPE  C317 2316   7.039   3.997  14.391  0.0374  0.7065 -0.0176
   18DOPE  H17X 2317   6.995   3.904  14.351  1.0626  0.9239 -1.7360
   18DOPE  H17Y 2318   6.963   4.050  14.452 -0.7722 -0.6572  0.1918
   18DOPE  C318 2319   7.099   4.078  14.277  0.3668 -0.0865 -0.7946
   18DOPE  H18X 2320   7.163   4.157  14.323 -0.4875  1.1412 -1.6573
   18DOPE  H18Y 2321   7.166   4.006  14.226  3.0962  1.6234  0.1640
   18DOPE  H18Z 2322   7.019   4.127  14.218 -1.1354 -0.5825  0.7479
   19DOPE     N 2323   6.137   4.414  16.147  0.0363  0.8578  0.5522
   19DOPE   HN1 2324   6.183   4.321  16.135 -1.9507 -0.0699 -0.3194
   19DOPE   HN2 2325   6.183   4.467  16.223  0.4742  2.9066 -1.0523
   19DOPE   HN3 2326   6.039   4.397  16.179 -0.5530  0.3833 -1.3927
   19DOPE   C12 2327   6.141   4.510  16.033 -0.1768 -0.7174  0.0910
   19DOPE  H12A 2328   6.104   4.610  16.064  0.4336 -0.4899  0.1176
   19DOPE  H12B 2329   6.070   4.475  15.955 -2.6991  1.6115  1.1685
   19DOPE   C11 2330   6.287   4.515  15.973 -0.1364  0.4798 -0.3431
   19DOPE  H11A 2331   6.286   4.583  15.885 -1.0950  0.7379 -0.1474
   19DOPE  H11B 2332   6.312   4.416  15.929  1.5276  0.9724 -0.5532
   19DOPE     P 2333   6.528   4.618  16.030  0.1286  0.0772  0.1562
   19DOPE   O13 2334   6.641   4.523  16.047  0.0253 -0.5180  0.2574
   19DOPE   O14 2335   6.543   4.735  16.125  0.2882  0.0807  0.2514
   19DOPE   O11 2336   6.502   4.664  15.886 -0.2911 -0.6005  0.0140
   19DOPE   O12 2337   6.388   4.550  16.068 -0.0834  0.0820 -0.1913
   19DOPE    C1 2338   6.559   4.596  15.767  0.5326  0.2035 -0.1069
   19DOPE    HA 2339   6.516   4.635  15.672 -0.1585 -0.6070 -0.1367
   19DOPE    HB 2340   6.549   4.486  15.777  2.9264 -0.1611 -1.1953
   19DOPE    C2 2341   6.706   4.619  15.731 -0.8166 -0.5398  0.1808
   19DOPE    HS 2342   6.775   4.604  15.818  0.8779 -0.2143 -1.0518
   19DOPE   O21 2343   6.724   4.752  15.680  0.2639  0.8854  1.1226
   19DOPE   C21 2344   6.839   4.811  15.690  0.4089 -0.5149  0.8634
   19DOPE   O22 2345   6.942   4.765  15.730  0.0108 -0.0375  0.0579
   19DOPE   C22 2346   6.823   4.947  15.632 -0.5634 -0.2495 -1.0869
   19DOPE   H2R 2347   6.745   5.001  15.689  0.9303 -1.4536  2.3621
   19DOPE   H2S 2348   6.789   4.937  15.527  0.1527  0.3888 -1.3968
   19DOPE    C3 2349   6.761   4.522  15.622  0.0267 -0.2414  0.9474
   19DOPE    HX 2350   6.868   4.542  15.600 -0.3373  1.0639  0.2712
   19DOPE    HY 2351   6.712   4.565  15.532  1.9135  1.0181  0.4672
   19DOPE   O31 2352   6.717   4.387  15.639 -0.6426  0.7378 -0.1023
   19DOPE   C31 2353   6.811   4.315  15.688  0.1890  0.6161  0.2059
   19DOPE   O32 2354   6.923   4.347  15.722 -0.2695  0.1535 -0.5005
   19DOPE   C32 2355   6.764   4.168  15.686 -0.2854  0.2332 -0.7455
   19DOPE   H2X 2356   6.802   4.133  15.784  1.2819  0.4885 -1.2470
   19DOPE   H2Y 2357   6.653   4.157  15.682 -0.2162 -0.7867 -0.1565
   19DOPE   C23 2358   6.953   5.024  15.614  0.3148 -0.0325 -0.7438
   19DOPE   H3R 2359   7.009   5.027  15.710 -0.9779 -0.5752  0.0480
   19DOPE   H3S 2360   6.936   5.126  15.575  1.3645  0.6973  0.6088
   19DOPE   C24 2361   7.047   4.947  15.513 -0.1511 -0.3299  0.4028
   19DOPE   H4R 2362   7.005   4.961  15.411 -0.1182 -0.4986  0.3672
   19DOPE   H4S 2363   7.064   4.840  15.535  1.3302 -0.5647 -1.5790
   19DOPE   C25 2364   7.184   5.028  15.513  0.8477  0.1367 -0.5256
   19DOPE   H5R 2365   7.243   4.975  15.591  0.7924 -1.3369 -1.4572
   19DOPE   H5S 2366   7.158   5.133  15.541 -1.3660 -0.2799 -0.8485
   19DOPE   C26 2367   7.265   5.019  15.385  0.0543 -0.2657  0.4061
   19DOPE   H6R 2368   7.203   5.067  15.306  0.7130 -1.4430 -0.8833
   19DOPE   H6S 2369   7.279   4.915  15.349  0.9009  1.0852 -3.7641
   19DOPE   C27 2370   7.388   5.105  15.400  0.0855  0.0364 -0.4972
   19DOPE   H7R 2371   7.455   5.053  15.472  2.5776  1.3764 -1.7141
   19DOPE   H7S 2372   7.364   5.199  15.454  0.0852 -1.8517  3.1018
   19DOPE   C28 2373   7.469   5.118  15.269  0.3693 -0.3951  0.1700
   19DOPE   H8R 2374   7.496   5.026  15.214  1.1309  0.5027 -0.9910
   19DOPE   H8S 2375   7.565   5.162  15.303  1.1468 -0.9575 -1.2005
   19DOPE   C29 2376   7.407   5.217  15.174 -0.2521 -0.2981  0.2644
   19DOPE   H9R 2377   7.400   5.317  15.219  0.7745  0.5135 -1.2655
   19DOPE  C210 2378   7.356   5.204  15.047 -0.2068 -0.8053 -0.6684
   19DOPE  H10R 2379   7.344   5.300  14.993  1.2012  0.0074  0.3944
   19DOPE  C211 2380   7.350   5.075  14.967 -0.1491  0.5767 -0.2168
   19DOPE  H11R 2381   7.413   4.993  15.009 -2.1123 -1.2580 -0.6449
   19DOPE  H11S 2382   7.392   5.079  14.864 -0.8470  1.7486 -0.4783
   19DOPE  C212 2383   7.207   5.015  14.962 -0.1066 -0.3442  0.2875
   19DOPE  H12R 2384   7.130   5.088  14.927 -0.3211 -0.5671  0.2889
   19DOPE  H12S 2385   7.171   4.991  15.064 -0.1021 -3.0412 -0.2783
   19DOPE  C213 2386   7.182   4.896  14.870  0.0744  0.3275  0.1202
   19DOPE  H13R 2387   7.077   4.862  14.882 -0.2324  0.1633 -2.3492
   19DOPE  H13S 2388   7.252   4.821  14.911  3.7068  2.2715 -1.9408
   19DOPE  C214 2389   7.218   4.922  14.721 -0.2226  0.1496  0.9743
   19DOPE  H14R 2390   7.221   4.820  14.677 -0.0005  0.1270  1.0433
   19DOPE  H14S 2391   7.318   4.968  14.708 -0.6280  0.4928 -1.4957
   19DOPE  C215 2392   7.117   5.012  14.641 -0.1586 -0.1314  0.4062
   19DOPE  H15R 2393   7.148   5.019  14.534  1.2601 -1.6157  0.6799
   19DOPE  H15S 2394   7.121   5.118  14.674 -0.5407 -0.6675  2.2926
   19DOPE  C216 2395   6.972   4.964  14.659 -0.2651  0.5434 -0.6223
   19DOPE  H16R 2396   6.909   5.043  14.613 -1.8705  0.3328  1.1244
   19DOPE  H16S 2397   6.936   4.959  14.764 -0.5592 -0.0487 -0.7455
   19DOPE  C217 2398   6.931   4.823  14.592  0.2361 -0.2255 -0.3148
   19DOPE  H17R 2399   6.824   4.798  14.609  0.5338 -1.6793 -0.4104
   19DOPE  H17S 2400   6.981   4.748  14.657  1.1557  0.7476  0.1402
   19DOPE  C218 2401   6.958   4.812  14.446 -0.4831  0.4357 -0.4235
   19DOPE  H18R 2402   6.877   4.870  14.397 -0.9349 -1.5187 -2.1251
   19DOPE  H18S 2403   6.952   4.705  14.417  0.5001  0.8060 -2.1549
   19DOPE  H18T 2404   7.052   4.857  14.407 -1.7048  0.5778 -3.4801
   19DOPE   C33 2405   6.824   4.105  15.569  0.2636  0.2236  0.2279
   19DOPE   H3X 2406   6.803   3.997  15.582 -1.2143  0.3092 -1.1347
   19DOPE   H3Y 2407   6.932   4.124  15.551 -0.0465  1.0756 -0.8740
   19DOPE   C34 2408   6.766   4.155  15.435 -0.0261  0.2376 -0.2292
   19DOPE   H4X 2409   6.656   4.140  15.437 -0.1566  1.2138  0.8133
   19DOPE   H4Y 2410   6.781   4.261  15.407 -2.3777  0.7709  0.3279
   19DOPE   C35 2411   6.822   4.079  15.314  0.4373 -0.6937 -0.4279
   19DOPE   H5X 2412   6.788   3.974  15.320  0.0606 -0.5221  0.8987
   19DOPE   H5Y 2413   6.933   4.078  15.310  0.6881  0.7790  2.9179
   19DOPE   C36 2414   6.775   4.122  15.180 -0.0356  0.0516  0.2162
   19DOPE   H6X 2415   6.830   4.216  15.159 -0.7520  0.7976  1.5616
   19DOPE   H6Y 2416   6.664   4.129  15.184  0.0105  0.5398  3.6250
   19DOPE   C37 2417   6.811   4.018  15.069 -0.3334 -0.0508  0.0072
   19DOPE   H7X 2418   6.915   3.987  15.091 -0.2120  1.3630  1.6446
   19DOPE   H7Y 2419   6.756   3.924  15.090  1.3991 -0.8152  1.3715
   19DOPE   C38 2420   6.793   4.054  14.929  0.1389  0.1838  0.0884
   19DOPE   H8X 2421   6.839   3.979  14.861  0.3111  0.4161 -0.0540
   19DOPE   H8Y 2422   6.838   4.152  14.904  1.4768 -0.3430  0.3601
   19DOPE   C39 2423   6.649   4.071  14.891 -0.0780 -0.3104  0.8091
   19DOPE   H9X 2424   6.580   4.083  14.975  0.8577  2.9981  1.2374
   19DOPE  C310 2425   6.600   4.074  14.763  0.4897  0.3545  0.1810
   19DOPE  H10X 2426   6.492   4.058  14.754  0.8308 -1.5599 -1.1793
   19DOPE  C311 2427   6.669   4.054  14.633 -0.1648 -0.8423 -0.1968
   19DOPE  H11X 2428   6.641   4.140  14.568  0.0207 -1.0032 -0.4962
   19DOPE  H11Y 2429   6.779   4.059  14.650 -0.3634  0.0741  0.9105
   19DOPE  C312 2430   6.634   3.922  14.564 -0.3989 -0.5212  0.0996
   19DOPE  H12X 2431   6.684   3.903  14.467  0.7591 -0.3144  0.6487
   19DOPE  H12Y 2432   6.525   3.912  14.541 -0.9728  1.9858  1.4229
   19DOPE  C313 2433   6.668   3.792  14.645  0.1145  0.0573  0.4905
   19DOPE  H13X 2434   6.768   3.819  14.686 -0.8002 -1.1765  3.8466
   19DOPE  H13Y 2435   6.582   3.793  14.715 -0.6225  2.6435 -0.3256
   19DOPE  C314 2436   6.673   3.672  14.554 -0.5689 -0.2701  0.7737
   19DOPE  H14X 2437   6.723   3.702  14.460 -3.0233  0.8493 -0.2590
   19DOPE  H14Y 2438   6.565   3.659  14.532 -0.2596  0.5099 -1.4632
   19DOPE  C315 2439   6.719   3.553  14.620 -0.8877  0.4958  0.0491
   19DOPE  H15X 2440   6.687   3.554  14.727 -0.7328 -0.4802  0.1110
   19DOPE  H15Y 2441   6.830   3.560  14.623 -0.3921 -4.4229  2.0570
   19DOPE  C316 2442   6.675   3.422  14.556 -0.7201 -0.0371 -0.2888
   19DOPE  H16X 2443   6.686   3.426  14.446 -1.1415  0.6962 -0.3120
   19DOPE  H16Y 2444   6.569   3.400  14.579 -0.3833 -1.1749  0.2414
   19DOPE  C317 2445   6.749   3.299  14.617  0.5186  0.2029 -0.2786
   19DOPE  H17X 2446   6.734   3.320  14.725  0.4694  1.8560 -0.5941
   19DOPE  H17Y 2447   6.693   3.207  14.589 -0.1136 -0.0000  1.4787
   19DOPE  C318 2448   6.892   3.270  14.587 -0.4006 -0.3735 -0.1176
   19DOPE  H18X 2449   6.962   3.350  14.618 -2.4981  0.3092  3.4392
   19DOPE  H18Y 2450   6.925   3.184  14.648  2.3547 -0.6367 -1.8272
   19DOPE  H18Z 2451   6.892   3.253  14.477  1.3079 -1.3466  0.0148
   20DOPE     N 2452   5.191   6.520  16.485 -0.1810  0.5072 -0.3965
   20DOPE   HN1 2453   5.229   6.428  16.453  0.5904  0.6865 -0.0265
   20DOPE   HN2 2454   5.234   6.605  16.443 -1.3070  1.4836  0.3508
   20DOPE   HN3 2455   5.224   6.538  16.581 -0.2865  0.2453 -0.3100
   20DOPE   C12 2456   5.045   6.528  16.458 -0.1000  0.6632  0.3763
   20DOPE  H12A 2457   5.009   6.612  16.521  0.8652  1.3853  0.0016
   20DOPE  H12B 2458   5.000   6.433  16.494 -1.8756  1.7163  1.0766
   20DOPE   C11 2459   5.020   6.565  16.309  0.1800  0.3546  0.6008
   20DOPE  H11A 2460   4.911   6.551  16.292  0.5471 -0.4863 -1.3548
   20DOPE  H11B 2461   5.069   6.495  16.238 -0.7759  0.9267 -0.6666
   20DOPE     P 2462   5.180   6.752  16.214 -0.2620  0.1432 -0.3237
   20DOPE   O13 2463   5.284   6.699  16.300  0.0657 -0.5039 -0.0270
   20DOPE   O14 2464   5.178   6.898  16.201 -0.0425  0.0532 -0.0175
   20DOPE   O11 2465   5.180   6.676  16.069  0.1693 -0.4182 -0.0442
   20DOPE   O12 2466   5.043   6.699  16.280  0.7655 -0.2058 -0.4656
   20DOPE    C1 2467   5.065   6.684  15.983  0.1170 -0.5220  0.2473
   20DOPE    HA 2468   4.970   6.702  16.037  1.8788  1.4624  2.9896
   20DOPE    HB 2469   5.056   6.591  15.923  2.1275  0.6541 -2.0348
   20DOPE    C2 2470   5.070   6.800  15.891  0.0972 -0.2287 -0.1101
   20DOPE    HS 2471   5.082   6.889  15.957 -0.7438 -0.4120  0.2911
   20DOPE   O21 2472   4.948   6.811  15.821 -0.3469 -0.0631  0.4920
   20DOPE   C21 2473   4.840   6.845  15.882 -0.4792  0.3740  0.2417
   20DOPE   O22 2474   4.830   6.869  15.999 -0.0158 -0.0876 -0.1832
   20DOPE   C22 2475   4.719   6.855  15.781  0.2337  0.1764 -0.9578
   20DOPE   H2R 2476   4.641   6.904  15.843  1.0108 -0.2763  0.4114
   20DOPE   H2S 2477   4.692   6.750  15.757 -1.8574  0.6321 -0.8076
   20DOPE    C3 2478   5.190   6.785  15.787  0.7386 -0.8204 -0.0204
   20DOPE    HX 2479   5.181   6.685  15.741 -1.3842 -0.8442  0.3543
   20DOPE    HY 2480   5.290   6.777  15.834  0.3226 -3.7134  0.5576
   20DOPE   O31 2481   5.191   6.886  15.678 -0.1269  0.7468  0.0257
   20DOPE   C31 2482   5.233   7.007  15.711  0.2860  0.2891  0.0788
   20DOPE   O32 2483   5.258   7.034  15.826 -0.2052 -0.3415  0.4156
   20DOPE   C32 2484   5.261   7.092  15.585 -0.0635 -0.9273 -0.2629
   20DOPE   H2X 2485   5.355   7.052  15.541  0.3836 -0.6051  0.3678
   20DOPE   H2Y 2486   5.182   7.080  15.508  0.1373 -1.5664 -0.3747
   20DOPE   C23 2487   4.750   6.934  15.659 -0.0971 -0.0122  0.6328
   20DOPE   H3R 2488   4.650   6.932  15.609 -1.4026  0.1311  3.0503
   20DOPE   H3S 2489   4.829   6.886  15.599 -0.0118 -1.8842  2.1277
   20DOPE   C24 2490   4.807   7.073  15.694  0.7935 -0.3317 -0.0940
   20DOPE   H4R 2491   4.912   7.051  15.725  0.3571 -2.5755 -0.0507
   20DOPE   H4S 2492   4.755   7.108  15.786 -0.0455  3.5834 -1.8631
   20DOPE   C25 2493   4.808   7.182  15.588  0.5626  0.0882  0.0199
   20DOPE   H5R 2494   4.826   7.283  15.631 -0.5890  0.5217 -0.4845
   20DOPE   H5S 2495   4.707   7.198  15.545 -0.7249  2.5574  3.5120
   20DOPE   C26 2496   4.903   7.175  15.472 -0.0171  0.3870  0.0168
   20DOPE   H6R 2497   4.918   7.072  15.434 -0.0358  0.2421  0.4037
   20DOPE   H6S 2498   5.004   7.213  15.498  0.9025 -0.1870 -2.4261
   20DOPE   C27 2499   4.847   7.268  15.357  0.0082  0.1543 -0.7425
   20DOPE   H7R 2500   4.803   7.362  15.398 -0.1297  0.1408 -0.8589
   20DOPE   H7S 2501   4.767   7.201  15.321 -0.4445 -0.3055  0.9998
   20DOPE   C28 2502   4.951   7.307  15.248 -0.4545  0.4620 -0.5051
   20DOPE   H8R 2503   5.036   7.356  15.300 -0.2041  0.0891 -0.5530
   20DOPE   H8S 2504   4.901   7.381  15.181  1.3499  1.0024 -1.3215
   20DOPE   C29 2505   5.011   7.187  15.182 -0.5092 -0.9531 -0.1383
   20DOPE   H9R 2506   4.971   7.087  15.207  0.1842 -1.0065  0.8246
   20DOPE  C210 2507   5.103   7.197  15.083 -0.4199  0.6746 -0.2460
   20DOPE  H10R 2508   5.148   7.107  15.039  2.8143  0.0139  3.7763
   20DOPE  C211 2509   5.169   7.318  15.018  0.5004  0.4771 -1.0568
   20DOPE  H11R 2510   5.269   7.329  15.064 -0.0414 -0.8245  0.5365
   20DOPE  H11S 2511   5.119   7.415  15.034 -0.9370 -0.4504  0.4428
   20DOPE  C212 2512   5.198   7.294  14.868  1.2492  0.0921 -0.1170
   20DOPE  H12R 2513   5.259   7.201  14.860  0.0832 -0.8648  1.4192
   20DOPE  H12S 2514   5.258   7.373  14.818  1.5151  1.1445  1.7827
   20DOPE  C213 2515   5.067   7.263  14.787  0.4818  0.2297  0.3304
   20DOPE  H13R 2516   4.996   7.349  14.791 -0.3741 -0.1786 -3.0771
   20DOPE  H13S 2517   5.006   7.180  14.829 -1.0389  1.4177  0.5746
   20DOPE  C214 2518   5.106   7.233  14.643  0.6972  0.0640  0.4682
   20DOPE  H14R 2519   5.166   7.140  14.659  0.3152 -0.3166 -0.2316
   20DOPE  H14S 2520   5.173   7.313  14.604 -0.5699  2.0644  2.2157
   20DOPE  C215 2521   4.988   7.211  14.543 -0.6935 -0.3243  0.3222
   20DOPE  H15R 2522   4.921   7.300  14.537 -0.9337 -0.4800  0.6804
   20DOPE  H15S 2523   4.929   7.127  14.586  1.1746 -1.3006  1.0710
   20DOPE  C216 2524   5.044   7.176  14.402  0.0251 -0.4851  0.0733
   20DOPE  H16R 2525   5.135   7.112  14.404  0.3799 -0.0616 -1.3512
   20DOPE  H16S 2526   5.068   7.270  14.347 -1.0978  0.1945  0.7086
   20DOPE  C217 2527   4.937   7.102  14.314  0.0044  0.3004 -0.1195
   20DOPE  H17R 2528   4.982   7.094  14.213 -2.1338  0.2589 -1.1222
   20DOPE  H17S 2529   4.855   7.175  14.295  1.6383  1.9758 -1.0743
   20DOPE  C218 2530   4.890   6.965  14.367 -0.0382  0.1815  0.5238
   20DOPE  H18R 2531   4.808   6.931  14.300  0.7951  0.1983 -0.5205
   20DOPE  H18S 2532   4.847   6.962  14.470  2.2155 -1.0682  1.4972
   20DOPE  H18T 2533   4.980   6.899  14.368  0.1002  0.3434 -0.4064
   20DOPE   C33 2534   5.281   7.243  15.609  0.3809  0.8241 -0.0294
   20DOPE   H3X 2535   5.350   7.271  15.691  2.9734  2.2829 -2.4835
   20DOPE   H3Y 2536   5.182   7.290  15.628 -0.3068 -0.4715 -0.3190
   20DOPE   C34 2537   5.331   7.320  15.479  0.0671 -1.3048  0.1098
   20DOPE   H4X 2538   5.257   7.311  15.396 -1.1416 -0.5036  1.0699
   20DOPE   H4Y 2539   5.347   7.426  15.507 -0.8679 -1.7144  2.4010
   20DOPE   C35 2540   5.471   7.272  15.438  0.3193 -0.0655 -0.0950
   20DOPE   H5X 2541   5.462   7.163  15.421 -0.2829 -0.1638  0.7895
   20DOPE   H5Y 2542   5.546   7.306  15.513  0.7356  0.0578 -0.5584
   20DOPE   C36 2543   5.513   7.341  15.306 -0.8263  0.4852  0.4034
   20DOPE   H6X 2544   5.526   7.451  15.311 -1.1251  0.5209  0.3948
   20DOPE   H6Y 2545   5.436   7.318  15.230 -2.3653  0.1087  2.0121
   20DOPE   C37 2546   5.642   7.283  15.244  0.1316 -0.0328 -0.0902
   20DOPE   H7X 2547   5.736   7.309  15.297  0.4164 -1.0443 -0.0630
   20DOPE   H7Y 2548   5.623   7.173  15.239  1.4800 -0.2978  0.3971
   20DOPE   C38 2549   5.664   7.327  15.098  0.2623  0.3938  0.4077
   20DOPE   H8X 2550   5.721   7.422  15.107  0.0305  0.4110  2.1060
   20DOPE   H8Y 2551   5.567   7.346  15.047  0.4927  1.5372  0.3626
   20DOPE   C39 2552   5.760   7.237  15.014 -0.0476  0.0577  0.6091
   20DOPE   H9X 2553   5.723   7.133  15.011  1.1335 -0.3628 -1.3238
   20DOPE  C310 2554   5.880   7.268  14.956  0.3550 -0.5384 -0.3607
   20DOPE  H10X 2555   5.939   7.192  14.902 -2.0922 -1.8029 -1.4051
   20DOPE  C311 2556   5.953   7.398  14.961 -0.2484  0.0734 -0.0956
   20DOPE  H11X 2557   5.979   7.427  14.857  2.7725 -0.5699  0.4026
   20DOPE  H11Y 2558   5.891   7.483  14.996 -2.2357 -0.3776 -2.2369
   20DOPE  C312 2559   6.081   7.406  15.036 -0.3969  0.3759  0.4528
   20DOPE  H12X 2560   6.130   7.503  15.012 -0.0417  0.2715  0.7398
   20DOPE  H12Y 2561   6.146   7.319  15.011 -0.9742  0.0259  0.1540
   20DOPE  C313 2562   6.063   7.415  15.191  0.2454 -0.5801  0.1380
   20DOPE  H13X 2563   5.966   7.372  15.224  0.4488 -1.5314 -0.4574
   20DOPE  H13Y 2564   6.136   7.347  15.240  0.9775 -1.2992 -1.8388
   20DOPE  C314 2565   6.073   7.554  15.250  0.2855  0.0669 -0.0217
   20DOPE  H14X 2566   5.984   7.600  15.202 -0.0359 -2.5192 -2.1446
   20DOPE  H14Y 2567   6.162   7.605  15.209  1.3625 -0.9196  1.0122
   20DOPE  C315 2568   6.072   7.548  15.403 -0.6698 -0.2845  0.1581
   20DOPE  H15X 2569   6.098   7.647  15.447 -0.5676 -1.1105  2.0416
   20DOPE  H15Y 2570   6.163   7.487  15.425 -0.0587 -1.0382 -3.7107
   20DOPE  C316 2571   5.952   7.489  15.473 -0.0926 -0.1141  0.0874
   20DOPE  H16X 2572   5.948   7.382  15.444  0.3298 -0.2186  0.4017
   20DOPE  H16Y 2573   5.859   7.537  15.435  0.9223  1.2709 -0.7642
   20DOPE  C317 2574   5.962   7.476  15.620 -0.0238  0.0507 -0.2044
   20DOPE  H17X 2575   5.946   7.577  15.665  3.0374  0.8469 -0.6613
   20DOPE  H17Y 2576   5.880   7.409  15.652  1.2434 -0.9468  1.0809
   20DOPE  C318 2577   6.091   7.415  15.672 -0.6611  0.0941 -0.2632
   20DOPE  H18X 2578   6.182   7.462  15.630 -1.9493  1.8208 -1.2499
   20DOPE  H18Y 2579   6.084   7.432  15.782  2.2054  1.6881 -0.2449
   20DOPE  H18Z 2580   6.083   7.307  15.645  0.5735 -0.3501  0.9760
   21DOPE     N 2581   3.220   1.099  15.875  0.0304 -0.8214  0.3049
   21DOPE   HN1 2582   3.312   1.138  15.902 -0.5180  1.1355 -0.4533
   21DOPE   HN2 2583   3.182   1.166  15.804 -0.1871 -1.0901  0.1637
   21DOPE   HN3 2584   3.151   1.090  15.953 -0.1543 -0.7861  0.1488
   21DOPE   C12 2585   3.220   0.965  15.804 -0.8388 -0.2983  0.3336
   21DOPE  H12A 2586   3.269   0.977  15.705 -1.2976 -0.7205  0.0484
   21DOPE  H12B 2587   3.114   0.936  15.787 -1.3328  1.0721  0.9085
   21DOPE   C11 2588   3.283   0.856  15.886 -0.0929  0.0709 -1.1567
   21DOPE  H11A 2589   3.386   0.888  15.912  0.1338 -2.0297  0.8574
   21DOPE  H11B 2590   3.301   0.758  15.837  4.5430 -0.5498  1.2530
   21DOPE     P 2591   3.133   0.712  16.042 -0.2027  0.0502  0.1640
   21DOPE   O13 2592   3.027   0.757  16.138  0.0707  0.1013  0.2547
   21DOPE   O14 2593   3.220   0.603  16.083 -0.3761  0.9482 -0.2522
   21DOPE   O11 2594   3.064   0.681  15.910 -0.1330 -0.2919  0.1794
   21DOPE   O12 2595   3.215   0.842  16.015 -0.5153 -0.2855 -0.1892
   21DOPE    C1 2596   2.927   0.716  15.879 -0.1349 -0.3622 -0.0103
   21DOPE    HA 2597   2.920   0.739  15.770 -0.5133 -0.2189  0.0426
   21DOPE    HB 2598   2.889   0.807  15.929  1.3988  1.3110 -1.7269
   21DOPE    C2 2599   2.820   0.605  15.913 -0.1568  0.6438  0.3906
   21DOPE    HS 2600   2.827   0.581  16.021 -0.9906  0.6877  0.4642
   21DOPE   O21 2601   2.859   0.485  15.831 -0.1146  0.1244  0.1729
   21DOPE   C21 2602   2.816   0.372  15.872  0.1383 -0.2910 -0.0887
   21DOPE   O22 2603   2.741   0.361  15.968  0.0651  0.6404 -0.4027
   21DOPE   C22 2604   2.853   0.265  15.782  0.5393  0.3984 -0.0523
   21DOPE   H2R 2605   2.941   0.209  15.821 -1.1588 -2.8914 -0.5093
   21DOPE   H2S 2606   2.878   0.321  15.690  0.3227  0.3931 -0.1169
   21DOPE    C3 2607   2.684   0.652  15.870  0.2398 -0.0522 -0.0926
   21DOPE    HX 2608   2.678   0.683  15.764 -1.5040  0.4994  0.1438
   21DOPE    HY 2609   2.663   0.750  15.919 -0.5727  0.6015 -1.6780
   21DOPE   O31 2610   2.578   0.569  15.913 -0.3588  0.3107 -0.0666
   21DOPE   C31 2611   2.513   0.492  15.819  0.8024 -0.0470 -0.5376
   21DOPE   O32 2612   2.550   0.476  15.701  0.0471 -0.4962 -0.1651
   21DOPE   C32 2613   2.398   0.426  15.893  0.6984  0.0504  0.6133
   21DOPE   H2X 2614   2.430   0.328  15.935  0.4987  0.1980  1.1264
   21DOPE   H2Y 2615   2.378   0.481  15.988  1.5075 -1.8057  1.9243
   21DOPE   C23 2616   2.736   0.165  15.768 -0.4117  0.2998 -0.1686
   21DOPE   H3R 2617   2.655   0.217  15.714  0.7864  2.2145 -0.1975
   21DOPE   H3S 2618   2.706   0.112  15.861 -1.5389  1.3528  0.0889
   21DOPE   C24 2619   2.771   0.044  15.681  0.3406  0.3118  0.2561
   21DOPE   H4R 2620   2.780   0.071  15.574  0.0851 -1.7566 -0.3410
   21DOPE   H4S 2621   2.685  -0.027  15.683 -0.0703  0.7991  0.2498
   21DOPE   C25 2622   2.893  -0.037  15.731  0.1874  0.4275  1.5406
   21DOPE   H5R 2623   2.885  -0.060  15.840  1.5790 -0.9795  1.3811
   21DOPE   H5S 2624   2.983   0.027  15.719  0.8537 -0.5012  1.4661
   21DOPE   C26 2625   2.914  -0.184  15.673  0.4310  0.2617 -0.4123
   21DOPE   H6R 2626   2.989  -0.240  15.733 -1.1560 -2.8492 -1.0879
   21DOPE   H6S 2627   2.962  -0.170  15.574 -0.5993 -1.0920 -1.1419
   21DOPE   C27 2628   2.788  -0.275  15.662  0.2038 -0.0282 -0.6226
   21DOPE   H7R 2629   2.716  -0.227  15.592 -1.9276  0.8691  2.0360
   21DOPE   H7S 2630   2.732  -0.267  15.758 -1.6177 -0.8730 -1.5696
   21DOPE   C28 2631   2.807  -0.422  15.630 -0.0236  0.1555 -0.3401
   21DOPE   H8R 2632   2.864  -0.471  15.712 -0.8150 -1.6185 -0.8129
   21DOPE   H8S 2633   2.877  -0.423  15.544  0.5639  2.0667  0.0657
   21DOPE   C29 2634   2.680  -0.492  15.595 -0.7047 -0.0705 -0.2420
   21DOPE   H9R 2635   2.602  -0.494  15.673 -2.2652 -0.9857 -1.7495
   21DOPE  C210 2636   2.634  -0.530  15.476 -0.4979  0.0943  0.1398
   21DOPE  H10R 2637   2.537  -0.580  15.478  0.2657 -1.4888 -0.4182
   21DOPE  C211 2638   2.699  -0.513  15.340  0.0646  0.5852 -1.0550
   21DOPE  H11R 2639   2.736  -0.611  15.303  0.3220 -0.0927  0.8380
   21DOPE  H11S 2640   2.785  -0.443  15.345  0.2820  0.2950 -0.5979
   21DOPE  C212 2641   2.617  -0.443  15.233  0.1665 -0.4998 -0.0645
   21DOPE  H12R 2642   2.562  -0.357  15.275 -0.4973  0.7060 -3.1292
   21DOPE  H12S 2643   2.543  -0.523  15.209  0.4614 -1.7440  2.7885
   21DOPE  C213 2644   2.705  -0.402  15.114  0.3487 -0.9955  0.8521
   21DOPE  H13R 2645   2.773  -0.490  15.107 -0.6876 -1.6836 -1.6809
   21DOPE  H13S 2646   2.767  -0.314  15.140  0.5739 -0.9951  0.3330
   21DOPE  C214 2647   2.634  -0.370  14.979  0.3131  0.6690  0.6261
   21DOPE  H14R 2648   2.548  -0.300  14.983 -0.6372 -0.2221 -1.8932
   21DOPE  H14S 2649   2.595  -0.464  14.933  1.9196 -0.1266  0.8319
   21DOPE  C215 2650   2.737  -0.326  14.872  0.1850 -0.2023  0.3873
   21DOPE  H15R 2651   2.836  -0.372  14.890  0.0674 -0.4710  0.3549
   21DOPE  H15S 2652   2.750  -0.216  14.873  0.2664 -0.1925 -0.5895
   21DOPE  C216 2653   2.695  -0.350  14.722 -0.1878  0.1765 -0.0438
   21DOPE  H16R 2654   2.613  -0.422  14.707  0.2587  0.0843 -2.3953
   21DOPE  H16S 2655   2.790  -0.381  14.673  0.3794 -1.7891  2.1189
   21DOPE  C217 2656   2.641  -0.226  14.654 -0.0551  0.4178 -1.0154
   21DOPE  H17R 2657   2.716  -0.144  14.654 -0.1890  0.5624  0.2605
   21DOPE  H17S 2658   2.552  -0.181  14.703 -0.2481  1.8833 -2.6034
   21DOPE  C218 2659   2.619  -0.256  14.505 -0.8975 -0.2120 -0.0979
   21DOPE  H18R 2660   2.712  -0.287  14.452 -0.6484  0.9056 -0.3506
   21DOPE  H18S 2661   2.581  -0.171  14.444  1.3395 -0.4982 -2.0468
   21DOPE  H18T 2662   2.539  -0.333  14.510 -2.1009  1.0970  2.8643
   21DOPE   C33 2663   2.268   0.406  15.807  0.2417  0.7816 -0.3885
   21DOPE   H3X 2664   2.242   0.498  15.750 -2.5029 -0.4581 -1.3416
   21DOPE   H3Y 2665   2.184   0.393  15.878 -0.1269  0.0166 -0.9434
   21DOPE   C34 2666   2.270   0.277  15.733  0.0299  0.5858  0.8488
   21DOPE   H4X 2667   2.306   0.195  15.799 -1.1902  0.0441  0.8729
   21DOPE   H4Y 2668   2.164   0.254  15.712  0.3830  0.4051 -0.8813
   21DOPE   C35 2669   2.339   0.273  15.592  0.7190 -0.3447  0.2393
   21DOPE   H5X 2670   2.444   0.264  15.629  0.0193  0.3418  2.5172
   21DOPE   H5Y 2671   2.336   0.369  15.537  0.5517 -1.3653 -1.6368
   21DOPE   C36 2672   2.302   0.162  15.499  0.0269 -0.1334 -0.6066
   21DOPE   H6X 2673   2.202   0.189  15.458 -0.3744 -0.2962  0.2515
   21DOPE   H6Y 2674   2.278   0.069  15.554  1.6301 -0.3113 -0.1598
   21DOPE   C37 2675   2.410   0.123  15.393  0.0387 -0.5767 -0.3536
   21DOPE   H7X 2676   2.442   0.212  15.335  1.3688 -1.1521 -0.5329
   21DOPE   H7Y 2677   2.493   0.078  15.451 -0.0422 -0.0046  0.2255
   21DOPE   C38 2678   2.345   0.021  15.296 -0.4294  0.3729 -0.1067
   21DOPE   H8X 2679   2.267   0.080  15.243 -0.9947 -1.9832 -2.0570
   21DOPE   H8Y 2680   2.289  -0.063  15.342  0.6321 -0.3625 -0.1277
   21DOPE   C39 2681   2.434  -0.039  15.198 -0.4799 -0.2047  0.1901
   21DOPE   H9X 2682   2.509  -0.109  15.239 -0.3798 -0.4160 -0.3380
   21DOPE  C310 2683   2.422  -0.034  15.065 -0.6065 -0.0109  0.5171
   21DOPE  H10X 2684   2.494  -0.084  14.999 -1.5335  0.7605 -1.1330
   21DOPE  C311 2685   2.318   0.032  14.983 -0.4390 -0.0960 -0.5079
   21DOPE  H11X 2686   2.276  -0.054  14.926 -0.1357 -1.0177  0.6115
   21DOPE  H11Y 2687   2.240   0.074  15.050  1.5415  0.2033  1.7265
   21DOPE  C312 2688   2.359   0.139  14.883  0.4146 -0.6240  0.5715
   21DOPE  H12X 2689   2.406   0.223  14.938 -0.1149  0.3615 -0.4283
   21DOPE  H12Y 2690   2.274   0.193  14.836  2.0837 -0.4509 -2.6023
   21DOPE  C313 2691   2.441   0.091  14.769  0.0781  0.1498 -0.4629
   21DOPE  H13X 2692   2.533   0.040  14.805 -0.6172 -0.4835  0.4642
   21DOPE  H13Y 2693   2.378   0.019  14.713 -2.1049  1.4835  0.1480
   21DOPE  C314 2694   2.492   0.200  14.672  0.3963  0.2235  0.1787
   21DOPE  H14X 2695   2.569   0.270  14.711  1.0626  0.3605 -1.2895
   21DOPE  H14Y 2696   2.401   0.259  14.649  0.1746 -0.8338 -1.9118
   21DOPE  C315 2697   2.533   0.156  14.532 -0.6035 -0.3994 -0.4111
   21DOPE  H15X 2698   2.443   0.129  14.472  1.6464 -1.3330 -3.6449
   21DOPE  H15Y 2699   2.604   0.071  14.546 -0.5503 -0.1094  1.2925
   21DOPE  C316 2700   2.591   0.274  14.447 -0.2346  0.2004 -0.5644
   21DOPE  H16X 2701   2.673   0.328  14.500 -1.3035  0.8496  0.4892
   21DOPE  H16Y 2702   2.508   0.346  14.431 -0.8393 -0.1647  0.7406
   21DOPE  C317 2703   2.630   0.222  14.306  0.4775 -0.6430 -0.2762
   21DOPE  H17X 2704   2.729   0.178  14.328  0.0192 -0.6712  2.0163
   21DOPE  H17Y 2705   2.557   0.149  14.267 -1.3064  0.0585  1.5696
   21DOPE  C318 2706   2.665   0.336  14.210 -0.6298 -0.3996 -0.0941
   21DOPE  H18X 2707   2.721   0.422  14.254  1.4403 -1.1595 -1.1278
   21DOPE  H18Y 2708   2.706   0.291  14.117  0.1680 -1.0510  0.5573
   21DOPE  H18Z 2709   2.569   0.383  14.179 -1.7140 -2.9329 -0.8627
   22DOPE     N 2710   6.869   4.512  16.197  0.3847  0.3577 -0.4578
   22DOPE   HN1 2711   6.881   4.415  16.234 -0.2273 -0.1974 -1.6698
   22DOPE   HN2 2712   6.921   4.576  16.260  1.4446 -0.1873 -0.7613
   22DOPE   HN3 2713   6.772   4.534  16.166  0.4717  1.0714 -0.2266
   22DOPE   C12 2714   6.957   4.518  16.072  0.4663  0.2091  0.1408
   22DOPE  H12A 2715   6.915   4.441  16.003 -1.0681  2.6335 -1.7889
   22DOPE  H12B 2716   7.055   4.479  16.108  0.0974 -1.6765 -0.7520
   22DOPE   C11 2717   6.959   4.655  16.026  0.3112 -0.0905  0.4047
   22DOPE  H11A 2718   6.862   4.701  15.999  0.6000  0.5691  0.4494
   22DOPE  H11B 2719   7.029   4.661  15.940 -1.1631  2.3123 -0.7393
   22DOPE     P 2720   7.004   4.897  16.129  0.2038 -0.2594 -0.0621
   22DOPE   O13 2721   7.108   4.962  16.217 -0.1888  0.5020 -0.2780
   22DOPE   O14 2722   6.860   4.926  16.155  0.1822  0.2798  0.2574
   22DOPE   O11 2723   7.043   4.932  15.985 -0.1689  0.4948  0.7598
   22DOPE   O12 2724   7.020   4.740  16.124 -0.2860  0.4429  0.3101
   22DOPE    C1 2725   7.167   4.902  15.929 -0.0553 -0.6378  0.0474
   22DOPE    HA 2726   7.159   4.911  15.819  1.0332 -2.6015 -0.2413
   22DOPE    HB 2727   7.199   4.800  15.956 -0.2208 -0.5304  0.6680
   22DOPE    C2 2728   7.273   5.012  15.950 -0.0850 -0.5006 -0.8557
   22DOPE    HS 2729   7.267   5.051  16.054  0.5875  0.7129 -1.2569
   22DOPE   O21 2730   7.251   5.125  15.853  0.0110 -0.0989  0.3927
   22DOPE   C21 2731   7.317   5.236  15.890  0.0615 -0.4121  0.7983
   22DOPE   O22 2732   7.369   5.257  15.997 -0.1797  0.7132  0.3457
   22DOPE   C22 2733   7.316   5.337  15.783 -0.2026 -0.0777 -0.7513
   22DOPE   H2R 2734   7.265   5.427  15.825 -1.0244 -0.5998 -0.5998
   22DOPE   H2S 2735   7.253   5.293  15.702 -1.7132 -1.6393  1.1595
   22DOPE    C3 2736   7.415   4.951  15.933  0.0852 -0.6276  0.5548
   22DOPE    HX 2737   7.430   4.884  16.020 -0.6326 -1.0914  0.3278
   22DOPE    HY 2738   7.489   5.034  15.933 -0.5312 -0.0743  0.7046
   22DOPE   O31 2739   7.432   4.872  15.814 -0.0971 -0.2477 -0.0625
   22DOPE   C31 2740   7.549   4.847  15.773  0.3096  0.5403  0.2604
   22DOPE   O32 2741   7.652   4.885  15.827  0.8472 -0.3129  0.4513
   22DOPE   C32 2742   7.547   4.748  15.665  0.3670  0.4412  0.1501
   22DOPE   H2X 2743   7.573   4.644  15.692 -0.5801  0.0948 -0.2133
   22DOPE   H2Y 2744   7.443   4.734  15.628  0.4921 -0.0860 -0.0106
   22DOPE   C23 2745   7.461   5.351  15.728 -0.0070  0.6237 -0.4759
   22DOPE   H3R 2746   7.497   5.255  15.685 -2.6086  0.1805 -1.9169
   22DOPE   H3S 2747   7.525   5.383  15.812  0.4003 -1.0060 -0.1310
   22DOPE   C24 2748   7.468   5.462  15.630 -0.1143  0.2867  0.2742
   22DOPE   H4R 2749   7.496   5.555  15.683  1.2105  1.0039 -1.5432
   22DOPE   H4S 2750   7.367   5.476  15.586  0.0175  1.2059  0.2399
   22DOPE   C25 2751   7.575   5.441  15.524  0.1859  0.1922 -0.2559
   22DOPE   H5R 2752   7.545   5.346  15.475  0.0016 -0.9976  2.0184
   22DOPE   H5S 2753   7.676   5.422  15.567 -0.4393  0.4067  1.3771
   22DOPE   C26 2754   7.582   5.550  15.424  0.4995 -0.6726  0.0761
   22DOPE   H6R 2755   7.609   5.646  15.473 -1.8964 -1.6948  3.8741
   22DOPE   H6S 2756   7.483   5.567  15.376  0.8702  2.8401  0.2665
   22DOPE   C27 2757   7.682   5.500  15.324 -0.2368 -0.2581  0.2134
   22DOPE   H7R 2758   7.671   5.390  15.314  3.1480 -0.5880 -0.9087
   22DOPE   H7S 2759   7.783   5.518  15.366 -0.0066  0.2487 -0.5458
   22DOPE   C28 2760   7.685   5.579  15.190  0.0638  0.4359  1.0162
   22DOPE   H8R 2761   7.773   5.552  15.129  0.4518 -0.7861  2.0725
   22DOPE   H8S 2762   7.717   5.676  15.234  0.5533 -1.0817  4.3644
   22DOPE   C29 2763   7.566   5.582  15.106 -0.0009  0.1370  0.0682
   22DOPE   H9R 2764   7.492   5.652  15.147 -0.3829 -0.8166  1.0641
   22DOPE  C210 2765   7.542   5.520  14.986 -0.1496 -1.0834  0.0283
   22DOPE  H10R 2766   7.451   5.539  14.928  1.3888  1.1594 -1.8252
   22DOPE  C211 2767   7.635   5.429  14.909  0.2385 -0.0888  0.5932
   22DOPE  H11R 2768   7.606   5.322  14.916  1.7529 -0.7200 -1.6450
   22DOPE  H11S 2769   7.744   5.437  14.929  0.3123  0.5636 -0.0452
   22DOPE  C212 2770   7.615   5.462  14.757  0.0989  0.0118  0.3749
   22DOPE  H12R 2771   7.621   5.571  14.736 -0.8405 -0.0650 -0.3938
   22DOPE  H12S 2772   7.512   5.433  14.727  0.0835  1.0757 -0.6592
   22DOPE  C213 2773   7.717   5.377  14.673 -0.4604  0.2855  0.1938
   22DOPE  H13R 2774   7.671   5.363  14.573 -3.3430  0.6234  1.3669
   22DOPE  H13S 2775   7.730   5.280  14.724 -1.1926 -0.6958 -1.4306
   22DOPE  C214 2776   7.856   5.446  14.667 -0.0037  0.8994 -0.2332
   22DOPE  H14R 2777   7.894   5.432  14.771 -4.5130 -2.3089  1.3032
   22DOPE  H14S 2778   7.845   5.555  14.653  0.2983  1.1725  1.3848
   22DOPE  C215 2779   7.957   5.387  14.567  0.3546 -0.8817  0.4270
   22DOPE  H15R 2780   7.912   5.387  14.466  0.6321 -2.5021  0.2740
   22DOPE  H15S 2781   7.988   5.282  14.585 -0.1613 -0.9752  0.8061
   22DOPE  C216 2782   8.085   5.470  14.565 -1.0065  0.8088  0.2613
   22DOPE  H16R 2783   8.138   5.440  14.658 -1.3335 -1.1672 -0.1528
   22DOPE  H16S 2784   8.059   5.576  14.585 -0.1463  0.7653  1.7505
   22DOPE  C217 2785   8.181   5.466  14.442 -0.2071  0.1844 -0.3023
   22DOPE  H17R 2786   8.198   5.367  14.395 -0.5642  0.6611 -1.4851
   22DOPE  H17S 2787   8.282   5.496  14.474  0.6394 -1.8666 -0.9000
   22DOPE  C218 2788   8.139   5.554  14.327 -0.1461  0.3507 -0.2322
   22DOPE  H18R 2789   8.125   5.653  14.376  0.2684 -0.5011  1.7276
   22DOPE  H18S 2790   8.040   5.539  14.280 -0.7190  0.2342  0.9783
   22DOPE  H18T 2791   8.224   5.558  14.255  0.5248  0.4478  0.5472
   22DOPE   C33 2792   7.631   4.791  15.546 -0.8421 -0.4928 -0.6233
   22DOPE   H3X 2793   7.736   4.778  15.580 -1.0603  1.1271  0.8446
   22DOPE   H3Y 2794   7.623   4.902  15.538 -2.1563 -0.3478  1.7844
   22DOPE   C34 2795   7.577   4.744  15.405 -0.3845  0.3136  0.4519
   22DOPE   H4X 2796   7.540   4.640  15.421  1.3082 -0.3299  0.4552
   22DOPE   H4Y 2797   7.494   4.812  15.377  0.0347  0.4067 -0.6069
   22DOPE   C35 2798   7.680   4.767  15.299  0.0580  0.2157  0.5809
   22DOPE   H5X 2799   7.769   4.703  15.314 -0.0580  0.1215  0.8972
   22DOPE   H5Y 2800   7.701   4.876  15.297 -0.3122  0.2893 -1.5454
   22DOPE   C36 2801   7.619   4.735  15.162 -0.1026  0.0717  0.3726
   22DOPE   H6X 2802   7.695   4.759  15.085  1.3201 -0.5537  1.5425
   22DOPE   H6Y 2803   7.534   4.806  15.148 -0.8220 -0.6043  1.1562
   22DOPE   C37 2804   7.581   4.585  15.164 -0.1663  0.4249 -0.3978
   22DOPE   H7X 2805   7.652   4.532  15.230 -0.3575  0.8237  0.1300
   22DOPE   H7Y 2806   7.477   4.585  15.203  0.3852 -0.2819  1.1369
   22DOPE   C38 2807   7.587   4.530  15.024 -0.0884  0.1533 -0.1730
   22DOPE   H8X 2808   7.574   4.420  15.032  0.2647 -0.0559 -2.0359
   22DOPE   H8Y 2809   7.688   4.558  14.987  0.1287 -1.9823 -1.3602
   22DOPE   C39 2810   7.480   4.571  14.930  0.1918  0.4936 -0.0818
   22DOPE   H9X 2811   7.380   4.542  14.966  0.5579  0.0840  0.6435
   22DOPE  C310 2812   7.492   4.623  14.807 -0.5870  0.1365 -0.9552
   22DOPE  H10X 2813   7.404   4.653  14.748 -0.5426 -0.7917 -1.5125
   22DOPE  C311 2814   7.623   4.653  14.741  0.4726 -0.6323 -0.1147
   22DOPE  H11X 2815   7.716   4.631  14.797  1.8217  2.0002 -1.1336
   22DOPE  H11Y 2816   7.621   4.587  14.652 -0.0660 -1.3989  0.4590
   22DOPE  C312 2817   7.632   4.799  14.684 -0.5298 -0.2124  0.2412
   22DOPE  H12X 2818   7.643   4.864  14.774  0.0342  0.9602 -0.6554
   22DOPE  H12Y 2819   7.536   4.835  14.641 -0.6673  1.8478  2.1226
   22DOPE  C313 2820   7.762   4.808  14.610  0.6194  1.0825 -0.3458
   22DOPE  H13X 2821   7.840   4.795  14.688 -1.1248  1.2879  1.5141
   22DOPE  H13Y 2822   7.763   4.718  14.545 -0.8025 -2.2781  3.7845
   22DOPE  C314 2823   7.769   4.938  14.521 -0.6800  0.1375  0.2256
   22DOPE  H14X 2824   7.754   5.027  14.585 -0.2484 -0.7210  1.5525
   22DOPE  H14Y 2825   7.689   4.930  14.443 -0.9501 -1.4103  0.6238
   22DOPE  C315 2826   7.912   4.942  14.463  0.2499  0.5716 -0.7354
   22DOPE  H15X 2827   7.924   4.846  14.408  1.7760  1.0946 -1.3849
   22DOPE  H15Y 2828   7.990   4.949  14.541  0.8661  0.8937 -1.3667
   22DOPE  C316 2829   7.925   5.047  14.360  0.5791  0.2591  0.2123
   22DOPE  H16X 2830   7.874   5.138  14.398 -0.3565 -0.1418 -0.0397
   22DOPE  H16Y 2831   7.866   5.021  14.269 -0.4773 -1.1602  1.2597
   22DOPE  C317 2832   8.072   5.073  14.328 -0.6910 -1.0375  0.2440
   22DOPE  H17X 2833   8.119   5.112  14.421  0.0553 -0.4690 -0.3613
   22DOPE  H17Y 2834   8.119   4.975  14.306  0.2482 -1.4370  3.5270
   22DOPE  C318 2835   8.110   5.162  14.206  0.6909  0.1730 -0.6406
   22DOPE  H18X 2836   8.063   5.121  14.113 -2.4098  0.1969  0.7729
   22DOPE  H18Y 2837   8.081   5.267  14.226 -0.4616 -0.1244 -0.6342
   22DOPE  H18Z 2838   8.217   5.166  14.176  0.8985 -0.0412  0.0590
   23DOPE     N 2839   4.331   0.234  16.191 -0.1863 -0.5006  0.8274
   23DOPE   HN1 2840   4.232   0.233  16.159  0.2496 -0.1766 -0.5992
   23DOPE   HN2 2841   4.388   0.275  16.115  0.9666 -1.4088  1.1711
   23DOPE   HN3 2842   4.363   0.135  16.196  1.2293  0.0012  2.1684
   23DOPE   C12 2843   4.347   0.302  16.319  0.3031  0.0273 -0.7216
   23DOPE  H12A 2844   4.270   0.278  16.396 -0.3419  0.7059 -1.1292
   23DOPE  H12B 2845   4.340   0.412  16.303  1.8115  0.7537  2.7881
   23DOPE   C11 2846   4.491   0.276  16.373 -0.0253  0.2272  0.1724
   23DOPE  H11A 2847   4.511   0.167  16.373  0.0797  0.2234  1.6264
   23DOPE  H11B 2848   4.504   0.314  16.477 -2.1306  0.8434  0.2432
   23DOPE     P 2849   4.731   0.373  16.295 -0.0621  0.1477 -0.2020
   23DOPE   O13 2850   4.782   0.248  16.357  0.0021 -0.4685 -0.0224
   23DOPE   O14 2851   4.759   0.503  16.367 -0.2848  0.3792 -0.2616
   23DOPE   O11 2852   4.778   0.390  16.151 -0.2722 -0.8707 -0.1054
   23DOPE   O12 2853   4.577   0.342  16.274 -0.2927 -0.1743 -0.8264
   23DOPE    C1 2854   4.708   0.375  16.031 -0.0636  0.3722 -0.0823
   23DOPE    HA 2855   4.653   0.279  16.045  0.4583 -0.0680 -0.9574
   23DOPE    HB 2856   4.777   0.366  15.944  0.4972 -1.7419  0.5129
   23DOPE    C2 2857   4.622   0.500  16.000 -0.0814 -0.3783  0.4382
   23DOPE    HS 2858   4.535   0.501  16.068 -1.0520 -0.3741 -0.7752
   23DOPE   O21 2859   4.578   0.476  15.866 -0.2951  0.4311  0.4117
   23DOPE   C21 2860   4.476   0.391  15.864 -0.1890 -0.8866  0.0870
   23DOPE   O22 2861   4.437   0.322  15.957  0.1652 -0.0968 -0.0482
   23DOPE   C22 2862   4.418   0.389  15.721  0.6930 -0.1462  0.3294
   23DOPE   H2R 2863   4.496   0.375  15.643  0.2195 -1.7089  0.1083
   23DOPE   H2S 2864   4.370   0.488  15.710 -1.3014 -0.9605  1.2021
   23DOPE    C3 2865   4.703   0.637  16.017  0.7511  0.3437 -0.3631
   23DOPE    HX 2866   4.809   0.617  15.990  0.8073  1.8125 -1.3723
   23DOPE    HY 2867   4.706   0.675  16.121  0.0999 -1.5246  0.3704
   23DOPE   O31 2868   4.660   0.745  15.929  0.0390  0.0191  0.2115
   23DOPE   C31 2869   4.699   0.733  15.804 -0.0823  0.0410  0.9140
   23DOPE   O32 2870   4.786   0.659  15.765 -0.2591  0.7224  0.6436
   23DOPE   C32 2871   4.598   0.809  15.711 -0.7086  0.5873 -0.2375
   23DOPE   H2X 2872   4.508   0.744  15.700 -1.0429  1.3317 -2.5928
   23DOPE   H2Y 2873   4.560   0.901  15.761 -2.8360  0.2773 -1.1654
   23DOPE   C23 2874   4.306   0.282  15.694  0.3750 -0.6548 -0.0871
   23DOPE   H3R 2875   4.240   0.280  15.783  1.0937  1.5902  0.5602
   23DOPE   H3S 2876   4.351   0.180  15.688  1.8328  0.0020 -0.7282
   23DOPE   C24 2877   4.230   0.315  15.568  0.1134 -0.5077 -0.0836
   23DOPE   H4R 2878   4.304   0.353  15.494  0.5572 -1.4994 -0.1686
   23DOPE   H4S 2879   4.156   0.393  15.595 -0.4004 -1.0668  0.1525
   23DOPE   C25 2880   4.163   0.191  15.499 -0.6637  0.3088 -0.0003
   23DOPE   H5R 2881   4.078   0.151  15.559  0.8396 -0.3290  1.7889
   23DOPE   H5S 2882   4.246   0.118  15.504  0.6060  1.7783  1.5050
   23DOPE   C26 2883   4.119   0.237  15.362 -0.4235 -0.1707 -0.1749
   23DOPE   H6R 2884   4.191   0.311  15.320 -0.8852 -0.2556 -1.1294
   23DOPE   H6S 2885   4.021   0.289  15.357 -0.0226  0.5067 -3.5870
   23DOPE   C27 2886   4.110   0.118  15.272 -0.4376  0.5377 -0.2283
   23DOPE   H7R 2887   4.028   0.045  15.289  0.9429 -0.7919  1.1083
   23DOPE   H7S 2888   4.202   0.057  15.285 -0.7888 -0.0513 -0.5080
   23DOPE   C28 2889   4.104   0.143  15.120 -0.0447 -0.1989  0.7530
   23DOPE   H8R 2890   4.185   0.214  15.096 -1.1070  1.1943  1.1865
   23DOPE   H8S 2891   4.010   0.200  15.103 -1.2754 -2.4587 -0.5967
   23DOPE   C29 2892   4.107   0.017  15.029  0.0348 -0.4041 -0.1325
   23DOPE   H9R 2893   4.179  -0.065  15.043  0.7382  0.4302  1.3535
   23DOPE  C210 2894   4.011   0.003  14.932  0.0599  0.0766 -0.5074
   23DOPE  H10R 2895   3.989  -0.088  14.874 -3.7448  1.7096 -1.9947
   23DOPE  C211 2896   3.906   0.101  14.899  0.0228  0.1179 -0.4255
   23DOPE  H11R 2897   3.869   0.161  14.985 -1.7822 -0.9942 -0.3745
   23DOPE  H11S 2898   3.819   0.046  14.857  1.0684 -2.3437  0.5129
   23DOPE  C212 2899   3.955   0.201  14.800  0.3551 -0.0012  0.6017
   23DOPE  H12R 2900   3.973   0.150  14.703 -0.4353  0.7027  0.0661
   23DOPE  H12S 2901   4.051   0.244  14.834  0.4644  1.5379 -1.4904
   23DOPE  C213 2902   3.857   0.316  14.770  0.1624 -0.4692  0.2768
   23DOPE  H13R 2903   3.847   0.378  14.861 -1.5589 -1.9174  1.1390
   23DOPE  H13S 2904   3.761   0.266  14.744  0.1625  1.1971 -3.7057
   23DOPE  C214 2905   3.900   0.405  14.650 -0.1387 -0.4137 -0.4501
   23DOPE  H14R 2906   4.001   0.443  14.674  0.7562 -0.9026 -3.1558
   23DOPE  H14S 2907   3.822   0.483  14.632 -1.4943 -1.9098 -1.2936
   23DOPE  C215 2908   3.910   0.321  14.519  0.0329 -0.7900 -0.1136
   23DOPE  H15R 2909   3.829   0.247  14.504 -1.8210  1.4100 -1.7185
   23DOPE  H15S 2910   3.996   0.251  14.516  0.6046 -0.0901 -1.0287
   23DOPE  C216 2911   3.902   0.406  14.388 -0.4712  0.1731 -0.4722
   23DOPE  H16R 2912   3.803   0.458  14.393 -0.9919 -0.9049  1.3067
   23DOPE  H16S 2913   3.895   0.328  14.309 -1.6950 -0.6359  0.3914
   23DOPE  C217 2914   4.007   0.510  14.365 -0.0806 -0.7590  0.1573
   23DOPE  H17R 2915   4.099   0.455  14.337 -0.2460 -0.6116 -0.7027
   23DOPE  H17S 2916   4.034   0.552  14.465  1.3837 -3.3533  0.9279
   23DOPE  C218 2917   3.976   0.615  14.256  0.5212 -0.2327  0.1324
   23DOPE  H18R 2918   3.882   0.671  14.278  0.1186 -0.3581 -1.1393
   23DOPE  H18S 2919   3.966   0.565  14.157  0.9242  0.3553 -0.2130
   23DOPE  H18T 2920   4.056   0.692  14.256  0.0591  0.2564  0.1723
   23DOPE   C33 2921   4.654   0.832  15.569  0.5042 -0.0743 -0.6998
   23DOPE   H3X 2922   4.756   0.875  15.560 -0.0233  1.3355 -0.1886
   23DOPE   H3Y 2923   4.597   0.914  15.522  0.4614 -0.2195 -0.9002
   23DOPE   C34 2924   4.656   0.719  15.469  0.2160 -0.1735  0.3909
   23DOPE   H4X 2925   4.644   0.751  15.364  2.5568 -1.5562 -0.3810
   23DOPE   H4Y 2926   4.758   0.674  15.472 -0.0498 -0.7702  0.7828
   23DOPE   C35 2927   4.547   0.617  15.487 -0.6000 -0.1564  0.1235
   23DOPE   H5X 2928   4.446   0.663  15.488 -0.7703 -0.5357  1.2451
   23DOPE   H5Y 2929   4.568   0.556  15.578 -2.1279 -2.7779 -1.1454
   23DOPE   C36 2930   4.530   0.529  15.366  0.2440  0.3498  0.4466
   23DOPE   H6X 2931   4.462   0.445  15.390  0.9220 -0.0818  0.8755
   23DOPE   H6Y 2932   4.631   0.484  15.350  0.7294  1.6769 -0.4854
   23DOPE   C37 2933   4.472   0.595  15.235 -0.3518  0.0472  0.1594
   23DOPE   H7X 2934   4.365   0.620  15.251 -0.6277  0.1846 -1.6668
   23DOPE   H7Y 2935   4.527   0.685  15.201 -0.0320 -0.3394 -0.3720
   23DOPE   C38 2936   4.464   0.490  15.117 -1.0634  0.1959 -0.5734
   23DOPE   H8X 2937   4.407   0.407  15.164 -0.1327 -1.4078 -2.1385
   23DOPE   H8Y 2938   4.570   0.463  15.098 -0.9323 -0.3394  0.8544
   23DOPE   C39 2939   4.383   0.529  14.994  0.2057  0.5731 -0.5451
   23DOPE   H9X 2940   4.276   0.518  15.016 -0.2180 -0.1466 -2.6941
   23DOPE  C310 2941   4.428   0.550  14.869 -0.1213 -0.0869 -0.0443
   23DOPE  H10X 2942   4.356   0.565  14.787 -1.1066 -0.5759  0.7122
   23DOPE  C311 2943   4.572   0.545  14.823 -0.1963 -0.3709  0.3154
   23DOPE  H11X 2944   4.574   0.578  14.717  1.9722  0.6957  0.6153
   23DOPE  H11Y 2945   4.643   0.616  14.872 -0.6875  0.4677 -0.1596
   23DOPE  C312 2946   4.628   0.407  14.817 -0.0781 -1.1758 -0.3299
   23DOPE  H12X 2947   4.649   0.362  14.916 -0.2369  1.3203  0.9159
   23DOPE  H12Y 2948   4.725   0.413  14.763  0.5643  1.4151  0.9589
   23DOPE  C313 2949   4.548   0.310  14.736  0.5337  0.2514  0.1136
   23DOPE  H13X 2950   4.612   0.219  14.744 -0.5857 -0.6195 -0.5068
   23DOPE  H13Y 2951   4.452   0.298  14.790 -0.6696 -0.9315 -2.1061
   23DOPE  C314 2952   4.520   0.341  14.588  0.4451  0.3956  0.0262
   23DOPE  H14X 2953   4.608   0.381  14.533 -0.1422  3.0368  0.8652
   23DOPE  H14Y 2954   4.448   0.425  14.586 -0.3326 -0.1192  2.6660
   23DOPE  C315 2955   4.448   0.224  14.510 -0.1706 -0.0717 -0.3832
   23DOPE  H15X 2956   4.526   0.146  14.502  1.3283  1.3527 -0.1810
   23DOPE  H15Y 2957   4.435   0.272  14.410 -2.2559 -0.9005 -0.5569
   23DOPE  C316 2958   4.334   0.166  14.592  0.1062 -0.7829 -0.0041
   23DOPE  H16X 2959   4.277   0.251  14.636  0.6644 -0.5709  0.3180
   23DOPE  H16Y 2960   4.377   0.105  14.674  0.7215 -2.9474 -1.8219
   23DOPE  C317 2961   4.240   0.079  14.509  0.2281 -0.2221 -0.3356
   23DOPE  H17X 2962   4.287  -0.021  14.496  0.9065  0.3701 -3.0614
   23DOPE  H17Y 2963   4.145   0.066  14.565 -0.3797 -2.3174 -1.7247
   23DOPE  C318 2964   4.186   0.141  14.378 -0.1090 -0.4962 -0.7671
   23DOPE  H18X 2965   4.104   0.083  14.330 -0.4367  0.1146 -0.9463
   23DOPE  H18Y 2966   4.153   0.242  14.410  1.0105 -0.3212 -0.1210
   23DOPE  H18Z 2967   4.271   0.158  14.309  2.7999  0.0043  2.6819
   24DOPE     N 2968   6.114   6.991  16.551 -0.4684  0.2415  0.2498
   24DOPE   HN1 2969   6.207   6.999  16.506 -0.4804  0.4224  0.2571
   24DOPE   HN2 2970   6.063   7.082  16.547 -0.1109  0.4249 -0.2350
   24DOPE   HN3 2971   6.137   6.958  16.647 -0.7440  0.3319  0.3463
   24DOPE   C12 2972   6.019   6.902  16.468  0.1458 -0.4159 -0.2955
   24DOPE  H12A 2973   5.931   6.915  16.534 -0.0200 -0.1258 -0.5752
   24DOPE  H12B 2974   6.069   6.802  16.473 -0.1331 -0.5017  2.4617
   24DOPE   C11 2975   5.987   6.951  16.323  0.2253  0.5619  0.5845
   24DOPE  H11A 2976   6.077   6.955  16.257 -0.1016  4.4297  0.1503
   24DOPE  H11B 2977   5.960   7.058  16.330  0.7039  0.6210  1.8651
   24DOPE     P 2978   5.902   6.757  16.165  0.1832 -0.1320 -0.2495
   24DOPE   O13 2979   5.820   6.641  16.205  0.6202 -0.3484 -0.4756
   24DOPE   O14 2980   6.050   6.735  16.147 -0.1601 -0.1081 -1.1738
   24DOPE   O11 2981   5.832   6.820  16.041  0.0786 -0.2362 -0.2576
   24DOPE   O12 2982   5.878   6.868  16.277 -0.7920 -0.0600  0.0921
   24DOPE    C1 2983   5.878   6.939  15.976  0.1793  0.0770  0.6168
   24DOPE    HA 2984   5.985   6.959  15.999  0.2133  0.2034  0.3513
   24DOPE    HB 2985   5.820   7.033  15.990 -0.1926 -0.2528  1.3887
   24DOPE    C2 2986   5.880   6.916  15.824 -0.3329  0.1205  0.0165
   24DOPE    HS 2987   5.802   6.845  15.788 -1.9587  3.0801 -2.8651
   24DOPE   O21 2988   6.010   6.873  15.784 -0.6959  0.0647  0.6754
   24DOPE   C21 2989   6.034   6.741  15.795 -0.2156  0.1401  0.3257
   24DOPE   O22 2990   5.951   6.662  15.836 -0.1881 -0.1702 -0.2818
   24DOPE   C22 2991   6.161   6.707  15.715 -0.2297  0.3540  0.2519
   24DOPE   H2R 2992   6.254   6.741  15.765  1.3154 -1.2527 -1.3708
   24DOPE   H2S 2993   6.159   6.770  15.624  0.7832 -0.5515 -0.4245
   24DOPE    C3 2994   5.854   7.053  15.753  0.2808 -0.2220 -0.0769
   24DOPE    HX 2995   5.923   7.125  15.802  0.0074  0.3350 -0.5041
   24DOPE    HY 2996   5.748   7.081  15.771  0.6398 -0.0644  2.0730
   24DOPE   O31 2997   5.879   7.050  15.612  0.5040  0.4538 -0.3064
   24DOPE   C31 2998   5.792   6.992  15.533  0.3309 -0.2665  0.4178
   24DOPE   O32 2999   5.680   6.953  15.570 -0.5982 -0.3758 -0.4344
   24DOPE   C32 3000   5.836   6.997  15.388 -0.1099 -0.0792  0.3148
   24DOPE   H2X 3001   5.798   7.092  15.344  1.3206 -0.7624 -2.7013
   24DOPE   H2Y 3002   5.947   7.000  15.392 -0.0382  0.0903 -1.2828
   24DOPE   C23 3003   6.174   6.560  15.682  0.1335  0.4171 -0.0905
   24DOPE   H3R 3004   6.125   6.494  15.756 -1.3253 -0.2750 -1.6175
   24DOPE   H3S 3005   6.281   6.530  15.683  0.7564  2.4644  0.8886
   24DOPE   C24 3006   6.111   6.521  15.544 -0.2428 -0.3012  0.6948
   24DOPE   H4R 3007   6.000   6.523  15.552 -0.3652 -2.8717  0.6383
   24DOPE   H4S 3008   6.134   6.415  15.522  2.2126  0.0939  1.1116
   24DOPE   C25 3009   6.145   6.606  15.415 -0.5165  0.3106 -0.1365
   24DOPE   H5R 3010   6.255   6.608  15.398 -0.7719  0.4293 -1.9010
   24DOPE   H5S 3011   6.123   6.714  15.427 -0.2892  0.8056 -3.3132
   24DOPE   C26 3012   6.087   6.556  15.277 -0.5763  0.5881 -0.1123
   24DOPE   H6R 3013   6.089   6.629  15.194  1.5712 -1.8364 -2.3763
   24DOPE   H6S 3014   5.978   6.542  15.295 -0.2902  1.4962  2.7605
   24DOPE   C27 3015   6.147   6.411  15.237  0.6610 -0.2316  0.5794
   24DOPE   H7R 3016   6.095   6.353  15.316 -0.7639  1.1628  0.7255
   24DOPE   H7S 3017   6.257   6.420  15.240  0.5769  2.2583 -0.8084
   24DOPE   C28 3018   6.099   6.345  15.103 -0.3429 -1.0826  0.5148
   24DOPE   H8R 3019   6.159   6.255  15.079 -0.0613 -0.4786 -1.2413
   24DOPE   H8S 3020   6.117   6.413  15.016  0.8057 -1.6588  0.2785
   24DOPE   C29 3021   5.954   6.318  15.099 -0.3186 -0.0153 -0.8836
   24DOPE   H9R 3022   5.892   6.407  15.079 -0.9729 -0.3669 -0.4685
   24DOPE  C210 3023   5.886   6.204  15.112 -0.0331  1.1438 -0.3521
   24DOPE  H10R 3024   5.778   6.205  15.093 -0.1686 -0.2522  0.2147
   24DOPE  C211 3025   5.957   6.069  15.133 -0.2850 -0.3149 -0.1910
   24DOPE  H11R 3026   5.886   5.997  15.180 -0.7347  0.7694  0.8445
   24DOPE  H11S 3027   6.043   6.093  15.199  0.1340 -1.0063 -0.4675
   24DOPE  C212 3028   6.013   6.002  15.006 -0.5989 -0.3054 -0.3949
   24DOPE  H12R 3029   6.066   5.906  15.024  0.8939  0.6974  0.8399
   24DOPE  H12S 3030   6.094   6.064  14.961  0.9754  0.5386  3.2635
   24DOPE  C213 3031   5.908   5.975  14.902  0.6771  0.3033  0.2523
   24DOPE  H13R 3032   5.867   6.070  14.863 -1.3957 -0.7677 -0.2763
   24DOPE  H13S 3033   5.836   5.917  14.963  0.2351  2.4934  1.9606
   24DOPE  C214 3034   5.969   5.892  14.790  0.1802  0.7395  0.2217
   24DOPE  H14R 3035   6.003   5.793  14.829  0.2311  0.3491 -0.7798
   24DOPE  H14S 3036   6.063   5.936  14.751 -0.0315  1.5615  0.6322
   24DOPE  C215 3037   5.880   5.851  14.669  0.0636 -0.0682 -0.4688
   24DOPE  H15R 3038   5.868   5.944  14.610  0.5435  1.8476  2.2546
   24DOPE  H15S 3039   5.781   5.820  14.711 -0.1003  1.0548  0.0150
   24DOPE  C216 3040   5.931   5.744  14.583  0.5056  0.0973 -0.3361
   24DOPE  H16R 3041   5.960   5.660  14.650 -2.0905  0.4472  1.3716
   24DOPE  H16S 3042   6.023   5.771  14.527  1.0529 -3.0097 -1.0716
   24DOPE  C217 3043   5.819   5.687  14.489  0.1960 -0.4935  0.0521
   24DOPE  H17R 3044   5.783   5.771  14.427  0.2345 -1.2214 -0.9757
   24DOPE  H17S 3045   5.729   5.653  14.544  0.4234 -0.2946  0.5592
   24DOPE  C218 3046   5.867   5.568  14.401  0.3029  0.3912  0.0463
   24DOPE  H18R 3047   5.786   5.531  14.334  0.2987  2.0392 -0.9107
   24DOPE  H18S 3048   5.901   5.479  14.458 -1.4506 -0.1826  0.2646
   24DOPE  H18T 3049   5.948   5.611  14.338 -0.6530  2.4595  0.1646
   24DOPE   C33 3050   5.795   6.883  15.298  0.5076  0.5072 -0.0969
   24DOPE   H3X 3051   5.684   6.882  15.287 -0.1312  3.4420  3.5552
   24DOPE   H3Y 3052   5.827   6.788  15.346 -0.1855  0.2132 -0.1954
   24DOPE   C34 3053   5.839   6.891  15.156  0.7765  0.1937 -0.5983
   24DOPE   H4X 3054   5.810   6.990  15.114  1.0054  1.3533  1.8052
   24DOPE   H4Y 3055   5.950   6.885  15.146  0.9149  0.7309  0.5221
   24DOPE   C35 3056   5.776   6.778  15.072 -0.2467  0.4031  0.2198
   24DOPE   H5X 3057   5.665   6.790  15.065 -0.3263  0.0503  0.7929
   24DOPE   H5Y 3058   5.802   6.681  15.121 -1.8823 -1.2466 -1.9645
   24DOPE   C36 3059   5.845   6.778  14.932 -0.4256 -0.2130 -0.6567
   24DOPE   H6X 3060   5.946   6.734  14.941 -0.0187  0.5461 -1.3498
   24DOPE   H6Y 3061   5.863   6.880  14.892  1.1712  0.3524  1.3486
   24DOPE   C37 3062   5.767   6.698  14.825 -0.0082 -0.2437  0.4323
   24DOPE   H7X 3063   5.771   6.591  14.853 -2.3779 -0.4946  0.0625
   24DOPE   H7Y 3064   5.660   6.727  14.821 -0.1224 -0.7243 -0.1157
   24DOPE   C38 3065   5.813   6.737  14.688 -0.5539  0.0121 -0.3177
   24DOPE   H8X 3066   5.790   6.844  14.671 -0.5812  0.0173 -0.2475
   24DOPE   H8Y 3067   5.749   6.689  14.611  0.6391 -0.1403 -1.2492
   24DOPE   C39 3068   5.959   6.704  14.649 -0.6233 -0.4118  0.2867
   24DOPE   H9X 3069   5.975   6.596  14.654 -3.1261 -0.8962 -0.6576
   24DOPE  C310 3070   6.060   6.800  14.623  0.1610  0.3069  0.2646
   24DOPE  H10X 3071   6.157   6.754  14.599  0.1737  1.1954 -1.5888
   24DOPE  C311 3072   6.055   6.954  14.619 -0.0661  0.5996 -0.3655
   24DOPE  H11X 3073   5.958   6.982  14.664  0.8066  1.7403  0.8910
   24DOPE  H11Y 3074   6.137   7.000  14.677 -0.0112 -1.4134  1.2531
   24DOPE  C312 3075   6.082   6.998  14.471 -0.4637 -1.2231  0.6354
   24DOPE  H12X 3076   6.052   7.105  14.469  1.4120 -0.6629  0.5772
   24DOPE  H12Y 3077   6.011   6.953  14.398 -3.4887  2.3474  1.0980
   24DOPE  C313 3078   6.221   7.001  14.418  0.6071 -1.1825  0.1148
   24DOPE  H13X 3079   6.268   7.077  14.484 -1.3080  0.9004 -0.7659
   24DOPE  H13Y 3080   6.262   6.899  14.435 -1.9820 -2.0266  1.9873
   24DOPE  C314 3081   6.220   7.052  14.276 -0.6142  0.0328  0.1416
   24DOPE  H14X 3082   6.147   7.135  14.271 -2.3956 -1.4504  0.5549
   24DOPE  H14Y 3083   6.185   6.977  14.201  0.1743  1.1599 -1.4129
   24DOPE  C315 3084   6.358   7.116  14.239 -0.0353  0.9394 -0.0139
   24DOPE  H15X 3085   6.437   7.038  14.238 -0.3972  0.5089  1.4249
   24DOPE  H15Y 3086   6.382   7.200  14.308  1.2328  1.3932 -0.9599
   24DOPE  C316 3087   6.367   7.168  14.087  0.7695 -0.5476 -0.5642
   24DOPE  H16X 3088   6.263   7.181  14.049  0.3902 -1.1529  0.2225
   24DOPE  H16Y 3089   6.414   7.086  14.029  0.7516 -1.7398  1.0314
   24DOPE  C317 3090   6.458   7.290  14.058  0.2921  0.0803  0.2385
   24DOPE  H17X 3091   6.429   7.378  14.119 -0.1734  0.8111 -1.0068
   24DOPE  H17Y 3092   6.564   7.275  14.089  0.5278  0.7372 -0.2091
   24DOPE  C318 3093   6.448   7.326  13.907 -0.2103 -0.8331 -0.1801
   24DOPE  H18X 3094   6.536   7.386  13.876  0.8423 -0.3804  3.3168
   24DOPE  H18Y 3095   6.436   7.234  13.846 -1.4365 -0.6140 -0.2959
   24DOPE  H18Z 3096   6.352   7.378  13.885 -0.1927  0.5780  2.6609
   25DOPE     N 3097   6.907   5.949  16.224  0.1134  0.0998  0.0855
   25DOPE   HN1 3098   6.819   5.974  16.274 -0.7505 -0.1632 -1.2597
   25DOPE   HN2 3099   6.946   6.035  16.182  2.1612  0.5491  2.6468
   25DOPE   HN3 3100   6.871   5.887  16.149 -1.9370  1.1732  0.1203
   25DOPE   C12 3101   6.998   5.873  16.323  0.7158 -0.4712 -0.2758
   25DOPE  H12A 3102   6.948   5.783  16.367  2.2489 -0.8824  0.7162
   25DOPE  H12B 3103   7.026   5.947  16.401 -1.0481  0.2836 -0.2995
   25DOPE   C11 3104   7.129   5.832  16.259 -0.4191  0.1976  0.1853
   25DOPE  H11A 3105   7.107   5.761  16.176 -0.8236  0.6608 -0.1038
   25DOPE  H11B 3106   7.198   5.787  16.334  1.0269 -0.0532 -1.2204
   25DOPE     P 3107   7.297   5.933  16.098  0.0047 -0.7355 -0.1036
   25DOPE   O13 3108   7.408   5.842  16.143 -0.0424  0.2329  0.0953
   25DOPE   O14 3109   7.337   6.068  16.056 -0.0306 -0.3570 -0.7719
   25DOPE   O11 3110   7.219   5.858  15.982  0.2777 -1.3021  0.6567
   25DOPE   O12 3111   7.192   5.955  16.219  0.4845 -0.3218 -0.0093
   25DOPE    C1 3112   7.088   5.894  15.932  0.3918 -0.1027  0.6597
   25DOPE    HA 3113   7.050   5.986  15.980 -0.1023  0.9074 -1.5359
   25DOPE    HB 3114   7.014   5.811  15.943 -0.2142  0.1246 -1.2849
   25DOPE    C2 3115   7.089   5.936  15.784 -0.5385  0.0232 -0.0352
   25DOPE    HS 3116   6.986   5.970  15.761 -0.2089 -0.1016 -1.8508
   25DOPE   O21 3117   7.127   5.828  15.701 -0.7964 -0.1511 -0.7274
   25DOPE   C21 3118   7.044   5.728  15.685  0.4954 -0.6827 -0.2870
   25DOPE   O22 3119   6.929   5.721  15.720  1.1224  0.2292  0.3164
   25DOPE   C22 3120   7.121   5.622  15.601  0.8627 -0.4915 -0.0648
   25DOPE   H2R 3121   7.081   5.526  15.640 -0.0729 -0.6908 -1.4329
   25DOPE   H2S 3122   7.227   5.629  15.633  0.5218  0.7899  0.8374
   25DOPE    C3 3123   7.185   6.058  15.753 -0.1201  0.3747 -0.9892
   25DOPE    HX 3124   7.278   6.029  15.806 -1.0873 -0.9138  0.0660
   25DOPE    HY 3125   7.149   6.156  15.791 -1.8610  0.5186 -2.8529
   25DOPE   O31 3126   7.206   6.066  15.609  0.7451  0.8476  0.2021
   25DOPE   C31 3127   7.316   6.126  15.578 -0.2115  0.2267  0.4259
   25DOPE   O32 3128   7.389   6.186  15.655 -0.2913  0.8245 -0.6010
   25DOPE   C32 3129   7.331   6.112  15.427  0.4267 -0.2880  0.2852
   25DOPE   H2X 3130   7.237   6.081  15.377 -0.2011 -0.9896  1.8127
   25DOPE   H2Y 3131   7.336   6.216  15.390 -0.5988 -0.8160 -1.4869
   25DOPE   C23 3132   7.101   5.639  15.448 -0.6661 -0.4301  0.2042
   25DOPE   H3R 3133   7.003   5.689  15.432  0.0179  0.7677 -0.3885
   25DOPE   H3S 3134   7.093   5.542  15.393 -1.2647 -0.8504  1.0109
   25DOPE   C24 3135   7.216   5.726  15.392  0.2332 -0.8092  0.0066
   25DOPE   H4R 3136   7.315   5.677  15.400  1.1043  1.1219  2.1347
   25DOPE   H4S 3137   7.231   5.805  15.468  0.2952 -2.8662  2.2810
   25DOPE   C25 3138   7.179   5.794  15.257 -0.3780  0.0904  0.7024
   25DOPE   H5R 3139   7.269   5.854  15.235  0.3582 -1.0575  0.4955
   25DOPE   H5S 3140   7.103   5.873  15.276  0.2354  1.9476 -3.5960
   25DOPE   C26 3141   7.137   5.693  15.148 -0.5656 -0.7941  0.4764
   25DOPE   H6R 3142   7.033   5.669  15.177 -1.3487  2.7117  1.1096
   25DOPE   H6S 3143   7.191   5.598  15.165  0.8175 -0.6742 -2.6154
   25DOPE   C27 3144   7.162   5.742  15.005  0.1443  0.3040  0.3131
   25DOPE   H7R 3145   7.271   5.738  14.987 -0.1974 -2.7905 -1.7461
   25DOPE   H7S 3146   7.129   5.847  14.995 -4.1873 -0.9446 -0.5833
   25DOPE   C28 3147   7.082   5.654  14.905  0.8581  0.0782  0.5561
   25DOPE   H8R 3148   7.070   5.719  14.815  2.3593  0.5466  0.6664
   25DOPE   H8S 3149   6.976   5.657  14.939  0.2812 -1.3762 -0.9893
   25DOPE   C29 3150   7.125   5.511  14.870 -0.7106  0.2014  0.0020
   25DOPE   H9R 3151   7.093   5.431  14.938  0.7993  0.0030  0.5289
   25DOPE  C210 3152   7.192   5.483  14.757  0.1299  0.2290 -0.6490
   25DOPE  H10R 3153   7.217   5.378  14.736 -0.4773  0.1760 -1.1145
   25DOPE  C211 3154   7.226   5.582  14.648 -0.3245  1.0683 -0.6041
   25DOPE  H11R 3155   7.333   5.569  14.621 -1.1008 -2.6677 -2.5518
   25DOPE  H11S 3156   7.222   5.685  14.689 -0.4678  0.2126  1.6818
   25DOPE  C212 3157   7.130   5.569  14.527 -0.3018 -0.2856  0.3589
   25DOPE  H12R 3158   7.151   5.634  14.440 -3.0730 -0.9580 -0.9466
   25DOPE  H12S 3159   7.025   5.590  14.559 -0.6999  1.6042 -1.8811
   25DOPE  C213 3160   7.118   5.429  14.468  0.5547 -0.4170  1.3253
   25DOPE  H13R 3161   7.079   5.356  14.542 -4.2832  0.5412  0.0500
   25DOPE  H13S 3162   7.217   5.392  14.434  0.6871  1.3382 -0.4181
   25DOPE  C214 3163   7.023   5.429  14.348 -0.3161 -0.0542  0.0682
   25DOPE  H14R 3164   7.070   5.477  14.259  0.9587  0.3189  0.9110
   25DOPE  H14S 3165   6.934   5.493  14.362  0.2887  1.3677 -2.0907
   25DOPE  C215 3166   6.972   5.287  14.320 -0.7510  0.3321 -0.2995
   25DOPE  H15R 3167   6.933   5.240  14.413 -2.2301  1.2766 -0.4267
   25DOPE  H15S 3168   7.060   5.226  14.290  0.2388  1.2295  0.6948
   25DOPE  C216 3169   6.858   5.277  14.219 -0.3609 -0.7057  0.2019
   25DOPE  H16R 3170   6.875   5.334  14.125 -0.3576 -0.4382  0.3651
   25DOPE  H16S 3171   6.766   5.317  14.266 -0.4105 -0.8872  0.2593
   25DOPE  C217 3172   6.810   5.133  14.176 -0.3631  0.5154  0.9082
   25DOPE  H17R 3173   6.781   5.075  14.267  1.2411 -0.3013  0.9389
   25DOPE  H17S 3174   6.904   5.084  14.140 -0.8044 -0.1834  0.6769
   25DOPE  C218 3175   6.698   5.122  14.073 -0.6394 -0.1703  0.1354
   25DOPE  H18R 3176   6.732   5.169  13.978 -1.3080  2.5569  1.1465
   25DOPE  H18S 3177   6.602   5.163  14.110 -0.6625 -0.9854  1.0325
   25DOPE  H18T 3178   6.664   5.018  14.055 -0.6315 -0.3689  1.1844
   25DOPE   C33 3179   7.454   6.037  15.379 -0.0961 -0.2124  0.3263
   25DOPE   H3X 3180   7.452   5.932  15.415  2.1595 -0.2770  0.3952
   25DOPE   H3Y 3181   7.544   6.079  15.429  0.0863  0.2531 -0.3878
   25DOPE   C34 3182   7.471   6.048  15.225  0.2197  0.2405  0.3970
   25DOPE   H4X 3183   7.376   6.028  15.171 -0.4557  1.0452  1.2627
   25DOPE   H4Y 3184   7.503   6.152  15.206  0.6145  0.5293  2.4022
   25DOPE   C35 3185   7.579   5.954  15.174 -0.0918 -0.0460  0.0311
   25DOPE   H5X 3186   7.546   5.849  15.189 -4.7587  0.9615 -1.3334
   25DOPE   H5Y 3187   7.674   5.959  15.231 -0.3136  1.6146  0.3010
   25DOPE   C36 3188   7.612   5.971  15.030  0.2263  0.4343 -0.5624
   25DOPE   H6X 3189   7.696   5.901  15.010  0.2377 -0.1000  1.2303
   25DOPE   H6Y 3190   7.655   6.072  15.012  0.0389  0.6767  0.3171
   25DOPE   C37 3191   7.496   5.933  14.936  0.4125  0.4620  0.6820
   25DOPE   H7X 3192   7.439   5.848  14.981 -3.2323  1.9581 -0.6981
   25DOPE   H7Y 3193   7.424   6.018  14.936  0.7540  0.8093 -1.1504
   25DOPE   C38 3194   7.530   5.910  14.787 -0.1401 -0.2269  0.3866
   25DOPE   H8X 3195   7.437   5.884  14.732  0.8723 -1.8392 -0.6418
   25DOPE   H8Y 3196   7.601   5.825  14.781  0.4053  0.2561 -0.1421
   25DOPE   C39 3197   7.606   6.027  14.723  0.1067 -0.2244  0.9157
   25DOPE   H9X 3198   7.554   6.123  14.734 -0.0505 -0.0027 -1.2673
   25DOPE  C310 3199   7.727   6.033  14.652 -0.4913  0.1512  0.4203
   25DOPE  H10X 3200   7.763   6.131  14.619 -1.2871 -0.6562 -3.3220
   25DOPE  C311 3201   7.819   5.915  14.622  0.0977  0.7801  0.2134
   25DOPE  H11X 3202   7.916   5.927  14.675  0.6819 -0.4414 -0.5285
   25DOPE  H11Y 3203   7.769   5.824  14.660 -0.0789  0.8117  0.0600
   25DOPE  C312 3204   7.867   5.898  14.481 -0.1494 -0.5006  0.0500
   25DOPE  H12X 3205   7.787   5.859  14.414 -0.8041  2.5041 -1.0457
   25DOPE  H12Y 3206   7.947   5.822  14.481  0.8189  0.4759 -1.3399
   25DOPE  C313 3207   7.930   6.022  14.413 -0.0820 -0.4850  0.1963
   25DOPE  H13X 3208   7.862   6.108  14.430 -0.1690 -0.5326  0.0965
   25DOPE  H13Y 3209   8.018   6.048  14.476 -1.2117 -0.5357  1.8636
   25DOPE  C314 3210   7.960   6.013  14.264  0.3682  0.3696 -0.2291
   25DOPE  H14X 3211   8.046   5.946  14.243 -1.5529 -2.8374  1.3085
   25DOPE  H14Y 3212   7.971   6.116  14.224  3.9225 -0.0521 -0.6255
   25DOPE  C315 3213   7.846   5.954  14.176  0.2682 -0.7750  0.4946
   25DOPE  H15X 3214   7.748   5.980  14.221 -0.0238  0.0422 -0.5855
   25DOPE  H15Y 3215   7.842   5.843  14.180 -2.3987 -0.7471  0.1464
   25DOPE  C316 3216   7.849   6.014  14.033  0.0479  1.1128 -0.2530
   25DOPE  H16X 3217   7.863   6.124  14.044 -1.3767  1.3341 -0.4594
   25DOPE  H16Y 3218   7.752   6.010  13.980 -0.9651 -0.4851  1.6330
   25DOPE  C317 3219   7.947   5.941  13.937 -0.1430 -0.7080 -0.6855
   25DOPE  H17X 3220   8.050   5.941  13.980  0.1844  1.9946 -1.2681
   25DOPE  H17Y 3221   7.932   5.833  13.917  1.4587 -1.0495 -0.2440
   25DOPE  C318 3222   7.960   6.024  13.804 -0.0217  0.4344 -0.5402
   25DOPE  H18X 3223   8.055   6.005  13.750  0.4800 -1.2250  0.8242
   25DOPE  H18Y 3224   7.869   6.008  13.742 -0.1040  1.0351 -0.5756
   25DOPE  H18Z 3225   7.962   6.133  13.821 -0.4774  0.3198  0.2635
   26DOPE     N 3226   0.184   6.377  16.387 -0.1294  0.1643  0.4982
   26DOPE   HN1 3227   0.271   6.355  16.335 -0.5029 -1.6553  0.5853
   26DOPE   HN2 3228   0.158   6.468  16.342  2.6660  0.5730 -0.4904
   26DOPE   HN3 3229   0.207   6.387  16.488  2.4887  0.0356 -0.0127
   26DOPE   C12 3230   0.088   6.268  16.352  0.3488  0.2317 -0.4835
   26DOPE  H12A 3231   0.056   6.280  16.247 -0.9597 -0.7510 -0.2245
   26DOPE  H12B 3232  -0.000   6.285  16.417  1.2482 -0.2271  0.9252
   26DOPE   C11 3233   0.149   6.136  16.400 -1.0905 -0.1603  0.0883
   26DOPE  H11A 3234   0.096   6.046  16.361 -1.7239 -0.2062  1.0128
   26DOPE  H11B 3235   0.141   6.116  16.509  0.0693 -1.6207 -0.0486
   26DOPE     P 3236   0.378   6.001  16.372 -0.5171  0.0453 -0.1500
   26DOPE   O13 3237   0.381   5.939  16.507  0.6847 -0.0235 -0.0300
   26DOPE   O14 3238   0.501   6.043  16.308 -0.0185 -0.0086  0.2447
   26DOPE   O11 3239   0.311   5.906  16.269 -0.0717  0.4501  0.1810
   26DOPE   O12 3240   0.285   6.124  16.366 -0.0708  0.4971  0.8166
   26DOPE    C1 3241   0.280   5.957  16.143  0.3431  0.4500  0.4905
   26DOPE    HA 3242   0.349   6.037  16.110 -0.7408  1.7438  1.2351
   26DOPE    HB 3243   0.179   6.002  16.148 -0.1941 -0.6439 -0.0134
   26DOPE    C2 3244   0.279   5.840  16.032 -0.1383  0.1229  0.1211
   26DOPE    HS 3245   0.217   5.756  16.070 -0.9817  0.1052 -1.1974
   26DOPE   O21 3246   0.411   5.807  15.996  0.1999 -0.2253 -0.1295
   26DOPE   C21 3247   0.427   5.708  15.915 -0.0780  0.1254 -0.1853
   26DOPE   O22 3248   0.347   5.623  15.887  0.3432  0.1742  0.3044
   26DOPE   C22 3249   0.570   5.709  15.854 -0.4736 -0.0410  0.7904
   26DOPE   H2R 3250   0.649   5.690  15.931  1.2777  3.1580 -0.0125
   26DOPE   H2S 3251   0.588   5.815  15.826 -1.3636 -0.7592 -3.0360
   26DOPE    C3 3252   0.189   5.880  15.913 -0.1920  0.4443 -0.0227
   26DOPE    HX 3253   0.094   5.909  15.963 -0.4317 -1.5104  0.7636
   26DOPE    HY 3254   0.167   5.791  15.852  0.4982  1.0662 -1.2147
   26DOPE   O31 3255   0.256   5.982  15.837 -0.0792 -0.1496  0.6450
   26DOPE   C31 3256   0.195   6.005  15.724 -0.4771  0.1098  0.5949
   26DOPE   O32 3257   0.092   5.947  15.691 -0.4619  0.6477 -0.6243
   26DOPE   C32 3258   0.260   6.114  15.636  0.1089 -0.3873  0.1960
   26DOPE   H2X 3259   0.307   6.056  15.554  1.5115 -1.1084  1.4506
   26DOPE   H2Y 3260   0.164   6.157  15.601 -0.2250 -1.3380 -0.0874
   26DOPE   C23 3261   0.593   5.599  15.742 -0.3571 -0.1534 -0.2169
   26DOPE   H3R 3262   0.548   5.504  15.776 -0.6180  0.1361  0.2595
   26DOPE   H3S 3263   0.703   5.585  15.734 -0.0133  1.6701  0.6319
   26DOPE   C24 3264   0.528   5.632  15.609 -0.1041  0.4466  0.1707
   26DOPE   H4R 3265   0.419   5.645  15.623 -0.3874 -0.9304 -0.5573
   26DOPE   H4S 3266   0.546   5.546  15.541 -0.9598 -0.7542  1.4078
   26DOPE   C25 3267   0.579   5.759  15.538 -0.7962  0.1481  0.2111
   26DOPE   H5R 3268   0.689   5.751  15.523 -0.9532 -2.8671  0.1647
   26DOPE   H5S 3269   0.547   5.842  15.605 -2.3332  0.4196 -0.8236
   26DOPE   C26 3270   0.516   5.772  15.398  0.4736  0.0696 -0.4681
   26DOPE   H6R 3271   0.407   5.754  15.403  0.6006 -0.3384  2.3706
   26DOPE   H6S 3272   0.559   5.694  15.331 -1.5316 -1.6079  0.0959
   26DOPE   C27 3273   0.542   5.906  15.326  0.5229 -0.4201  0.7155
   26DOPE   H7R 3274   0.479   5.974  15.387 -0.4087  0.1916 -0.8659
   26DOPE   H7S 3275   0.501   5.910  15.223  0.2966 -2.6549  0.6749
   26DOPE   C28 3276   0.688   5.959  15.323 -0.5612 -0.5133 -0.5250
   26DOPE   H8R 3277   0.725   5.950  15.427 -0.9248 -0.5643 -0.3995
   26DOPE   H8S 3278   0.681   6.068  15.303  0.2387 -0.4857 -0.7123
   26DOPE   C29 3279   0.766   5.879  15.224  0.2023 -0.8987  0.6463
   26DOPE   H9R 3280   0.727   5.777  15.207  3.1848 -1.7514 -2.0089
   26DOPE  C210 3281   0.861   5.923  15.139 -0.3164 -0.4568 -0.6422
   26DOPE  H10R 3282   0.900   5.863  15.056  0.5926 -0.3734 -0.2901
   26DOPE  C211 3283   0.918   6.063  15.150  0.0066 -0.1026  0.6158
   26DOPE  H11R 3284   0.909   6.115  15.248 -0.4836  0.4441  0.2916
   26DOPE  H11S 3285   0.869   6.132  15.078  1.6975  1.5845  1.0145
   26DOPE  C212 3286   1.068   6.068  15.099  0.2789  0.2524 -1.2604
   26DOPE  H12R 3287   1.135   5.994  15.148 -0.3296 -1.6450 -3.1442
   26DOPE  H12S 3288   1.097   6.171  15.129 -1.0883  0.2372  0.2671
   26DOPE  C213 3289   1.083   6.057  14.946  0.9176 -0.5325  0.0584
   26DOPE  H13R 3290   1.003   6.116  14.897 -0.8156 -2.0500  0.8946
   26DOPE  H13S 3291   1.064   5.949  14.927 -0.3409 -0.1051 -1.3248
   26DOPE  C214 3292   1.217   6.096  14.897 -0.3733 -0.4353 -0.5860
   26DOPE  H14R 3293   1.292   6.056  14.968 -1.3185 -1.0225  0.0885
   26DOPE  H14S 3294   1.223   6.207  14.887  1.1596 -0.5602 -1.3829
   26DOPE  C215 3295   1.239   6.058  14.752 -0.2729 -0.0620 -0.8639
   26DOPE  H15R 3296   1.142   6.071  14.701 -0.8705  0.6282  0.3990
   26DOPE  H15S 3297   1.277   5.953  14.745  1.3709  0.5961 -2.5928
   26DOPE  C216 3298   1.347   6.142  14.673  0.1088  0.6556  0.1240
   26DOPE  H16R 3299   1.437   6.151  14.737 -0.2606  0.4985  0.6753
   26DOPE  H16S 3300   1.306   6.244  14.661 -0.2844  0.4544 -0.2690
   26DOPE  C217 3301   1.392   6.082  14.539  0.7177 -0.1738 -0.0531
   26DOPE  H17R 3302   1.320   6.131  14.470  0.6277  2.6928  1.8919
   26DOPE  H17S 3303   1.368   5.974  14.552  0.0395  0.0414  0.6220
   26DOPE  C218 3304   1.534   6.116  14.496 -0.2037 -0.0921 -0.0140
   26DOPE  H18R 3305   1.603   6.050  14.552 -0.0202 -0.2223 -0.3850
   26DOPE  H18S 3306   1.566   6.219  14.523  1.5048 -0.7858  0.7734
   26DOPE  H18T 3307   1.552   6.111  14.386 -0.0750  0.8380 -0.0443
   26DOPE   C33 3308   0.354   6.207  15.710 -0.5012 -0.9904  0.6097
   26DOPE   H3X 3309   0.318   6.233  15.811 -2.2882 -1.4120  0.1199
   26DOPE   H3Y 3310   0.358   6.303  15.654 -1.9275 -0.8649  0.6990
   26DOPE   C34 3311   0.500   6.158  15.709 -0.3490  0.0214  0.2873
   26DOPE   H4X 3312   0.515   6.083  15.790 -0.4979  1.3315  1.5680
   26DOPE   H4Y 3313   0.536   6.118  15.612 -0.9323 -0.1507  0.1408
   26DOPE   C35 3314   0.590   6.269  15.760  0.6361  0.3302 -0.3298
   26DOPE   H5X 3315   0.561   6.304  15.861  1.7540  1.2783 -0.3125
   26DOPE   H5Y 3316   0.586   6.355  15.689  3.1248  2.0872  1.4457
   26DOPE   C36 3317   0.732   6.228  15.768  0.3588 -0.4252 -0.2706
   26DOPE   H6X 3318   0.759   6.168  15.678 -0.0511  2.5765 -2.5909
   26DOPE   H6Y 3319   0.752   6.163  15.855  0.6057  1.2873  1.0010
   26DOPE   C37 3320   0.827   6.344  15.786  0.4557  0.6020  0.1571
   26DOPE   H7X 3321   0.816   6.409  15.696  0.3660  0.0097 -0.2636
   26DOPE   H7Y 3322   0.807   6.403  15.878  2.1046 -0.9224  1.5540
   26DOPE   C38 3323   0.975   6.295  15.790 -0.0803  0.6238  0.4864
   26DOPE   H8X 3324   1.007   6.227  15.708  2.1397  2.2759 -0.0875
   26DOPE   H8Y 3325   0.991   6.235  15.882 -0.1776  0.3775  0.3447
   26DOPE   C39 3326   1.065   6.416  15.792 -0.5279 -0.3430  0.0225
   26DOPE   H9X 3327   1.110   6.452  15.886  1.6945 -0.9633 -0.7337
   26DOPE  C310 3328   1.113   6.482  15.681  0.0596  0.2526  0.3244
   26DOPE  H10X 3329   1.164   6.579  15.695  1.0001 -0.3200  1.0153
   26DOPE  C311 3330   1.081   6.447  15.539  0.6717  0.0073  0.4812
   26DOPE  H11X 3331   0.987   6.388  15.529  0.9883 -0.9126  2.5015
   26DOPE  H11Y 3332   1.068   6.543  15.485  1.9049  0.8019  1.5423
   26DOPE  C312 3333   1.200   6.385  15.468 -0.6936  0.5864 -0.1172
   26DOPE  H12X 3334   1.289   6.444  15.497 -0.9912  0.3223  1.4100
   26DOPE  H12Y 3335   1.190   6.397  15.358  0.2016 -1.4966 -0.4592
   26DOPE  C313 3336   1.237   6.235  15.490  0.6957 -0.3528 -0.5417
   26DOPE  H13X 3337   1.250   6.209  15.597 -0.8894  1.5443  0.1759
   26DOPE  H13Y 3338   1.154   6.169  15.458  0.4203 -0.8361  1.0986
   26DOPE  C314 3339   1.366   6.214  15.415 -0.6448  0.5842 -0.5024
   26DOPE  H14X 3340   1.453   6.276  15.446  0.4565  0.2347 -2.7054
   26DOPE  H14Y 3341   1.354   6.246  15.310 -0.8299 -0.8910 -0.9640
   26DOPE  C315 3342   1.397   6.060  15.418 -0.9028 -0.3009  0.6367
   26DOPE  H15X 3343   1.333   6.022  15.335 -1.1441  1.4916 -0.0363
   26DOPE  H15Y 3344   1.370   6.007  15.511 -1.0548  0.6168  1.1189
   26DOPE  C316 3345   1.547   6.042  15.387  0.0505  0.3158 -0.7868
   26DOPE  H16X 3346   1.561   5.931  15.382 -1.3265  0.0121  1.0823
   26DOPE  H16Y 3347   1.606   6.078  15.474 -0.4007  1.6827 -1.0251
   26DOPE  C317 3348   1.607   6.106  15.265 -0.1436  0.3951  0.1606
   26DOPE  H17X 3349   1.587   6.215  15.253  1.6433  0.6068 -1.1814
   26DOPE  H17Y 3350   1.716   6.092  15.255 -0.2527 -2.0037  1.6541
   26DOPE  C318 3351   1.546   6.038  15.141  0.2604 -0.0374  0.1612
   26DOPE  H18X 3352   1.564   6.097  15.048 -0.5956  1.3414  0.8436
   26DOPE  H18Y 3353   1.591   5.938  15.125  1.5000  0.5206  0.0449
   26DOPE  H18Z 3354   1.435   6.040  15.142  0.2612  0.9902  1.6967
   27DOPE     N 3355   5.819   0.182  16.455 -0.1330  0.6648  0.2253
   27DOPE   HN1 3356   5.775   0.088  16.443  3.6281 -1.2053 -0.3512
   27DOPE   HN2 3357   5.805   0.209  16.554  0.1233  0.6640  0.2622
   27DOPE   HN3 3358   5.769   0.250  16.395  0.6569  0.4510 -0.7085
   27DOPE   C12 3359   5.963   0.184  16.421 -0.1342  0.3175 -0.1994
   27DOPE  H12A 3360   6.000   0.288  16.408  2.4401 -0.5448 -0.3415
   27DOPE  H12B 3361   5.979   0.140  16.320 -0.4267  1.4019 -0.7360
   27DOPE   C11 3362   6.045   0.118  16.524  0.5816 -0.5800  0.1717
   27DOPE  H11A 3363   6.036   0.180  16.615 -0.7268 -0.0326 -0.3138
   27DOPE  H11B 3364   6.150   0.124  16.488  0.3423  3.3508 -0.2832
   27DOPE     P 3365   6.036  -0.139  16.451  0.3783  0.0518  0.2246
   27DOPE   O13 3366   5.966  -0.258  16.499 -0.4284  0.1269 -0.7352
   27DOPE   O14 3367   6.183  -0.153  16.425  0.1412 -0.3787 -0.1979
   27DOPE   O11 3368   5.964  -0.097  16.313  0.0282  0.0699 -0.4956
   27DOPE   O12 3369   6.004  -0.013  16.547 -0.2126  0.0391  0.1152
   27DOPE    C1 3370   6.051  -0.082  16.207 -0.6158  0.6662  0.4124
   27DOPE    HA 3371   6.118  -0.167  16.183 -0.6312  0.8219 -0.1986
   27DOPE    HB 3372   6.117   0.005  16.229 -0.1740 -0.1449  2.5773
   27DOPE    C2 3373   5.970  -0.034  16.077  0.3123  0.6160  0.4534
   27DOPE    HS 3374   6.041  -0.040  15.992 -0.9939 -0.2006 -0.6187
   27DOPE   O21 3375   5.906   0.096  16.095  0.7530 -0.0973  0.4832
   27DOPE   C21 3376   5.984   0.195  16.061 -0.1596 -0.7222 -0.2326
   27DOPE   O22 3377   6.106   0.191  16.044 -0.3172 -0.4980  0.1624
   27DOPE   C22 3378   5.904   0.322  16.056  0.1604  0.3847 -0.2865
   27DOPE   H2R 3379   5.924   0.373  16.153 -0.0221 -1.3214  0.6999
   27DOPE   H2S 3380   5.795   0.307  16.039  0.2978  0.6262 -1.4413
   27DOPE    C3 3381   5.874  -0.156  16.045  1.3140 -0.1410  0.1355
   27DOPE    HX 3382   5.825  -0.186  16.141  1.6905 -0.0757  0.3487
   27DOPE    HY 3383   5.946  -0.234  16.013  0.5335 -0.8345  0.0396
   27DOPE   O31 3384   5.794  -0.116  15.938 -0.0004 -0.1083  0.3780
   27DOPE   C31 3385   5.674  -0.071  15.973 -0.7254  0.2389  0.3333
   27DOPE   O32 3386   5.635  -0.056  16.087  0.2745 -0.1566  0.4273
   27DOPE   C32 3387   5.581  -0.031  15.856  0.4880 -0.3679  0.4242
   27DOPE   H2X 3388   5.592  -0.108  15.778 -2.3535  1.6066 -2.1419
   27DOPE   H2Y 3389   5.480  -0.033  15.901 -1.0120  1.5707 -2.5352
   27DOPE   C23 3390   5.953   0.418  15.952  0.3715  0.0476  0.4087
   27DOPE   H3R 3391   5.952   0.390  15.844  0.2759  2.7581 -0.3805
   27DOPE   H3S 3392   6.055   0.453  15.976 -0.6403  2.4070  1.5480
   27DOPE   C24 3393   5.858   0.549  15.963  0.1254  0.6826 -0.6822
   27DOPE   H4R 3394   5.904   0.631  15.903 -0.6163  2.5255  1.1714
   27DOPE   H4S 3395   5.863   0.588  16.067  1.8826  1.6968 -1.1020
   27DOPE   C25 3396   5.713   0.526  15.911  0.1872  0.8054  0.3257
   27DOPE   H5R 3397   5.662   0.440  15.960  0.8524 -0.4007 -1.0002
   27DOPE   H5S 3398   5.707   0.490  15.806  2.3727 -1.8258  0.9910
   27DOPE   C26 3399   5.626   0.652  15.902 -0.1201  0.0424  0.6634
   27DOPE   H6R 3400   5.679   0.740  15.860 -0.3071  0.6376  1.6433
   27DOPE   H6S 3401   5.609   0.667  16.011  0.5002 -1.7371  1.0491
   27DOPE   C27 3402   5.490   0.618  15.836  0.4290 -0.5132 -0.5957
   27DOPE   H7R 3403   5.416   0.688  15.879 -0.9388 -2.6275  0.7061
   27DOPE   H7S 3404   5.457   0.521  15.880  1.6789 -0.1720  1.2191
   27DOPE   C28 3405   5.494   0.620  15.687 -0.4842  0.2395 -0.8378
   27DOPE   H8R 3406   5.550   0.525  15.674 -1.5498 -0.7677  1.3985
   27DOPE   H8S 3407   5.551   0.711  15.659  1.4190 -1.4050 -2.6098
   27DOPE   C29 3408   5.357   0.621  15.629 -0.0262  0.6477  0.2254
   27DOPE   H9R 3409   5.278   0.607  15.704  0.4518  0.2081  0.6477
   27DOPE  C210 3410   5.329   0.610  15.502  0.1988  0.5235  0.4051
   27DOPE  H10R 3411   5.222   0.601  15.479  0.0257 -0.5340  1.4874
   27DOPE  C211 3412   5.416   0.587  15.382 -0.0196 -0.1932  0.3410
   27DOPE  H11R 3413   5.383   0.487  15.345  0.2538  0.2221 -1.0857
   27DOPE  H11S 3414   5.521   0.575  15.414 -0.3192 -1.0918  1.0145
   27DOPE  C212 3415   5.396   0.681  15.259 -0.5183  0.2199 -0.4488
   27DOPE  H12R 3416   5.414   0.788  15.281 -0.8582 -0.1340  1.8812
   27DOPE  H12S 3417   5.289   0.676  15.227 -0.9432  1.3243  0.6922
   27DOPE  C213 3418   5.476   0.637  15.145  0.3367  0.1055  0.7598
   27DOPE  H13R 3419   5.472   0.529  15.120  0.4726  0.6208 -1.7446
   27DOPE  H13S 3420   5.582   0.650  15.178 -0.0771  2.0153  1.4238
   27DOPE  C214 3421   5.450   0.714  15.015 -0.2183 -0.3063  0.0830
   27DOPE  H14R 3422   5.482   0.820  15.008 -0.2040 -0.4184 -2.4109
   27DOPE  H14S 3423   5.342   0.705  14.993  0.4377 -1.3403 -3.3332
   27DOPE  C215 3424   5.537   0.631  14.908  0.5671 -0.2798  0.2395
   27DOPE  H15R 3425   5.481   0.644  14.813 -3.2513 -3.8650  1.7139
   27DOPE  H15S 3426   5.541   0.522  14.931  0.4674 -0.2489  0.3986
   27DOPE  C216 3427   5.681   0.682  14.891  0.1244  0.9228  0.0230
   27DOPE  H16R 3428   5.726   0.679  14.992  1.1348 -1.4860 -0.4429
   27DOPE  H16S 3429   5.679   0.785  14.848 -0.4768  0.7278 -0.4469
   27DOPE  C217 3430   5.768   0.594  14.790 -0.2794  0.4502 -0.6212
   27DOPE  H17R 3431   5.709   0.578  14.697 -1.6733  2.6849 -0.1828
   27DOPE  H17S 3432   5.773   0.492  14.834 -0.6006  0.6731 -0.0581
   27DOPE  C218 3433   5.900   0.659  14.776 -0.5784 -0.0873  1.1812
   27DOPE  H18R 3434   5.912   0.749  14.711  0.3107 -0.9965  0.0413
   27DOPE  H18S 3435   5.974   0.592  14.727  0.6805  2.1575 -0.1446
   27DOPE  H18T 3436   5.953   0.684  14.870  1.6804 -0.8239  0.1758
   27DOPE   C33 3437   5.628   0.093  15.789  0.1489 -0.3758  0.2359
   27DOPE   H3X 3438   5.739   0.092  15.800  0.3279 -2.4930 -1.3270
   27DOPE   H3Y 3439   5.598   0.187  15.841  2.2210 -0.5566  1.8881
   27DOPE   C34 3440   5.593   0.102  15.639  0.3349  0.2344 -0.0044
   27DOPE   H4X 3441   5.656   0.022  15.594 -0.3649 -0.2798 -0.0890
   27DOPE   H4Y 3442   5.483   0.084  15.633  0.5283 -0.9172 -0.3673
   27DOPE   C35 3443   5.626   0.239  15.579 -0.3833 -0.9397  0.3620
   27DOPE   H5X 3444   5.733   0.266  15.593  0.4787 -2.8106 -1.9329
   27DOPE   H5Y 3445   5.567   0.308  15.642 -0.8339  0.2608 -1.3029
   27DOPE   C36 3446   5.582   0.255  15.432  0.6075 -0.1878  0.1830
   27DOPE   H6X 3447   5.541   0.358  15.427  2.0871  0.3738 -1.0722
   27DOPE   H6Y 3448   5.500   0.186  15.403  2.3124 -2.2893  0.1171
   27DOPE   C37 3449   5.687   0.236  15.327 -0.1574  0.5808  0.2893
   27DOPE   H7X 3450   5.787   0.262  15.369  0.4144 -4.3005  2.7760
   27DOPE   H7Y 3451   5.705   0.129  15.302 -0.5755  0.7789 -0.8964
   27DOPE   C38 3452   5.653   0.310  15.192 -0.1924 -0.6581  0.1340
   27DOPE   H8X 3453   5.649   0.419  15.210 -1.5322 -0.1781 -2.5610
   27DOPE   H8Y 3454   5.552   0.277  15.160 -0.5562  1.7938 -1.4759
   27DOPE   C39 3455   5.744   0.281  15.068 -0.2348 -0.3857 -0.1913
   27DOPE   H9X 3456   5.848   0.313  15.082 -0.5526  0.5949  0.0328
   27DOPE  C310 3457   5.705   0.220  14.955 -0.6351 -0.5150  0.1149
   27DOPE  H10X 3458   5.782   0.192  14.881 -0.9332 -0.7740 -0.0992
   27DOPE  C311 3459   5.568   0.168  14.927 -0.0077  0.2956  0.6959
   27DOPE  H11X 3460   5.519   0.112  15.010  1.0827  1.0324  1.8722
   27DOPE  H11Y 3461   5.514   0.264  14.943  1.7750  1.2433  1.2419
   27DOPE  C312 3462   5.544   0.103  14.790 -0.0445 -0.1786 -0.2352
   27DOPE  H12X 3463   5.436   0.083  14.774 -0.3434  0.7121  0.5483
   27DOPE  H12Y 3464   5.592   0.005  14.807  1.6863  1.0915  3.1156
   27DOPE  C313 3465   5.585   0.183  14.667 -0.2030 -0.1765 -0.6547
   27DOPE  H13X 3466   5.541   0.285  14.664  2.0584  0.8662 -0.6336
   27DOPE  H13Y 3467   5.696   0.197  14.661 -0.3885  1.8477 -0.0446
   27DOPE  C314 3468   5.542   0.114  14.539 -0.6185 -0.5677 -0.5334
   27DOPE  H14X 3469   5.431   0.111  14.538 -0.6123 -1.1743 -1.8985
   27DOPE  H14Y 3470   5.578   0.010  14.525 -1.2727 -1.0712  1.2205
   27DOPE  C315 3471   5.600   0.191  14.412  0.0865  0.0308 -0.3108
   27DOPE  H15X 3472   5.711   0.193  14.409  0.1643  0.2105  1.6911
   27DOPE  H15Y 3473   5.572   0.295  14.436  1.9253  0.6699 -0.7674
   27DOPE  C316 3474   5.548   0.134  14.284  0.1106  0.0777  0.7063
   27DOPE  H16X 3475   5.439   0.149  14.299  0.3392  2.8325  0.0645
   27DOPE  H16Y 3476   5.585   0.030  14.271  0.4649  0.2762  0.0656
   27DOPE  C317 3477   5.569   0.215  14.153 -0.4216 -0.0946 -0.8492
   27DOPE  H17X 3478   5.516   0.312  14.164 -2.4446 -1.1982 -0.2330
   27DOPE  H17Y 3479   5.677   0.237  14.150  0.1563 -1.4968  3.1942
   27DOPE  C318 3480   5.529   0.145  14.031  0.0792 -0.4028  0.4413
   27DOPE  H18X 3481   5.528   0.203  13.936  0.3224  0.1732  0.7852
   27DOPE  H18Y 3482   5.589   0.053  14.010 -0.6573 -0.9401  0.6709
   27DOPE  H18Z 3483   5.429   0.101  14.046  0.2040 -0.8703 -0.0731
   28DOPE     N 3484   7.147   6.516  16.304 -0.7362  0.4782  0.5811
   28DOPE   HN1 3485   7.205   6.533  16.389 -1.5392 -0.5470  1.3801
   28DOPE   HN2 3486   7.048   6.502  16.333 -0.8844 -3.6103 -1.1242
   28DOPE   HN3 3487   7.173   6.424  16.263  0.5186  0.5803  1.1252
   28DOPE   C12 3488   7.164   6.638  16.223 -0.1132 -0.0531  0.0686
   28DOPE  H12A 3489   7.142   6.618  16.116 -0.9286 -1.6992  0.4997
   28DOPE  H12B 3490   7.273   6.661  16.216  0.0822 -0.2089  2.0039
   28DOPE   C11 3491   7.086   6.752  16.287 -0.0432  0.0369 -0.8348
   28DOPE  H11A 3492   7.093   6.841  16.221  0.0675 -0.6220 -1.7257
   28DOPE  H11B 3493   7.120   6.789  16.386  0.0553  0.9533 -1.1950
   28DOPE     P 3494   6.830   6.763  16.234  0.2737 -0.5944 -0.1569
   28DOPE   O13 3495   6.851   6.904  16.207  0.3323  0.2458 -0.3926
   28DOPE   O14 3496   6.707   6.719  16.303  0.1123 -0.8112  0.3873
   28DOPE   O11 3497   6.833   6.694  16.091  0.1775 -0.8364  0.2213
   28DOPE   O12 3498   6.958   6.705  16.311 -0.6352  0.0175  0.3188
   28DOPE    C1 3499   6.758   6.576  16.061  0.3171  0.3519 -0.6802
   28DOPE    HA 3500   6.661   6.576  16.115  1.3453  0.3778  1.2911
   28DOPE    HB 3501   6.812   6.488  16.103 -0.7565 -0.1188 -0.2646
   28DOPE    C2 3502   6.732   6.560  15.909 -0.0313  0.4805  0.2902
   28DOPE    HS 3503   6.704   6.454  15.887  0.8047  0.1688  0.6830
   28DOPE   O21 3504   6.843   6.604  15.824  0.3681 -0.5386 -0.2144
   28DOPE   C21 3505   6.952   6.542  15.853 -0.3888  0.7645 -0.5007
   28DOPE   O22 3506   6.963   6.442  15.923 -0.4252 -0.2398  0.2000
   28DOPE   C22 3507   7.062   6.599  15.767 -0.3821 -0.4578  0.2853
   28DOPE   H2R 3508   7.155   6.540  15.780  0.2315  0.7675  1.5645
   28DOPE   H2S 3509   7.079   6.706  15.791  2.2515 -1.0824  1.5065
   28DOPE    C3 3510   6.600   6.639  15.868 -0.0321  0.3109  0.1739
   28DOPE    HX 3511   6.597   6.744  15.904 -0.1919  0.0998  0.7815
   28DOPE    HY 3512   6.515   6.597  15.927  0.3187 -0.1824  0.3310
   28DOPE   O31 3513   6.572   6.649  15.724 -0.2862 -0.1459  0.1392
   28DOPE   C31 3514   6.549   6.538  15.655 -0.2110  0.5117  0.4912
   28DOPE   O32 3515   6.518   6.430  15.709  0.0520  0.4026  0.4688
   28DOPE   C32 3516   6.561   6.576  15.508  0.2507  0.1292  0.1159
   28DOPE   H2X 3517   6.516   6.677  15.492 -1.1546 -0.7679 -2.0990
   28DOPE   H2Y 3518   6.667   6.589  15.481  0.5007 -0.4221  0.7985
   28DOPE   C23 3519   7.050   6.575  15.612  0.1544  0.3174  0.0616
   28DOPE   H3R 3520   7.112   6.653  15.562 -0.8176  0.5318 -0.8619
   28DOPE   H3S 3521   6.945   6.578  15.578 -0.1180 -0.7598  0.7655
   28DOPE   C24 3522   7.104   6.440  15.561  0.1923 -0.7162 -0.6642
   28DOPE   H4R 3523   7.038   6.357  15.593  0.5508 -1.2690 -1.3201
   28DOPE   H4S 3524   7.200   6.418  15.612 -0.4245 -0.0804  0.8115
   28DOPE   C25 3525   7.123   6.441  15.409 -0.2050 -0.4305  0.3562
   28DOPE   H5R 3526   7.036   6.493  15.363 -0.0273  0.1157  0.6266
   28DOPE   H5S 3527   7.113   6.335  15.377  1.5700 -0.2040 -1.1178
   28DOPE   C26 3528   7.252   6.497  15.364  0.7168  0.0369 -0.7078
   28DOPE   H6R 3529   7.327   6.421  15.394  0.8429 -0.1497 -1.4757
   28DOPE   H6S 3530   7.262   6.592  15.421  0.1827  1.0248 -2.2061
   28DOPE   C27 3531   7.270   6.520  15.208 -0.8365 -0.0711  0.1081
   28DOPE   H7R 3532   7.368   6.572  15.209  0.9348 -3.1811 -0.1078
   28DOPE   H7S 3533   7.193   6.591  15.170 -0.4680  0.2943  0.0329
   28DOPE   C28 3534   7.259   6.389  15.130 -0.4455 -0.0565  0.6643
   28DOPE   H8R 3535   7.165   6.380  15.070 -0.8906  1.8253  1.0297
   28DOPE   H8S 3536   7.249   6.310  15.208  0.1801  0.1523  0.9614
   28DOPE   C29 3537   7.379   6.371  15.047  0.6891 -0.3878  0.3341
   28DOPE   H9R 3538   7.470   6.412  15.094  2.2414  0.0313 -2.8069
   28DOPE  C210 3539   7.393   6.316  14.925  0.2409  0.3078  0.6673
   28DOPE  H10R 3540   7.491   6.323  14.877  1.9447  2.3235  4.0364
   28DOPE  C211 3541   7.283   6.258  14.837  0.3711 -0.7090 -0.1760
   28DOPE  H11R 3542   7.188   6.233  14.889 -0.9286  0.8553 -1.6717
   28DOPE  H11S 3543   7.320   6.161  14.798 -0.4897 -1.4115  0.7189
   28DOPE  C212 3544   7.257   6.353  14.717  0.1879  0.1343 -0.3202
   28DOPE  H12R 3545   7.256   6.458  14.754 -2.1353 -0.5997  2.0455
   28DOPE  H12S 3546   7.153   6.323  14.691  0.3415  0.3218 -1.1588
   28DOPE  C213 3547   7.362   6.333  14.602  0.2785  0.4700 -0.1892
   28DOPE  H13R 3548   7.464   6.322  14.646  0.0822 -0.7092  0.0091
   28DOPE  H13S 3549   7.349   6.428  14.548  0.1695  1.5426  1.6263
   28DOPE  C214 3550   7.333   6.217  14.515 -0.1381  0.0048 -0.6175
   28DOPE  H14R 3551   7.228   6.229  14.480 -1.1344 -1.0905  1.7777
   28DOPE  H14S 3552   7.342   6.122  14.571  0.1935  0.8862  0.8701
   28DOPE  C215 3553   7.422   6.221  14.384 -0.0601 -0.1966 -0.6063
   28DOPE  H15R 3554   7.515   6.170  14.417 -1.5924 -1.9383  1.3160
   28DOPE  H15S 3555   7.431   6.327  14.353  1.2513  0.0175  0.3982
   28DOPE  C216 3556   7.356   6.142  14.267 -0.1681  0.8406 -0.5777
   28DOPE  H16R 3557   7.256   6.188  14.255  0.5356  2.0190 -2.1173
   28DOPE  H16S 3558   7.346   6.034  14.290  1.0690  0.8774  0.2176
   28DOPE  C217 3559   7.426   6.159  14.129  0.6168  0.1298  0.2899
   28DOPE  H17R 3560   7.535   6.134  14.129  0.9582  1.3578 -2.3703
   28DOPE  H17S 3561   7.429   6.268  14.112  1.4189  0.0031 -0.4368
   28DOPE  C218 3562   7.344   6.103  14.023  0.4018  0.0446  0.2582
   28DOPE  H18R 3563   7.253   6.167  14.020  0.4358  0.4159  3.3149
   28DOPE  H18S 3564   7.324   5.995  14.039 -1.9831  0.1544 -1.4120
   28DOPE  H18T 3565   7.395   6.113  13.925 -0.5555  1.6118 -0.1248
   28DOPE   C33 3566   6.507   6.470  15.415 -0.2608  0.0581  0.5872
   28DOPE   H3X 3567   6.397   6.462  15.421 -0.3425  0.6264 -0.0519
   28DOPE   H3Y 3568   6.542   6.369  15.445 -2.8779 -0.8220  0.9187
   28DOPE   C34 3569   6.543   6.490  15.265  0.5776  0.8113  0.5047
   28DOPE   H4X 3570   6.499   6.401  15.214  0.6246  1.3253 -0.4482
   28DOPE   H4Y 3571   6.482   6.575  15.230  0.1371 -0.0278 -0.8523
   28DOPE   C35 3572   6.687   6.518  15.238 -0.3005  0.4517  0.0146
   28DOPE   H5X 3573   6.749   6.441  15.288  0.6338 -0.0860 -1.8500
   28DOPE   H5Y 3574   6.716   6.614  15.284 -0.4254 -1.1104  3.6702
   28DOPE   C36 3575   6.712   6.527  15.085 -0.8836  0.4376  0.0012
   28DOPE   H6X 3576   6.652   6.612  15.045 -0.6159 -0.8638 -3.4824
   28DOPE   H6Y 3577   6.668   6.439  15.034  0.5018  0.7365 -1.8131
   28DOPE   C37 3578   6.863   6.542  15.045 -0.2504  0.3269  0.4552
   28DOPE   H7X 3579   6.909   6.627  15.100  1.5381  0.4352 -1.1046
   28DOPE   H7Y 3580   6.916   6.453  15.084 -1.4267 -1.2333 -1.3223
   28DOPE   C38 3581   6.890   6.570  14.899  0.4136  0.2192  0.6538
   28DOPE   H8X 3582   7.000   6.571  14.882  0.1287  1.0132 -1.4264
   28DOPE   H8Y 3583   6.851   6.673  14.880  2.0338  0.6307 -0.6891
   28DOPE   C39 3584   6.825   6.463  14.810  0.0980 -0.5599  0.2561
   28DOPE   H9X 3585   6.752   6.402  14.866 -0.9570 -0.1505 -0.6387
   28DOPE  C310 3586   6.846   6.445  14.680 -0.1548  0.2270 -0.2477
   28DOPE  H10X 3587   6.799   6.357  14.635  1.0577 -0.8168  0.4688
   28DOPE  C311 3588   6.949   6.531  14.609 -0.6604 -0.0640  0.0573
   28DOPE  H11X 3589   6.921   6.637  14.626  1.6009  0.5853 -0.0024
   28DOPE  H11Y 3590   7.048   6.532  14.660  0.5071  1.8463 -2.0758
   28DOPE  C312 3591   6.968   6.502  14.455 -0.0318  0.3029 -0.4272
   28DOPE  H12X 3592   6.862   6.488  14.425 -0.7333  0.3635  1.8586
   28DOPE  H12Y 3593   7.022   6.405  14.446 -1.1877 -0.5402  1.2384
   28DOPE  C313 3594   7.018   6.619  14.371 -0.0414  0.1255 -0.3619
   28DOPE  H13X 3595   6.937   6.689  14.340 -0.1067 -0.3469 -1.2796
   28DOPE  H13Y 3596   7.087   6.672  14.441  0.0180  2.3483 -2.0082
   28DOPE  C314 3597   7.091   6.564  14.247 -0.1285 -0.9879 -0.6081
   28DOPE  H14X 3598   7.087   6.642  14.168  1.3320 -0.2534  0.0079
   28DOPE  H14Y 3599   7.032   6.474  14.218 -2.3569  0.0379  0.4958
   28DOPE  C315 3600   7.232   6.501  14.267 -0.4280 -0.6088 -0.4306
   28DOPE  H15X 3601   7.267   6.460  14.171  0.9020 -2.1189  0.6472
   28DOPE  H15Y 3602   7.224   6.421  14.343  1.6444  0.1370  0.6769
   28DOPE  C316 3603   7.338   6.601  14.304 -0.4587  0.2716 -0.5602
   28DOPE  H16X 3604   7.425   6.539  14.332 -0.9443  0.2635  1.0598
   28DOPE  H16Y 3605   7.306   6.658  14.394 -0.0782 -0.7780  0.2468
   28DOPE  C317 3606   7.359   6.694  14.179  0.0492 -0.9202 -0.1518
   28DOPE  H17X 3607   7.395   6.639  14.090  2.1480 -0.4634  0.3525
   28DOPE  H17Y 3608   7.263   6.747  14.163  1.5278  1.5619 -1.5319
   28DOPE  C318 3609   7.470   6.794  14.217  0.8190 -0.3434 -0.1268
   28DOPE  H18X 3610   7.458   6.864  14.302 -0.0207  0.7594 -1.1247
   28DOPE  H18Y 3611   7.567   6.741  14.230  0.8928 -0.7970 -2.2143
   28DOPE  H18Z 3612   7.480   6.869  14.135 -1.0540 -1.4330 -1.4279
   29DOPE     N 3613   7.376   0.643  16.158 -0.6528 -1.1865  0.4204
   29DOPE   HN1 3614   7.359   0.586  16.072  0.0957  1.1246 -1.3787
   29DOPE   HN2 3615   7.293   0.621  16.216 -0.6698 -2.0363  0.0940
   29DOPE   HN3 3616   7.364   0.744  16.134 -0.7032 -0.9725  1.3150
   29DOPE   C12 3617   7.502   0.619  16.221 -0.2338 -0.4606 -0.5816
   29DOPE  H12A 3618   7.506   0.651  16.327  3.5446  2.5173 -1.3969
   29DOPE  H12B 3619   7.582   0.678  16.172 -0.9959  2.5204  1.4934
   29DOPE   C11 3620   7.542   0.471  16.203  0.6052  0.2804  0.3257
   29DOPE  H11A 3621   7.531   0.447  16.095 -0.5109  1.9429  0.0397
   29DOPE  H11B 3622   7.469   0.403  16.253  0.4787 -2.2122 -2.8874
   29DOPE     P 3623   7.719   0.375  16.378 -0.0872  0.0363 -0.1801
   29DOPE   O13 3624   7.668   0.446  16.494  0.3648  0.1054  0.3822
   29DOPE   O14 3625   7.863   0.347  16.385 -0.5591 -0.2018 -0.6313
   29DOPE   O11 3626   7.651   0.236  16.360  0.4144  0.6476 -0.3887
   29DOPE   O12 3627   7.682   0.449  16.244  0.3455  0.2984  0.2263
   29DOPE    C1 3628   7.725   0.113  16.335  0.2222 -0.5087 -0.6757
   29DOPE    HA 3629   7.747   0.059  16.429 -1.2619  0.5013  0.2908
   29DOPE    HB 3630   7.824   0.130  16.287 -0.0780  1.7342 -0.6218
   29DOPE    C2 3631   7.650   0.021  16.244  0.5725 -0.2245 -0.6392
   29DOPE    HS 3632   7.724  -0.060  16.226  0.8804 -0.4440  1.4090
   29DOPE   O21 3633   7.607   0.095  16.135  1.1807 -0.2328 -0.1327
   29DOPE   C21 3634   7.691   0.130  16.047 -0.4336  0.8001  1.4046
   29DOPE   O22 3635   7.814   0.120  16.051  0.1745 -0.7558  0.0800
   29DOPE   C22 3636   7.614   0.185  15.928 -0.1876 -0.6087  0.5052
   29DOPE   H2R 3637   7.616   0.296  15.933  1.3266 -0.5174 -1.1946
   29DOPE   H2S 3638   7.512   0.144  15.938 -0.0144 -0.7308  2.1490
   29DOPE    C3 3639   7.527  -0.049  16.309  0.4221 -0.6965  0.6319
   29DOPE    HX 3640   7.445   0.022  16.335  0.7684 -0.7494  1.9540
   29DOPE    HY 3641   7.558  -0.081  16.411  2.7715  2.6719  1.1162
   29DOPE   O31 3642   7.463  -0.159  16.235  0.0525 -0.6169 -0.4176
   29DOPE   C31 3643   7.532  -0.269  16.221 -0.2449  0.0017 -0.2904
   29DOPE   O32 3644   7.646  -0.293  16.256 -0.5248  0.1504  0.3086
   29DOPE   C32 3645   7.443  -0.369  16.136 -0.0426  0.6927  0.5510
   29DOPE   H2X 3646   7.371  -0.419  16.203 -0.9006 -2.8100 -2.6756
   29DOPE   H2Y 3647   7.383  -0.314  16.061 -0.1889  0.9436  0.8460
   29DOPE   C23 3648   7.674   0.142  15.795 -0.0125  0.1287  0.8161
   29DOPE   H3R 3649   7.711   0.037  15.796  0.0086  0.1319  0.3343
   29DOPE   H3S 3650   7.762   0.206  15.772 -0.3768  0.4423  0.2738
   29DOPE   C24 3651   7.561   0.139  15.692 -0.3746  0.0288  0.3102
   29DOPE   H4R 3652   7.509   0.236  15.674  1.2400  0.6382 -1.4710
   29DOPE   H4S 3653   7.477   0.081  15.735 -0.6397  0.2558  0.1032
   29DOPE   C25 3654   7.625   0.095  15.559 -0.9281 -0.0223 -0.6288
   29DOPE   H5R 3655   7.689   0.005  15.563 -0.9676 -0.1530 -2.1965
   29DOPE   H5S 3656   7.696   0.174  15.528  0.3038  0.4677  2.9352
   29DOPE   C26 3657   7.530   0.092  15.435  0.1408 -0.7634 -0.2640
   29DOPE   H6R 3658   7.462   0.180  15.437  2.2060  0.9151  1.3757
   29DOPE   H6S 3659   7.464   0.004  15.450  1.9215 -2.4980 -2.0922
   29DOPE   C27 3660   7.608   0.092  15.305  0.1066 -0.1153  0.3536
   29DOPE   H7R 3661   7.682   0.009  15.315  0.6993  0.2294 -0.9645
   29DOPE   H7S 3662   7.667   0.186  15.304  1.6986 -0.9511  3.0574
   29DOPE   C28 3663   7.519   0.081  15.178 -0.2586  0.2623 -0.2143
   29DOPE   H8R 3664   7.440   0.009  15.209  0.2531 -0.1759  0.0780
   29DOPE   H8S 3665   7.586   0.041  15.099  0.2111  0.8558 -0.1197
   29DOPE   C29 3666   7.453   0.211  15.135 -0.0029 -0.4705  0.1635
   29DOPE   H9R 3667   7.429   0.282  15.215  0.8880  0.4022 -0.3293
   29DOPE  C210 3668   7.425   0.241  15.004 -0.5555 -0.4191 -0.8328
   29DOPE  H10R 3669   7.389   0.341  14.974  2.4496  1.3513  0.9198
   29DOPE  C211 3670   7.457   0.152  14.886  0.4521  0.3214 -0.5887
   29DOPE  H11R 3671   7.378   0.171  14.810  0.1497 -0.1775 -0.4029
   29DOPE  H11S 3672   7.450   0.043  14.906  0.3821 -0.0222 -2.3794
   29DOPE  C212 3673   7.580   0.182  14.799  0.5220 -0.0709  0.2036
   29DOPE  H12R 3674   7.668   0.136  14.849  1.1195 -0.0062 -0.7478
   29DOPE  H12S 3675   7.586   0.292  14.808 -3.8537  0.2948  0.5630
   29DOPE  C213 3676   7.574   0.124  14.657  0.5756  0.3528  0.3079
   29DOPE  H13R 3677   7.467   0.121  14.626  0.7063 -0.4932 -0.0869
   29DOPE  H13S 3678   7.602   0.018  14.678 -1.8996 -0.5142 -0.3805
   29DOPE  C214 3679   7.667   0.198  14.550 -0.0879 -0.1602  0.1962
   29DOPE  H14R 3680   7.764   0.208  14.602 -0.0062  0.0919 -0.0026
   29DOPE  H14S 3681   7.642   0.305  14.533  1.8361  0.1748 -0.8208
   29DOPE  C215 3682   7.679   0.121  14.418 -0.0967  0.3240  0.3616
   29DOPE  H15R 3683   7.750   0.179  14.356 -1.5931 -0.2740 -2.0595
   29DOPE  H15S 3684   7.578   0.117  14.371  0.4012 -0.3578 -0.6993
   29DOPE  C216 3685   7.729  -0.021  14.440 -0.1432 -0.1240 -0.3233
   29DOPE  H16R 3686   7.655  -0.073  14.504 -0.2335 -1.2139 -1.2860
   29DOPE  H16S 3687   7.824  -0.005  14.496 -0.5695  0.7984  0.1518
   29DOPE  C217 3688   7.754  -0.091  14.304 -0.3677  0.0369 -0.0456
   29DOPE  H17R 3689   7.821  -0.177  14.327  0.4466  0.0869 -1.9465
   29DOPE  H17S 3690   7.809  -0.027  14.231 -1.5201  0.7975 -0.2775
   29DOPE  C218 3691   7.627  -0.149  14.243 -0.1054  0.3561 -0.8105
   29DOPE  H18R 3692   7.650  -0.204  14.149  1.7072 -1.4251  0.6101
   29DOPE  H18S 3693   7.564  -0.061  14.215  1.9624  2.1415 -0.1670
   29DOPE  H18T 3694   7.567  -0.209  14.315  0.7726  0.4982  0.0547
   29DOPE   C33 3695   7.518  -0.489  16.075  0.2916 -0.2685  0.8231
   29DOPE   H3X 3696   7.474  -0.588  16.097  0.2835 -0.4875 -0.1226
   29DOPE   H3Y 3697   7.622  -0.490  16.114  1.1213  0.2628 -1.2222
   29DOPE   C34 3698   7.526  -0.475  15.921  0.5633  0.5004 -0.0838
   29DOPE   H4X 3699   7.429  -0.496  15.871 -0.0711  1.8029  0.5768
   29DOPE   H4Y 3700   7.550  -0.368  15.906  0.1551  0.7467  1.0000
   29DOPE   C35 3701   7.627  -0.578  15.858  0.0950  0.5423  0.0206
   29DOPE   H5X 3702   7.727  -0.535  15.877 -0.0285  1.9449 -2.1302
   29DOPE   H5Y 3703   7.626  -0.569  15.747 -1.2184  0.9126  0.0357
   29DOPE   C36 3704   7.606  -0.727  15.897 -0.4786  0.2117 -0.4403
   29DOPE   H6X 3705   7.625  -0.746  16.005  0.3286 -0.9892 -0.7772
   29DOPE   H6Y 3706   7.675  -0.790  15.838  0.3463  0.5759  0.1097
   29DOPE   C37 3707   7.462  -0.777  15.865 -0.4644 -0.2412  0.3124
   29DOPE   H7X 3708   7.461  -0.880  15.907  2.6389 -0.3663  0.2609
   29DOPE   H7Y 3709   7.383  -0.713  15.911 -1.6127 -1.2617 -0.1625
   29DOPE   C38 3710   7.440  -0.803  15.718  0.5805 -0.0275  0.4752
   29DOPE   H8X 3711   7.388  -0.901  15.718  0.3410  0.0847  1.9258
   29DOPE   H8Y 3712   7.540  -0.811  15.671 -0.3153 -0.2071 -1.5444
   29DOPE   C39 3713   7.355  -0.700  15.647  0.3873 -0.0025 -0.4050
   29DOPE   H9X 3714   7.258  -0.682  15.696  1.5827 -0.5752  2.3086
   29DOPE  C310 3715   7.391  -0.626  15.541 -0.2945  0.2058 -0.0426
   29DOPE  H10X 3716   7.317  -0.563  15.489 -1.8145 -1.6412 -0.2527
   29DOPE  C311 3717   7.521  -0.631  15.465 -0.4665 -0.0448  0.0712
   29DOPE  H11X 3718   7.581  -0.541  15.491 -1.9085  0.6595  1.0972
   29DOPE  H11Y 3719   7.580  -0.717  15.503 -1.3707 -0.2698  0.9943
   29DOPE  C312 3720   7.508  -0.628  15.311  0.7542 -0.3958  0.4661
   29DOPE  H12X 3721   7.513  -0.526  15.268 -2.3658 -0.8117 -1.2496
   29DOPE  H12Y 3722   7.407  -0.663  15.279 -0.2003  2.4070  0.1607
   29DOPE  C313 3723   7.607  -0.713  15.224 -0.5420 -0.1744 -0.2554
   29DOPE  H13X 3724   7.709  -0.687  15.258  0.7026 -1.2319 -2.9503
   29DOPE  H13Y 3725   7.578  -0.817  15.254 -0.0754  0.2942  2.0421
   29DOPE  C314 3726   7.596  -0.686  15.069 -0.0719 -0.6452  0.0672
   29DOPE  H14X 3727   7.661  -0.756  15.013  0.4158 -1.2720  1.3808
   29DOPE  H14Y 3728   7.645  -0.587  15.056 -1.9790  0.3066 -0.3577
   29DOPE  C315 3729   7.453  -0.680  15.016  0.0925  0.6942  0.0834
   29DOPE  H15X 3730   7.392  -0.598  15.060  1.0947  0.3239  2.2948
   29DOPE  H15Y 3731   7.416  -0.777  15.056  1.7636  0.8387  2.1744
   29DOPE  C316 3732   7.449  -0.678  14.863 -0.4579 -0.6607  0.2363
   29DOPE  H16X 3733   7.533  -0.735  14.818  0.0527  1.7538 -2.1183
   29DOPE  H16Y 3734   7.463  -0.572  14.831 -0.7979  0.0012  2.1558
   29DOPE  C317 3735   7.315  -0.726  14.798  0.1378 -0.0903  0.1484
   29DOPE  H17X 3736   7.300  -0.832  14.830  0.6929  0.1317  1.2107
   29DOPE  H17Y 3737   7.232  -0.680  14.855  0.5030 -0.8199  1.3109
   29DOPE  C318 3738   7.317  -0.711  14.646 -0.4491  0.1008 -0.4434
   29DOPE  H18X 3739   7.315  -0.606  14.610 -0.0532  0.2672 -0.0009
   29DOPE  H18Y 3740   7.405  -0.767  14.606 -1.2344 -1.5826  0.0809
   29DOPE  H18Z 3741   7.236  -0.779  14.614 -0.4839 -0.5916  1.0441
   30DOPE     N 3742   0.758   6.013  16.378 -0.0807 -0.1691 -0.3639
   30DOPE   HN1 3743   0.670   6.045  16.333 -1.0720 -0.4043  1.3151
   30DOPE   HN2 3744   0.841   6.020  16.315 -0.0578  1.3371 -0.2003
   30DOPE   HN3 3745   0.748   5.914  16.407  2.3502 -0.2100  0.6122
   30DOPE   C12 3746   0.801   6.093  16.499  0.0916 -0.3878  0.4343
   30DOPE  H12A 3747   0.910   6.083  16.516  0.8866  3.9472 -0.8276
   30DOPE  H12B 3748   0.745   6.041  16.579 -2.0857  1.3573  0.1510
   30DOPE   C11 3749   0.760   6.244  16.489  0.3207 -0.1632 -0.1420
   30DOPE  H11A 3750   0.802   6.278  16.393  1.0682  0.2535  0.3268
   30DOPE  H11B 3751   0.808   6.303  16.570 -0.8018  0.5388  0.0355
   30DOPE     P 3752   0.554   6.403  16.488  0.0917 -0.2762 -0.1299
   30DOPE   O13 3753   0.522   6.457  16.620  0.0997  0.3303 -0.0047
   30DOPE   O14 3754   0.445   6.400  16.387  0.3640 -0.2436 -0.2335
   30DOPE   O11 3755   0.669   6.486  16.418  0.4420  0.1586 -0.0310
   30DOPE   O12 3756   0.615   6.259  16.504  0.5557 -0.6999  0.1018
   30DOPE    C1 3757   0.680   6.625  16.429  0.3190 -0.3462 -0.2802
   30DOPE    HA 3758   0.780   6.665  16.399 -0.6326  1.7266 -0.8776
   30DOPE    HB 3759   0.655   6.662  16.531  0.2148  3.2228 -1.4582
   30DOPE    C2 3760   0.588   6.705  16.332  0.4308 -0.1667 -0.1854
   30DOPE    HS 3761   0.482   6.700  16.365  0.3653 -0.2166 -0.4004
   30DOPE   O21 3762   0.609   6.662  16.194 -0.0178 -0.1442  0.1501
   30DOPE   C21 3763   0.493   6.630  16.133 -0.2567 -0.4678  0.4171
   30DOPE   O22 3764   0.384   6.678  16.161  0.0018 -0.0861  0.3529
   30DOPE   C22 3765   0.521   6.552  16.002 -0.2096  0.0931  0.1807
   30DOPE   H2R 3766   0.429   6.498  15.973 -0.3446  0.9058 -0.9817
   30DOPE   H2S 3767   0.597   6.476  16.030  0.8352  0.4273 -1.5924
   30DOPE    C3 3768   0.611   6.850  16.357 -0.6915  0.0472 -0.1845
   30DOPE    HX 3769   0.716   6.881  16.339 -0.8740  1.7708  1.4349
   30DOPE    HY 3770   0.605   6.875  16.465  1.5699  2.1165 -0.4426
   30DOPE   O31 3771   0.521   6.935  16.285 -0.6810  0.6924  0.3755
   30DOPE   C31 3772   0.574   6.984  16.165  0.9139 -0.7639 -0.5324
   30DOPE   O32 3773   0.693   6.976  16.139 -0.3428  0.0525 -0.5279
   30DOPE   C32 3774   0.470   7.055  16.086  0.4393  0.1496  0.2282
   30DOPE   H2X 3775   0.452   6.983  16.004  0.6500  1.8769 -1.3858
   30DOPE   H2Y 3776   0.376   7.073  16.142  0.1812  1.4584 -0.5989
   30DOPE   C23 3777   0.575   6.635  15.887  0.1487  0.2494  0.4566
   30DOPE   H3R 3778   0.638   6.571  15.822 -1.7968 -1.7600  0.4189
   30DOPE   H3S 3779   0.650   6.708  15.925  1.6364  0.8220 -3.2129
   30DOPE   C24 3780   0.464   6.704  15.804  0.0068  0.2845  0.2663
   30DOPE   H4R 3781   0.398   6.740  15.886  1.4885 -1.0925  2.1495
   30DOPE   H4S 3782   0.416   6.623  15.744 -1.1975  1.8509 -0.9777
   30DOPE   C25 3783   0.516   6.814  15.715 -0.2619 -0.0836  0.5539
   30DOPE   H5R 3784   0.562   6.883  15.790 -0.5281  0.9032 -0.1742
   30DOPE   H5S 3785   0.438   6.876  15.667 -0.7099 -2.0995 -1.4937
   30DOPE   C26 3786   0.615   6.773  15.602  0.7239 -0.1411 -0.1204
   30DOPE   H6R 3787   0.703   6.718  15.643 -0.4424 -0.3388  2.3395
   30DOPE   H6S 3788   0.651   6.872  15.568 -2.3192  1.3735  0.6469
   30DOPE   C27 3789   0.544   6.696  15.485 -0.0562 -0.2094  0.7278
   30DOPE   H7R 3790   0.445   6.739  15.460 -0.9898 -2.6925 -0.1447
   30DOPE   H7S 3791   0.505   6.595  15.507  1.1286 -1.2010 -1.4015
   30DOPE   C28 3792   0.631   6.683  15.353  0.3610 -0.1612  0.3421
   30DOPE   H8R 3793   0.594   6.598  15.293 -0.4442 -1.1234  2.1347
   30DOPE   H8S 3794   0.730   6.659  15.399  1.5895  1.5609 -1.2335
   30DOPE   C29 3795   0.631   6.811  15.270 -0.4229  0.2351 -0.4251
   30DOPE   H9R 3796   0.700   6.887  15.310  1.8713 -2.1218  0.4274
   30DOPE  C210 3797   0.578   6.833  15.148  1.1108 -0.2766 -1.0901
   30DOPE  H10R 3798   0.595   6.928  15.095 -0.9196  0.9806  0.3631
   30DOPE  C211 3799   0.504   6.726  15.067 -0.4565 -0.9669 -0.1318
   30DOPE  H11R 3800   0.399   6.760  15.056 -1.1250 -3.0899 -0.9422
   30DOPE  H11S 3801   0.507   6.623  15.109 -1.0784 -0.7480  0.4660
   30DOPE  C212 3802   0.575   6.712  14.924  0.3381 -0.1214 -0.2010
   30DOPE  H12R 3803   0.567   6.604  14.899  0.7144 -1.3641  4.1757
   30DOPE  H12S 3804   0.685   6.728  14.924  0.3156  0.2009  1.0988
   30DOPE  C213 3805   0.514   6.810  14.822 -0.5904 -0.1672 -0.2987
   30DOPE  H13R 3806   0.530   6.911  14.866 -3.4501 -0.0162  0.5607
   30DOPE  H13S 3807   0.405   6.789  14.822 -0.6536 -0.8629  4.2824
   30DOPE  C214 3808   0.564   6.806  14.673 -0.9121 -0.1175  0.0154
   30DOPE  H14R 3809   0.530   6.890  14.609  1.0464  0.4283 -0.3852
   30DOPE  H14S 3810   0.538   6.707  14.629  2.5302 -1.6131  0.9777
   30DOPE  C215 3811   0.718   6.828  14.668 -1.0307  0.2263  0.1690
   30DOPE  H15R 3812   0.782   6.757  14.725  1.8736  3.3747  1.1800
   30DOPE  H15S 3813   0.752   6.922  14.716 -2.0575 -0.3924  2.2664
   30DOPE  C216 3814   0.784   6.838  14.525 -1.1233  0.3030 -0.0011
   30DOPE  H16R 3815   0.760   6.929  14.467  0.3132 -0.0619 -1.2052
   30DOPE  H16S 3816   0.738   6.763  14.457 -1.1021  1.8296 -1.7438
   30DOPE  C217 3817   0.942   6.820  14.531  0.0453  0.5046  0.1779
   30DOPE  H17R 3818   0.966   6.717  14.565 -1.0219  0.0051 -0.5528
   30DOPE  H17S 3819   0.971   6.906  14.596  1.7308  0.3000 -0.2601
   30DOPE  C218 3820   1.007   6.831  14.393  0.5638  0.2356 -0.3675
   30DOPE  H18R 3821   0.967   6.763  14.315 -0.9398 -0.0173  0.5840
   30DOPE  H18S 3822   1.113   6.801  14.404  0.8383  1.1677 -0.4142
   30DOPE  H18T 3823   1.000   6.937  14.360  1.5118 -0.0041 -1.3867
   30DOPE   C33 3824   0.533   7.182  16.025  0.1926 -0.3001 -0.0981
   30DOPE   H3X 3825   0.627   7.158  15.969  2.1972 -1.8929  3.5813
   30DOPE   H3Y 3826   0.553   7.257  16.105 -0.9333  2.1890 -2.0271
   30DOPE   C34 3827   0.427   7.241  15.928 -0.6355 -0.2126  0.3756
   30DOPE   H4X 3828   0.322   7.242  15.962 -1.7989  0.0552 -2.8672
   30DOPE   H4Y 3829   0.454   7.346  15.901  1.1640 -1.2303 -2.1976
   30DOPE   C35 3830   0.427   7.188  15.784 -0.0434  0.1871 -0.1241
   30DOPE   H5X 3831   0.410   7.079  15.771 -0.4262 -0.0957  2.2435
   30DOPE   H5Y 3832   0.528   7.207  15.741 -1.5358  1.7694 -3.3278
   30DOPE   C36 3833   0.325   7.257  15.689 -0.4443  0.8644  0.7450
   30DOPE   H6X 3834   0.364   7.353  15.650 -0.9517  0.4631 -0.8382
   30DOPE   H6Y 3835   0.239   7.294  15.748  0.8632  1.4477  2.3570
   30DOPE   C37 3836   0.280   7.176  15.566 -0.7409  0.0943  0.9285
   30DOPE   H7X 3837   0.233   7.079  15.597  2.3728 -0.5735  4.1987
   30DOPE   H7Y 3838   0.209   7.243  15.514 -1.5924 -0.6953  1.0376
   30DOPE   C38 3839   0.398   7.144  15.474  0.9588 -0.3304  0.0175
   30DOPE   H8X 3840   0.484   7.109  15.535  1.3199 -1.1671 -0.9534
   30DOPE   H8Y 3841   0.442   7.235  15.429  1.3349 -0.6792 -0.3243
   30DOPE   C39 3842   0.365   7.047  15.360 -0.3669  0.5718  0.2231
   30DOPE   H9X 3843   0.385   6.939  15.366  0.3472  0.6589 -0.4473
   30DOPE  C310 3844   0.303   7.088  15.244 -0.4496  0.7728 -0.0758
   30DOPE  H10X 3845   0.278   7.008  15.173  1.6925 -1.1117  1.1491
   30DOPE  C311 3846   0.253   7.220  15.206  0.0788  0.1887  0.2347
   30DOPE  H11X 3847   0.146   7.213  15.176 -0.0744  1.5517  0.3758
   30DOPE  H11Y 3848   0.267   7.290  15.291  3.2925 -0.8705  0.7199
   30DOPE  C312 3849   0.339   7.272  15.086  0.3985 -0.3913 -0.5657
   30DOPE  H12X 3850   0.445   7.273  15.119 -0.5254  0.1871  2.8571
   30DOPE  H12Y 3851   0.310   7.377  15.069  3.0426  0.3626 -0.8243
   30DOPE  C313 3852   0.330   7.183  14.959 -0.0953 -0.0272 -0.5147
   30DOPE  H13X 3853   0.363   7.077  14.963  0.8146  0.1895 -1.7370
   30DOPE  H13Y 3854   0.221   7.174  14.940 -0.1711 -2.2247  0.6952
   30DOPE  C314 3855   0.379   7.261  14.837 -0.1015  0.6038 -0.2545
   30DOPE  H14X 3856   0.483   7.300  14.838  0.4835 -0.8097 -1.3237
   30DOPE  H14Y 3857   0.321   7.355  14.828 -2.0075 -0.6691 -2.9672
   30DOPE  C315 3858   0.373   7.168  14.708  0.3176 -0.0240  0.0294
   30DOPE  H15X 3859   0.467   7.109  14.710  1.0256  1.0011  3.6384
   30DOPE  H15Y 3860   0.385   7.236  14.621  0.3278 -0.7368 -0.5306
   30DOPE  C316 3861   0.263   7.070  14.695 -0.6151  0.1502  0.0991
   30DOPE  H16X 3862   0.166   7.123  14.700  0.9922  3.2612  0.4727
   30DOPE  H16Y 3863   0.269   6.995  14.777  0.2704  2.5128  2.3114
   30DOPE  C317 3864   0.260   6.991  14.565 -0.5480  0.1083  0.3433
   30DOPE  H17X 3865   0.363   6.965  14.535 -0.2522 -0.7590  1.9818
   30DOPE  H17Y 3866   0.205   6.897  14.586 -2.2498  0.7364 -1.0389
   30DOPE  C318 3867   0.199   7.058  14.436  0.4762  0.5967  0.6449
   30DOPE  H18X 3868   0.094   7.023  14.427  1.3961 -2.0098 -1.2610
   30DOPE  H18Y 3869   0.202   7.167  14.455 -0.2187  0.4699  1.5376
   30DOPE  H18Z 3870   0.249   7.019  14.345 -0.3618  0.1038  0.3843
   31DOPE     N 3871   3.098   3.993  12.245  0.2231  0.0372 -0.2586
   31DOPE   HN1 3872   3.102   3.912  12.310  2.8702 -0.9331 -1.5032
   31DOPE   HN2 3873   3.191   4.034  12.228  0.7965 -1.6188 -1.3394
   31DOPE   HN3 3874   3.040   4.072  12.279  1.8843  1.1288  0.1332
   31DOPE   C12 3875   3.032   3.946  12.112 -0.0524 -0.2485  0.2521
   31DOPE  H12A 3876   3.095   3.860  12.080 -1.8246 -2.9463  3.4117
   31DOPE  H12B 3877   3.038   4.034  12.044  2.4534  0.1230  0.8266
   31DOPE   C11 3878   2.891   3.897  12.129  1.3185  0.5491 -0.1519
   31DOPE  H11A 3879   2.846   3.859  12.034  0.1875 -2.2554  1.4142
   31DOPE  H11B 3880   2.824   3.974  12.174  0.6469 -0.4690  0.6263
   31DOPE     P 3881   2.799   3.673  12.232  0.3078  0.1113  0.5209
   31DOPE   O13 3882   2.857   3.597  12.349  0.4810 -0.7071  0.7882
   31DOPE   O14 3883   2.797   3.600  12.103 -0.8663 -0.7234  0.3585
   31DOPE   O11 3884   2.656   3.727  12.268 -1.0107 -0.0182  0.1278
   31DOPE   O12 3885   2.892   3.793  12.227  0.2088  0.1770 -0.1356
   31DOPE    C1 3886   2.631   3.836  12.357 -0.8153 -0.6631 -0.4960
   31DOPE    HA 3887   2.549   3.898  12.315 -0.0876  1.0897  0.5913
   31DOPE    HB 3888   2.723   3.897  12.356 -0.2785 -1.4423  0.2660
   31DOPE    C2 3889   2.587   3.777  12.501 -0.2720 -0.4916  0.8719
   31DOPE    HS 3890   2.671   3.712  12.533  1.1117  1.0923  0.5781
   31DOPE   O21 3891   2.464   3.712  12.488 -0.1430  0.0595  0.0932
   31DOPE   C21 3892   2.463   3.590  12.555  0.6136  0.1041 -0.1666
   31DOPE   O22 3893   2.545   3.553  12.632 -0.0330  0.0022 -0.1495
   31DOPE   C22 3894   2.378   3.491  12.477  0.3324  0.5744  0.1845
   31DOPE   H2R 3895   2.440   3.453  12.393 -1.9060 -0.1188 -1.2312
   31DOPE   H2S 3896   2.298   3.547  12.425  1.0758  0.8489 -0.6890
   31DOPE    C3 3897   2.580   3.894  12.602  0.2197  0.1633 -0.2716
   31DOPE    HX 3898   2.483   3.947  12.591 -0.1103 -0.5303 -0.8822
   31DOPE    HY 3899   2.655   3.975  12.587 -0.0942  0.9821  2.1402
   31DOPE   O31 3900   2.599   3.841  12.736 -0.1628  0.2321  0.3718
   31DOPE   C31 3901   2.721   3.813  12.775  0.5097  0.2113  0.1714
   31DOPE   O32 3902   2.823   3.844  12.716 -0.0840 -0.0795  0.1352
   31DOPE   C32 3903   2.715   3.735  12.903  0.8353 -0.0321 -0.0299
   31DOPE   H2X 3904   2.670   3.810  12.972  2.2884  2.5559 -1.7718
   31DOPE   H2Y 3905   2.635   3.657  12.896 -0.7633  1.1002  3.2922
   31DOPE   C23 3906   2.312   3.383  12.568 -0.3899  0.0752  0.6296
   31DOPE   H3R 3907   2.231   3.332  12.511 -0.3407 -1.0689  1.5618
   31DOPE   H3S 3908   2.276   3.416  12.668  1.4322 -0.2241  1.4179
   31DOPE   C24 3909   2.409   3.271  12.588  0.3094 -0.0842 -0.3142
   31DOPE   H4R 3910   2.497   3.315  12.640 -0.1230 -0.1201  0.4687
   31DOPE   H4S 3911   2.442   3.223  12.493  0.8500 -0.2536 -0.0495
   31DOPE   C25 3912   2.353   3.152  12.678  0.7817 -0.3000  0.3497
   31DOPE   H5R 3913   2.262   3.107  12.633  0.8961  0.0040 -0.2023
   31DOPE   H5S 3914   2.311   3.209  12.764 -2.1620  0.4387 -1.4152
   31DOPE   C26 3915   2.452   3.038  12.719  0.1606 -0.5231  0.2106
   31DOPE   H6R 3916   2.473   2.982  12.625 -1.6276 -0.8880  0.0008
   31DOPE   H6S 3917   2.401   2.947  12.756  0.9281 -1.5826 -1.2026
   31DOPE   C27 3918   2.582   3.074  12.800  0.2735 -0.4824  0.0651
   31DOPE   H7R 3919   2.626   3.154  12.737 -1.6683  1.2353  0.7532
   31DOPE   H7S 3920   2.650   2.987  12.789 -2.2641 -2.4136 -1.5444
   31DOPE   C28 3921   2.559   3.121  12.943  0.0751  0.2541 -1.1042
   31DOPE   H8R 3922   2.508   3.219  12.942  1.5419  1.0731  0.1034
   31DOPE   H8S 3923   2.651   3.138  13.003 -1.3654 -2.1122  2.0659
   31DOPE   C29 3924   2.472   3.021  13.014 -0.0120  0.7243 -0.5426
   31DOPE   H9R 3925   2.363   3.035  13.024  0.0853  0.3095  1.6747
   31DOPE  C210 3926   2.525   2.916  13.074  0.2805 -0.1974 -0.1349
   31DOPE  H10R 3927   2.462   2.832  13.106 -0.1846 -0.1070 -0.8121
   31DOPE  C211 3928   2.673   2.890  13.083 -0.2892 -0.1813  0.0998
   31DOPE  H11R 3929   2.735   2.979  13.107  1.1568 -1.0530 -0.1987
   31DOPE  H11S 3930   2.714   2.858  12.984  2.1258  1.3344  0.5157
   31DOPE  C212 3931   2.708   2.778  13.186  0.6987 -0.1366 -0.2736
   31DOPE  H12R 3932   2.814   2.746  13.179 -0.1477 -3.3684  0.3870
   31DOPE  H12S 3933   2.644   2.690  13.167  0.5346  0.4580 -2.8849
   31DOPE  C213 3934   2.693   2.826  13.333  0.0944 -0.0046 -0.0643
   31DOPE  H13R 3935   2.584   2.842  13.348 -0.1920 -0.9593 -0.9662
   31DOPE  H13S 3936   2.741   2.926  13.344 -2.8419  1.5065 -0.0936
   31DOPE  C214 3937   2.743   2.734  13.440 -0.3685 -0.1630 -0.2798
   31DOPE  H14R 3938   2.849   2.714  13.413 -1.3694 -1.2914 -3.9338
   31DOPE  H14S 3939   2.689   2.637  13.441 -0.8574  0.0557  2.1708
   31DOPE  C215 3940   2.728   2.791  13.581  0.0676 -0.6541 -0.0065
   31DOPE  H15R 3941   2.621   2.813  13.601 -0.3317 -2.5944  0.1700
   31DOPE  H15S 3942   2.798   2.878  13.584 -2.5015  1.5450 -0.3736
   31DOPE  C216 3943   2.791   2.692  13.683 -0.6550 -0.5035 -0.2851
   31DOPE  H16R 3944   2.808   2.751  13.775 -2.3695 -0.8778  0.3176
   31DOPE  H16S 3945   2.890   2.655  13.651  0.0964 -0.1302  1.5123
   31DOPE  C217 3946   2.703   2.572  13.718 -0.3194 -0.0413 -0.0402
   31DOPE  H17R 3947   2.682   2.510  13.628 -1.7381 -0.2994  0.4445
   31DOPE  H17S 3948   2.598   2.602  13.740 -0.7422 -0.3468 -1.5252
   31DOPE  C218 3949   2.765   2.488  13.826  0.2291  0.0834 -0.1082
   31DOPE  H18R 3950   2.801   2.556  13.907 -1.8399 -0.2738  1.1758
   31DOPE  H18S 3951   2.859   2.446  13.784  1.7027  3.2763 -0.3664
   31DOPE  H18T 3952   2.698   2.407  13.861 -3.1805  0.9544 -3.8350
   31DOPE   C33 3953   2.854   3.702  12.955 -0.0797  0.0728 -0.3453
   31DOPE   H3X 3954   2.913   3.796  12.952  1.2468 -0.6014  2.0175
   31DOPE   H3Y 3955   2.902   3.621  12.895 -1.6468 -0.0149 -1.5364
   31DOPE   C34 3956   2.869   3.649  13.102 -0.0284 -0.4934 -0.1694
   31DOPE   H4X 3957   2.977   3.638  13.123 -0.2037 -0.9242  0.5433
   31DOPE   H4Y 3958   2.832   3.726  13.172  0.8107 -0.4334  0.2207
   31DOPE   C35 3959   2.809   3.511  13.126  0.0821 -0.2462 -0.1403
   31DOPE   H5X 3960   2.848   3.441  13.049  2.3273  0.2447  0.4740
   31DOPE   H5Y 3961   2.703   3.537  13.110  0.0706  1.3891  2.1313
   31DOPE   C36 3962   2.844   3.453  13.266 -0.3410 -0.3464  0.4042
   31DOPE   H6X 3963   2.828   3.535  13.338  0.8598 -0.3204  0.6589
   31DOPE   H6Y 3964   2.951   3.425  13.266 -0.2910 -0.1876 -0.2320
   31DOPE   C37 3965   2.752   3.335  13.288 -0.2405  0.5107 -0.1267
   31DOPE   H7X 3966   2.645   3.364  13.289  0.1404  2.0575 -1.0013
   31DOPE   H7Y 3967   2.765   3.259  13.209 -1.8460 -1.8158  1.6976
   31DOPE   C38 3968   2.767   3.273  13.427  0.7790 -0.3443  0.1629
   31DOPE   H8X 3969   2.684   3.200  13.439 -0.3438  0.3705 -2.4086
   31DOPE   H8Y 3970   2.772   3.356  13.500  2.9653  0.5421 -0.9148
   31DOPE   C39 3971   2.891   3.188  13.422 -0.3995 -0.0569 -0.3696
   31DOPE   H9X 3972   2.913   3.138  13.327 -1.7782 -0.2431 -0.6114
   31DOPE  C310 3973   2.983   3.182  13.522  0.4879  0.3117  0.0069
   31DOPE  H10X 3974   3.079   3.130  13.511  1.3790  1.8141  0.2965
   31DOPE  C311 3975   2.988   3.250  13.654 -0.2933 -0.2816 -0.5642
   31DOPE  H11X 3976   3.089   3.278  13.692 -0.4266 -0.3347 -0.1612
   31DOPE  H11Y 3977   2.943   3.351  13.651  2.4366  1.0576 -0.0777
   31DOPE  C312 3978   2.915   3.162  13.762  0.2047 -0.8702  0.1755
   31DOPE  H12X 3979   2.812   3.136  13.729  0.5818 -0.9112 -1.0270
   31DOPE  H12Y 3980   2.907   3.221  13.856  0.1054 -1.2043  0.3780
   31DOPE  C313 3981   2.987   3.028  13.801  0.4153 -0.3284  0.0204
   31DOPE  H13X 3982   2.989   2.955  13.717 -1.3563 -1.8078  1.1866
   31DOPE  H13Y 3983   3.095   3.052  13.809  0.1387  1.6602 -1.6050
   31DOPE  C314 3984   2.941   2.974  13.942 -0.4491 -0.0422 -0.4430
   31DOPE  H14X 3985   2.832   2.954  13.934 -0.2730 -1.7099  0.8774
   31DOPE  H14Y 3986   2.957   3.054  14.017 -2.3787 -0.2154  0.1965
   31DOPE  C315 3987   2.999   2.837  13.973 -0.4689 -0.0116 -0.2243
   31DOPE  H15X 3988   3.108   2.850  13.992 -0.0017 -0.1048 -2.5770
   31DOPE  H15Y 3989   2.983   2.763  13.891  2.0541 -1.5232  0.5179
   31DOPE  C316 3990   2.945   2.779  14.104  0.3095 -0.0876 -0.1408
   31DOPE  H16X 3991   2.994   2.682  14.126 -2.1597 -1.1349  1.1046
   31DOPE  H16Y 3992   2.837   2.758  14.093  0.1340  0.0078  1.2523
   31DOPE  C317 3993   2.966   2.865  14.227 -0.0811 -0.1178 -0.6890
   31DOPE  H17X 3994   3.074   2.889  14.226 -0.0291 -0.3220 -0.2553
   31DOPE  H17Y 3995   2.922   2.966  14.214  1.7416  0.8364  0.1952
   31DOPE  C318 3996   2.920   2.811  14.363  0.1496  0.5023 -0.8240
   31DOPE  H18X 3997   2.809   2.812  14.370  0.0590 -1.1091 -1.5489
   31DOPE  H18Y 3998   2.952   2.705  14.372  0.0566  0.6605  2.9798
   31DOPE  H18Z 3999   2.956   2.871  14.449  0.1313 -1.0428  0.2991
   32DOPE     N 4000   5.624   3.568  11.861  0.2370 -0.4054  0.6665
   32DOPE   HN1 4001   5.543   3.606  11.808  0.5741 -0.3993  0.1512
   32DOPE   HN2 4002   5.696   3.642  11.872 -0.8203  0.4573  2.0647
   32DOPE   HN3 4003   5.669   3.501  11.795 -2.2180 -1.1565 -0.3575
   32DOPE   C12 4004   5.585   3.487  11.983  0.2369  0.0960  0.5026
   32DOPE  H12A 4005   5.535   3.557  12.053 -0.8527 -1.9003  1.8437
   32DOPE  H12B 4006   5.677   3.444  12.028  0.2657  0.9917  1.3369
   32DOPE   C11 4007   5.475   3.384  11.939 -0.0899 -0.5543 -0.1468
   32DOPE  H11A 4008   5.443   3.331  12.031 -0.0612 -0.3319 -0.0075
   32DOPE  H11B 4009   5.530   3.327  11.861  1.4422 -1.0139  1.2206
   32DOPE     P 4010   5.253   3.374  11.810 -0.0559 -0.0927  0.4084
   32DOPE   O13 4011   5.315   3.290  11.700 -0.2428 -0.8420  0.7978
   32DOPE   O14 4012   5.157   3.479  11.772  0.0233 -0.1490 -0.1343
   32DOPE   O11 4013   5.189   3.289  11.926  0.0518  0.4490 -0.3171
   32DOPE   O12 4014   5.371   3.454  11.878 -0.2473  0.4321 -0.1332
   32DOPE    C1 4015   5.069   3.319  11.989  0.3879  0.2117 -0.1326
   32DOPE    HA 4016   5.047   3.238  12.061  2.2327  1.7460  2.2937
   32DOPE    HB 4017   4.986   3.343  11.919 -0.7683  2.1005  1.7411
   32DOPE    C2 4018   5.084   3.436  12.084 -0.0217 -1.0657  0.6542
   32DOPE    HS 4019   5.122   3.516  12.017 -0.2076 -1.0731  0.5411
   32DOPE   O21 4020   5.180   3.408  12.189  0.1972  0.4415  0.1429
   32DOPE   C21 4021   5.252   3.512  12.220 -0.1196 -0.5314  0.2221
   32DOPE   O22 4022   5.224   3.627  12.188  0.1242  0.3280  0.2232
   32DOPE   C22 4023   5.374   3.471  12.303  0.6950 -0.6888 -0.3170
   32DOPE   H2R 4024   5.473   3.489  12.255  3.0556  0.4667  4.3732
   32DOPE   H2S 4025   5.369   3.361  12.321 -0.2504 -0.7270 -0.7887
   32DOPE    C3 4026   4.941   3.468  12.142 -0.3972  0.7844 -0.2377
   32DOPE    HX 4027   4.873   3.490  12.057  1.2861  1.8413 -1.3750
   32DOPE    HY 4028   4.947   3.566  12.195  0.5016 -0.6680  2.5347
   32DOPE   O31 4029   4.883   3.364  12.224  0.8990  0.0356 -0.1143
   32DOPE   C31 4030   4.888   3.389  12.355 -0.8773 -0.1802  0.4516
   32DOPE   O32 4031   4.945   3.488  12.405  0.0124 -0.0226  0.0382
   32DOPE   C32 4032   4.854   3.264  12.432 -0.0293 -0.2659 -1.0331
   32DOPE   H2X 4033   4.749   3.233  12.409  0.5336 -1.9363 -1.4333
   32DOPE   H2Y 4034   4.915   3.180  12.394  0.0799 -0.9154  0.5421
   32DOPE   C23 4035   5.378   3.549  12.443  0.1397 -0.5873  0.5548
   32DOPE   H3R 4036   5.381   3.659  12.425 -0.5453 -0.7224 -0.5255
   32DOPE   H3S 4037   5.474   3.515  12.485  0.7084  0.9291  0.5419
   32DOPE   C24 4038   5.262   3.504  12.527 -0.4045 -0.1419 -0.1152
   32DOPE   H4R 4039   5.253   3.394  12.530 -0.2013 -0.1540  0.1076
   32DOPE   H4S 4040   5.168   3.552  12.492 -1.5419 -1.8486  0.4778
   32DOPE   C25 4041   5.275   3.549  12.674 -0.1514 -0.7864 -0.7952
   32DOPE   H5R 4042   5.268   3.659  12.685  1.3013 -0.6882 -0.5373
   32DOPE   H5S 4043   5.377   3.532  12.716  0.0026  3.0147  0.7927
   32DOPE   C26 4044   5.176   3.479  12.766 -0.0129  0.2884 -0.0871
   32DOPE   H6R 4045   5.212   3.377  12.793  1.1397  1.6216  4.1881
   32DOPE   H6S 4046   5.078   3.480  12.714  0.3133 -0.7620 -0.7680
   32DOPE   C27 4047   5.160   3.549  12.899  0.1479 -0.2938 -0.1675
   32DOPE   H7R 4048   5.144   3.655  12.869 -1.7794 -1.7171 -5.4003
   32DOPE   H7S 4049   5.262   3.543  12.942 -0.6048 -0.3303  1.6924
   32DOPE   C28 4050   5.056   3.504  13.003 -0.3910  0.6200 -0.2719
   32DOPE   H8R 4051   5.109   3.528  13.097  0.9347  1.6832 -1.2503
   32DOPE   H8S 4052   5.050   3.393  13.001  0.3090  0.5749 -0.1108
   32DOPE   C29 4053   4.923   3.572  13.010  0.2580 -0.2836  0.1518
   32DOPE   H9R 4054   4.857   3.566  12.922 -0.3093 -1.3815  0.6310
   32DOPE  C210 4055   4.861   3.621  13.116  0.0282  0.0378  0.0972
   32DOPE  H10R 4056   4.756   3.647  13.096 -0.4327 -2.2659 -0.8149
   32DOPE  C211 4057   4.910   3.622  13.257  0.4208 -1.1560 -0.8106
   32DOPE  H11R 4058   4.861   3.711  13.301  1.4143 -0.8848 -0.2186
   32DOPE  H11S 4059   5.019   3.644  13.253 -0.0434  2.3094  1.4232
   32DOPE  C212 4060   4.862   3.496  13.330  0.0996  0.2160 -0.0404
   32DOPE  H12R 4061   4.753   3.494  13.352  0.1340 -1.8079  0.1659
   32DOPE  H12S 4062   4.911   3.492  13.429 -0.5412 -1.6337  0.2333
   32DOPE  C213 4063   4.901   3.367  13.262  0.4892 -0.0167  0.6711
   32DOPE  H13R 4064   5.004   3.382  13.223 -0.4550  0.1257 -1.9919
   32DOPE  H13S 4065   4.843   3.348  13.168  0.6272 -1.5050  0.8579
   32DOPE  C214 4066   4.892   3.245  13.355  0.2660  0.0471 -0.0438
   32DOPE  H14R 4067   4.876   3.154  13.294 -2.1712  0.4799 -0.1481
   32DOPE  H14S 4068   4.808   3.258  13.427 -0.8526  0.6551 -1.3990
   32DOPE  C215 4069   5.025   3.221  13.425  0.2135  0.1775  0.2922
   32DOPE  H15R 4070   5.042   3.299  13.502 -2.1126  1.0304  0.0324
   32DOPE  H15S 4071   5.100   3.240  13.345 -0.4483 -0.1464 -0.4244
   32DOPE  C216 4072   5.039   3.083  13.493 -0.0014  0.2292  0.3263
   32DOPE  H16R 4073   5.049   3.002  13.418  1.4654 -0.3523  1.1176
   32DOPE  H16S 4074   4.942   3.053  13.538 -0.7495  0.1220 -1.2779
   32DOPE  C217 4075   5.168   3.067  13.572  0.5467  0.7836  0.2078
   32DOPE  H17R 4076   5.183   3.156  13.636  2.3029 -0.1939  1.2374
   32DOPE  H17S 4077   5.259   3.063  13.509  1.7578  0.2911  1.9160
   32DOPE  C218 4078   5.167   2.945  13.660  0.0880  0.1878  0.2423
   32DOPE  H18R 4079   5.095   2.940  13.745 -0.9823  0.3291 -0.6276
   32DOPE  H18S 4080   5.265   2.924  13.708  0.2515 -0.1939 -0.2481
   32DOPE  H18T 4081   5.143   2.854  13.601 -0.6437  0.4123  0.1879
   32DOPE   C33 4082   4.860   3.277  12.587 -0.8703  0.4767  0.6272
   32DOPE   H3X 4083   4.956   3.319  12.624 -0.9369  1.0565  0.1575
   32DOPE   H3Y 4084   4.861   3.180  12.640 -0.8215  0.0354 -0.1692
   32DOPE   C34 4085   4.751   3.368  12.641  0.8001 -0.7689 -0.5277
   32DOPE   H4X 4086   4.784   3.474  12.634 -0.7211 -0.3162 -1.2389
   32DOPE   H4Y 4087   4.660   3.361  12.578  0.2476 -0.4832  0.2168
   32DOPE   C35 4088   4.722   3.327  12.784  0.0069 -0.0794  0.1043
   32DOPE   H5X 4089   4.811   3.352  12.846  1.4057  0.5651 -2.0610
   32DOPE   H5Y 4090   4.704   3.217  12.787 -1.9942  0.1893 -0.5978
   32DOPE   C36 4091   4.601   3.396  12.846  0.4307  0.0628 -0.3564
   32DOPE   H6X 4092   4.508   3.369  12.790  1.4020 -1.2614 -1.3957
   32DOPE   H6Y 4093   4.616   3.506  12.843  1.3223  0.0503  1.8019
   32DOPE   C37 4094   4.589   3.354  12.994  0.0538 -0.3455  0.1836
   32DOPE   H7X 4095   4.687   3.372  13.043  0.1131 -1.2681  0.4201
   32DOPE   H7Y 4096   4.520   3.422  13.049 -0.2621  0.3744 -1.0734
   32DOPE   C38 4097   4.560   3.195  13.014  0.6779 -0.1077 -0.1843
   32DOPE   H8X 4098   4.618   3.133  12.942  2.2414  1.2793 -0.1882
   32DOPE   H8Y 4099   4.455   3.166  12.997  0.2863  1.5985 -0.9539
   32DOPE   C39 4100   4.597   3.146  13.148  0.2399 -0.2739 -0.2877
   32DOPE   H9X 4101   4.705   3.124  13.151  0.8671  2.0585 -2.4200
   32DOPE  C310 4102   4.514   3.144  13.259 -0.5229  0.4006  0.3439
   32DOPE  H10X 4103   4.564   3.112  13.352  0.5237  0.6806 -0.1018
   32DOPE  C311 4104   4.375   3.190  13.280  0.3480  0.2990 -0.1533
   32DOPE  H11X 4105   4.371   3.251  13.373 -1.4298  0.2086 -0.1469
   32DOPE  H11Y 4106   4.340   3.252  13.195  1.4757  0.3530 -0.6012
   32DOPE  C312 4107   4.277   3.072  13.295  0.0682 -0.5924  0.3685
   32DOPE  H12X 4108   4.308   3.028  13.392 -0.6021  1.3401  1.5229
   32DOPE  H12Y 4109   4.283   2.993  13.218 -0.5609 -0.5156  0.2295
   32DOPE  C313 4110   4.129   3.122  13.299  0.3951  0.3521  1.0172
   32DOPE  H13X 4111   4.078   3.068  13.382  1.0512  1.3891  2.1241
   32DOPE  H13Y 4112   4.126   3.228  13.333  0.6175  0.7169 -0.0809
   32DOPE  C314 4113   4.036   3.089  13.179  0.0404  0.8037  0.4413
   32DOPE  H14X 4114   3.940   3.144  13.191  0.1877  1.0021  0.7163
   32DOPE  H14Y 4115   4.013   2.981  13.192  0.7917  0.5425 -0.3316
   32DOPE  C315 4116   4.089   3.103  13.035  0.3700  0.5118 -0.2098
   32DOPE  H15X 4117   4.177   3.035  13.030  0.4479  0.3526  2.0827
   32DOPE  H15Y 4118   4.118   3.210  13.020 -2.7558  1.5000  0.1591
   32DOPE  C316 4119   3.984   3.077  12.932 -0.0603 -0.0049  0.4436
   32DOPE  H16X 4120   3.914   3.162  12.951  1.7812  1.7723 -0.3364
   32DOPE  H16Y 4121   3.947   2.976  12.961  3.4520 -2.1292 -1.6967
   32DOPE  C317 4122   4.039   3.072  12.788  0.4313  0.2352  0.1412
   32DOPE  H17X 4123   4.106   3.158  12.767  0.1249  0.2813 -0.6742
   32DOPE  H17Y 4124   4.106   2.985  12.772 -0.1391  0.1456 -1.9189
   32DOPE  C318 4125   3.922   3.067  12.684  0.0794 -0.5929  0.3856
   32DOPE  H18X 4126   3.880   2.965  12.669 -0.2224 -0.0547 -3.4718
   32DOPE  H18Y 4127   3.838   3.136  12.709 -0.0003 -0.5295 -0.0488
   32DOPE  H18Z 4128   3.966   3.104  12.589  1.4899 -2.3716  0.2881
   33DOPE     N 4129   3.109   2.497  12.137  0.1633  0.2654  0.1969
   33DOPE   HN1 4130   3.184   2.475  12.068 -1.6651  1.6442 -2.4379
   33DOPE   HN2 4131   3.075   2.401  12.162  1.3494 -0.4933 -0.9652
   33DOPE   HN3 4132   3.034   2.552  12.090  1.4493  0.6287 -1.5328
   33DOPE   C12 4133   3.174   2.553  12.253  0.3675 -0.1327 -0.2698
   33DOPE  H12A 4134   3.087   2.567  12.321  0.1235  0.9492 -0.7990
   33DOPE  H12B 4135   3.218   2.653  12.234  0.5558 -0.2034 -0.2183
   33DOPE   C11 4136   3.253   2.446  12.321 -0.0949 -0.5353  0.4746
   33DOPE  H11A 4137   3.193   2.357  12.351 -0.0343 -0.0460  2.1518
   33DOPE  H11B 4138   3.298   2.478  12.417 -0.4993 -0.2907  0.5844
   33DOPE     P 4139   3.492   2.491  12.203 -0.4609 -0.2906  0.2977
   33DOPE   O13 4140   3.449   2.619  12.142 -0.1775 -0.1362 -0.1385
   33DOPE   O14 4141   3.590   2.412  12.118 -0.9636  0.2373 -0.7041
   33DOPE   O11 4142   3.563   2.516  12.339 -0.5825  0.2661 -0.3466
   33DOPE   O12 4143   3.364   2.401  12.236 -0.0332 -0.0878 -0.0599
   33DOPE    C1 4144   3.521   2.605  12.445 -0.0654 -0.5056 -0.2062
   33DOPE    HA 4145   3.489   2.551  12.536 -0.2913  1.0610  0.6902
   33DOPE    HB 4146   3.442   2.675  12.411  1.4638  2.4602  1.8056
   33DOPE    C2 4147   3.631   2.706  12.483  0.0683  0.1404 -0.2115
   33DOPE    HS 4148   3.667   2.762  12.394  1.3397  1.0961  0.8645
   33DOPE   O21 4149   3.728   2.633  12.553 -0.2031 -0.3914 -0.2721
   33DOPE   C21 4150   3.822   2.575  12.475 -0.0072  0.9819 -0.3036
   33DOPE   O22 4151   3.849   2.599  12.360 -0.3360  0.6868  0.1000
   33DOPE   C22 4152   3.896   2.478  12.571 -0.8331  0.0293  0.3845
   33DOPE   H2R 4153   3.902   2.378  12.524 -0.5260  0.0995  0.2734
   33DOPE   H2S 4154   3.838   2.474  12.666 -1.2478 -0.5279  0.1110
   33DOPE    C3 4155   3.582   2.824  12.576 -0.2537 -0.2957  0.3660
   33DOPE    HX 4156   3.499   2.881  12.530 -1.0063 -0.8460  1.0079
   33DOPE    HY 4157   3.671   2.889  12.591 -0.6437  0.1602  0.7316
   33DOPE   O31 4158   3.538   2.774  12.711  0.1827 -0.0452 -0.1082
   33DOPE   C31 4159   3.407   2.748  12.726 -0.6579 -0.2987 -0.1734
   33DOPE   O32 4160   3.322   2.773  12.641 -0.2396 -0.4412  0.6090
   33DOPE   C32 4161   3.384   2.700  12.870  0.2499 -0.3830 -0.1870
   33DOPE   H2X 4162   3.400   2.590  12.882  2.8420 -0.1664 -1.0722
   33DOPE   H2Y 4163   3.462   2.751  12.929  0.7190  0.6501 -1.6378
   33DOPE   C23 4164   4.048   2.523  12.580  0.1147  0.2378 -0.2139
   33DOPE   H3R 4165   4.090   2.533  12.478  1.9353 -3.4611  0.0252
   33DOPE   H3S 4166   4.109   2.441  12.624  2.5873  2.0013 -0.1392
   33DOPE   C24 4167   4.084   2.651  12.657  0.3957 -0.2433 -1.0962
   33DOPE   H4R 4168   4.005   2.727  12.642  1.1224  0.5653 -0.8785
   33DOPE   H4S 4169   4.177   2.688  12.607  1.0081 -0.1335  0.0937
   33DOPE   C25 4170   4.118   2.627  12.808  0.7684 -0.6730 -0.9687
   33DOPE   H5R 4171   4.149   2.728  12.843 -0.7309 -0.2906 -0.6885
   33DOPE   H5S 4172   4.200   2.552  12.817  0.3065 -0.9065  3.4836
   33DOPE   C26 4173   3.994   2.587  12.895  0.3277  0.8767  0.3947
   33DOPE   H6R 4174   4.024   2.585  13.002 -1.2716 -0.7133  0.8667
   33DOPE   H6S 4175   3.960   2.486  12.863  0.3937  1.5118 -1.8487
   33DOPE   C27 4176   3.866   2.668  12.873  0.6663 -0.0939  0.5203
   33DOPE   H7R 4177   3.828   2.668  12.768 -0.2052  2.2395  0.7763
   33DOPE   H7S 4178   3.884   2.776  12.894  1.4969  0.0201 -0.6288
   33DOPE   C28 4179   3.764   2.611  12.966  0.0615 -0.5190 -1.0115
   33DOPE   H8R 4180   3.695   2.698  12.977  2.9495  1.9671 -1.3661
   33DOPE   H8S 4181   3.799   2.616  13.071  0.2234  3.2588 -1.1143
   33DOPE   C29 4182   3.677   2.500  12.924  0.0214  0.5154 -0.1933
   33DOPE   H9R 4183   3.628   2.523  12.828  0.9166  2.4853 -0.2240
   33DOPE  C210 4184   3.663   2.384  12.982  0.5791  0.0798 -0.4938
   33DOPE  H10R 4185   3.604   2.319  12.915  2.0013 -0.8077 -0.9503
   33DOPE  C211 4186   3.727   2.346  13.109 -0.1469  0.8907 -0.2756
   33DOPE  H11R 4187   3.829   2.391  13.110 -0.3065  1.3320 -1.5171
   33DOPE  H11S 4188   3.753   2.238  13.106  2.0791  1.3875 -0.8833
   33DOPE  C212 4189   3.653   2.390  13.238  0.1498  0.0053 -0.1012
   33DOPE  H12R 4190   3.557   2.335  13.235 -1.1791  2.1148  1.4114
   33DOPE  H12S 4191   3.634   2.499  13.233 -1.0859 -0.2542 -1.8692
   33DOPE  C213 4192   3.727   2.344  13.365  0.0281  0.0522 -0.3278
   33DOPE  H13R 4193   3.836   2.362  13.356  0.6360 -3.4047 -1.0751
   33DOPE  H13S 4194   3.714   2.234  13.378 -2.9795  0.4088  0.6546
   33DOPE  C214 4195   3.655   2.396  13.489 -0.3642  0.2612 -1.0160
   33DOPE  H14R 4196   3.548   2.366  13.498 -0.4968  0.4274 -1.8784
   33DOPE  H14S 4197   3.654   2.507  13.486 -0.6025  0.2411 -2.6902
   33DOPE  C215 4198   3.733   2.347  13.615 -0.0922  0.5767  0.0392
   33DOPE  H15R 4199   3.837   2.386  13.604 -0.4732  1.5319 -0.2590
   33DOPE  H15S 4200   3.735   2.236  13.615  0.4042  0.5678 -0.9111
   33DOPE  C216 4201   3.669   2.397  13.750  0.0955 -0.0434 -0.0102
   33DOPE  H16R 4202   3.564   2.361  13.760  0.7128 -1.3951  2.2093
   33DOPE  H16S 4203   3.680   2.507  13.745  0.4581 -0.1065 -0.6593
   33DOPE  C217 4204   3.742   2.363  13.881 -0.3720 -0.5753  0.2786
   33DOPE  H17R 4205   3.823   2.440  13.885 -0.8787 -0.0339  0.3023
   33DOPE  H17S 4206   3.793   2.265  13.878  0.3968 -0.1735 -1.5728
   33DOPE  C218 4207   3.655   2.374  14.004  0.2893  0.3388  0.2239
   33DOPE  H18R 4208   3.569   2.304  13.998  0.1945  0.3851  0.9995
   33DOPE  H18S 4209   3.613   2.475  14.028 -1.1147  0.3267 -1.8745
   33DOPE  H18T 4210   3.722   2.340  14.085 -1.9602 -0.0354  2.0365
   33DOPE   C33 4211   3.245   2.728  12.931  0.2898  0.5471 -0.2657
   33DOPE   H3X 4212   3.202   2.821  12.888 -0.4797 -0.2498 -1.2827
   33DOPE   H3Y 4213   3.257   2.731  13.042 -2.7903 -1.2762  0.2581
   33DOPE   C34 4214   3.144   2.616  12.898 -0.1415  0.0066 -0.3998
   33DOPE   H4X 4215   3.148   2.607  12.787  1.9416 -0.9328 -0.2891
   33DOPE   H4Y 4216   3.181   2.518  12.935 -1.1142 -0.9567 -1.8722
   33DOPE   C35 4217   3.013   2.648  12.969  0.2695 -0.2440 -0.5976
   33DOPE   H5X 4218   2.970   2.748  12.948 -1.3456 -1.0837 -1.4541
   33DOPE   H5Y 4219   3.034   2.642  13.078  0.0204 -0.2186 -0.5503
   33DOPE   C36 4220   2.887   2.557  12.934  0.4084  0.2582 -0.0038
   33DOPE   H6X 4221   2.894   2.554  12.823 -1.2523 -1.5518 -0.1016
   33DOPE   H6Y 4222   2.794   2.609  12.965  0.1900 -0.4941  0.6232
   33DOPE   C37 4223   2.894   2.410  12.982 -0.3644 -0.0895  0.3648
   33DOPE   H7X 4224   2.839   2.348  12.908  0.7765  1.5871 -2.0374
   33DOPE   H7Y 4225   2.999   2.376  12.965 -0.6145 -0.4920 -0.4794
   33DOPE   C38 4226   2.827   2.407  13.113  0.3312  0.1735  0.4540
   33DOPE   H8X 4227   2.726   2.447  13.091  1.3761  1.4802 -2.4401
   33DOPE   H8Y 4228   2.871   2.481  13.183 -1.5339  2.0202 -0.2458
   33DOPE   C39 4229   2.839   2.258  13.158  0.1299 -0.2594  0.2662
   33DOPE   H9X 4230   2.939   2.214  13.147 -0.1508 -0.6984 -0.7131
   33DOPE  C310 4231   2.739   2.179  13.194 -0.1028  0.2334  0.7755
   33DOPE  H10X 4232   2.771   2.080  13.230  1.6669  0.8194  0.9380
   33DOPE  C311 4233   2.598   2.220  13.205 -0.0613  0.3022  0.8126
   33DOPE  H11X 4234   2.594   2.330  13.190  3.2639  0.7285  2.2967
   33DOPE  H11Y 4235   2.542   2.191  13.113  1.5727  0.2817 -0.2217
   33DOPE  C312 4236   2.524   2.165  13.329 -0.8984 -0.2823 -0.2014
   33DOPE  H12X 4237   2.526   2.053  13.326 -1.1895 -0.3437  1.1472
   33DOPE  H12Y 4238   2.418   2.200  13.332 -0.4100  1.1645  0.9081
   33DOPE  C313 4239   2.586   2.205  13.463 -0.4600  0.3524 -0.0329
   33DOPE  H13X 4240   2.696   2.197  13.455 -0.4754  1.5095 -1.7297
   33DOPE  H13Y 4241   2.565   2.305  13.507 -0.6398 -0.5000  1.9434
   33DOPE  C314 4242   2.548   2.096  13.569 -0.8369 -0.7656 -0.0662
   33DOPE  H14X 4243   2.574   1.996  13.527 -1.3024 -0.9451  0.0746
   33DOPE  H14Y 4244   2.439   2.103  13.588 -0.7184 -0.2905  0.4801
   33DOPE  C315 4245   2.596   2.132  13.708  0.3324 -0.3625 -0.2529
   33DOPE  H15X 4246   2.572   2.240  13.723 -0.7958 -0.4862 -1.0706
   33DOPE  H15Y 4247   2.706   2.138  13.724  0.1261  2.3769  0.7515
   33DOPE  C316 4248   2.522   2.055  13.824 -0.8953 -0.4844 -0.2733
   33DOPE  H16X 4249   2.551   1.948  13.812 -2.6815 -1.0758  0.3340
   33DOPE  H16Y 4250   2.413   2.060  13.802 -0.5717 -0.4299 -2.0373
   33DOPE  C317 4251   2.552   2.120  13.963  0.2486 -0.1799 -0.6816
   33DOPE  H17X 4252   2.660   2.147  13.969  0.0213  0.7041 -0.2865
   33DOPE  H17Y 4253   2.497   2.217  13.962 -0.7670 -0.7516 -1.5556
   33DOPE  C318 4254   2.500   2.039  14.085  0.5425  0.2087  0.5418
   33DOPE  H18X 4255   2.392   2.012  14.089 -0.0257  2.3426  1.0023
   33DOPE  H18Y 4256   2.553   1.941  14.086 -0.0259 -0.1032  1.4527
   33DOPE  H18Z 4257   2.533   2.077  14.184  0.7134 -1.9324  1.3533
   34DOPE     N 4258   3.283   4.244  11.956 -0.2050  0.4951 -0.2259
   34DOPE   HN1 4259   3.285   4.230  12.059  1.7176  0.4869 -0.2359
   34DOPE   HN2 4260   3.315   4.161  11.903  0.5011  0.1901  0.6478
   34DOPE   HN3 4261   3.362   4.311  11.944  0.7066  0.0663  2.5603
   34DOPE   C12 4262   3.157   4.291  11.893 -0.9675 -0.7835 -0.0206
   34DOPE  H12A 4263   3.101   4.199  11.865  1.7342 -2.0441 -1.6180
   34DOPE  H12B 4264   3.173   4.344  11.797  3.3941  0.6487  1.2792
   34DOPE   C11 4265   3.065   4.367  11.988 -0.8480  0.0562  0.2068
   34DOPE  H11A 4266   2.970   4.383  11.934 -0.5649  0.9447 -0.0405
   34DOPE  H11B 4267   3.103   4.468  12.015  0.4242 -0.4528  0.3770
   34DOPE     P 4268   2.939   4.324  12.215 -0.3916 -0.1900  0.3199
   34DOPE   O13 4269   2.965   4.454  12.283  0.2911  0.4232 -0.0334
   34DOPE   O14 4270   2.929   4.203  12.302 -0.3384 -0.1076  0.8554
   34DOPE   O11 4271   2.807   4.323  12.125  0.2126 -0.0970 -0.0283
   34DOPE   O12 4272   3.046   4.291  12.110 -0.4778 -0.1097 -0.1172
   34DOPE    C1 4273   2.716   4.427  12.111  0.3746 -0.6638  0.4518
   34DOPE    HA 4274   2.673   4.424  12.009  0.0612  1.0209  0.5057
   34DOPE    HB 4275   2.759   4.528  12.125  2.5753 -1.2427 -1.5254
   34DOPE    C2 4276   2.590   4.403  12.207  0.6821  0.1623  0.2066
   34DOPE    HS 4277   2.513   4.482  12.193 -0.9755 -1.0895  1.7800
   34DOPE   O21 4278   2.636   4.401  12.340  0.1014 -0.2841  0.4021
   34DOPE   C21 4279   2.663   4.515  12.391 -0.0011  0.2839 -0.0043
   34DOPE   O22 4280   2.644   4.623  12.341 -0.0460 -0.3336  0.3898
   34DOPE   C22 4281   2.736   4.485  12.526  0.6599 -0.1744 -0.3105
   34DOPE   H2R 4282   2.787   4.579  12.553  0.7000 -0.6919  1.5584
   34DOPE   H2S 4283   2.810   4.402  12.513 -0.6987 -1.3786 -0.6610
   34DOPE    C3 4284   2.525   4.262  12.179 -0.1168  0.8069 -0.1809
   34DOPE    HX 4285   2.591   4.175  12.201 -0.2307  0.6480 -0.4628
   34DOPE    HY 4286   2.509   4.261  12.070  3.3689 -1.9494 -0.8851
   34DOPE   O31 4287   2.406   4.238  12.261  0.7138 -0.4717  0.2136
   34DOPE   C31 4288   2.350   4.122  12.232  0.5989 -0.1332 -0.5059
   34DOPE   O32 4289   2.406   4.032  12.174 -0.4427  0.2729  0.0289
   34DOPE   C32 4290   2.210   4.104  12.278  0.3586 -0.6755 -0.3005
   34DOPE   H2X 4291   2.181   4.153  12.373  0.2985 -0.2645 -0.5291
   34DOPE   H2Y 4292   2.150   4.156  12.200 -1.0287  0.2041  1.3071
   34DOPE   C23 4293   2.629   4.442  12.636  1.1329  0.2035  0.1216
   34DOPE   H3R 4294   2.552   4.383  12.581  0.3232 -1.2344  2.6441
   34DOPE   H3S 4295   2.580   4.531  12.681 -0.4446 -0.4905 -0.1545
   34DOPE   C24 4296   2.686   4.352  12.744 -0.3938 -0.3722 -0.1030
   34DOPE   H4R 4297   2.712   4.252  12.705  2.0558  0.5577 -1.0793
   34DOPE   H4S 4298   2.612   4.337  12.826 -2.2778 -2.4299 -2.0723
   34DOPE   C25 4299   2.817   4.407  12.812  0.2652 -0.6269  0.4049
   34DOPE   H5R 4300   2.811   4.513  12.846 -1.5536 -1.2287  2.1015
   34DOPE   H5S 4301   2.899   4.396  12.738 -0.5696  0.7816 -0.7751
   34DOPE   C26 4302   2.849   4.315  12.933  0.5731 -0.6357 -0.2844
   34DOPE   H6R 4303   2.868   4.210  12.900 -0.1583 -1.5755  2.0189
   34DOPE   H6S 4304   2.758   4.320  12.998  2.3608 -0.7919  2.4011
   34DOPE   C27 4305   2.961   4.365  13.007  0.4101  0.2660  0.3018
   34DOPE   H7R 4306   2.942   4.463  13.056 -2.3421 -0.6846  1.3055
   34DOPE   H7S 4307   3.039   4.386  12.931  0.3635  0.1803  0.2301
   34DOPE   C28 4308   3.015   4.252  13.105  0.0195 -0.4273  0.6360
   34DOPE   H8R 4309   3.102   4.296  13.158  0.4290 -0.7685  0.2607
   34DOPE   H8S 4310   3.070   4.169  13.055  2.1842  0.5455  1.2656
   34DOPE   C29 4311   2.914   4.217  13.203  0.6345  0.2868  0.3791
   34DOPE   H9R 4312   2.847   4.297  13.238 -0.1295 -0.1129 -0.1269
   34DOPE  C210 4313   2.903   4.099  13.263 -0.0310 -0.3077 -0.5078
   34DOPE  H10R 4314   2.844   4.119  13.353 -0.7130 -0.0198 -1.0168
   34DOPE  C211 4315   2.997   3.983  13.250  0.5505 -0.2309 -0.3320
   34DOPE  H11R 4316   2.997   3.963  13.141 -0.5828  2.3687 -0.8589
   34DOPE  H11S 4317   2.952   3.895  13.301 -1.5903  0.2305 -1.3492
   34DOPE  C212 4318   3.133   4.025  13.308 -0.9917 -0.1657  0.8662
   34DOPE  H12R 4319   3.198   4.093  13.249  0.7450 -1.8238  0.7451
   34DOPE  H12S 4320   3.178   3.923  13.315 -0.0015  0.0608 -1.2258
   34DOPE  C213 4321   3.131   4.101  13.444 -0.0434  0.0732  0.1221
   34DOPE  H13R 4322   3.064   4.036  13.504  0.1574  0.2947  0.5870
   34DOPE  H13S 4323   3.097   4.206  13.431  1.4295  0.4522 -1.0481
   34DOPE  C214 4324   3.264   4.107  13.518  0.6209  0.1617  0.4631
   34DOPE  H14R 4325   3.332   4.174  13.461 -0.7418  0.0208 -1.4177
   34DOPE  H14S 4326   3.285   3.998  13.517 -4.7021 -1.1981 -1.8187
   34DOPE  C215 4327   3.263   4.153  13.663  0.2279  0.0269 -0.1052
   34DOPE  H15R 4328   3.185   4.110  13.730  0.8189 -1.7933 -0.5345
   34DOPE  H15S 4329   3.225   4.256  13.647  1.0713  0.0208 -2.7373
   34DOPE  C216 4330   3.400   4.159  13.729  0.5306  0.2721  0.0416
   34DOPE  H16R 4331   3.470   4.200  13.653 -0.8401 -0.3006 -1.5878
   34DOPE  H16S 4332   3.440   4.057  13.748  2.0230  1.0684  1.3770
   34DOPE  C217 4333   3.399   4.244  13.849  0.2842  0.1942 -0.7293
   34DOPE  H17R 4334   3.297   4.248  13.892  0.2839 -0.2145 -0.6875
   34DOPE  H17S 4335   3.426   4.349  13.824  1.7303  0.6989  2.3752
   34DOPE  C218 4336   3.505   4.199  13.957  0.5934 -0.3914  0.2204
   34DOPE  H18R 4337   3.498   4.091  13.982 -1.1770 -0.3587 -0.0190
   34DOPE  H18S 4338   3.491   4.268  14.043 -1.4200 -0.9765  0.4019
   34DOPE  H18T 4339   3.599   4.212  13.899  0.3065 -2.0083 -0.6429
   34DOPE   C33 4340   2.169   3.954  12.300  0.1472 -0.6724  0.0428
   34DOPE   H3X 4341   2.250   3.917  12.367  1.6237  0.6782 -0.9273
   34DOPE   H3Y 4342   2.189   3.903  12.203 -2.5081 -0.4033 -0.6977
   34DOPE   C34 4343   2.021   3.936  12.333 -0.4149 -0.0713  0.1238
   34DOPE   H4X 4344   1.992   4.018  12.404 -1.5541  1.5800 -2.1090
   34DOPE   H4Y 4345   1.976   3.957  12.234 -3.1153 -2.8201  0.6343
   34DOPE   C35 4346   1.990   3.795  12.383 -0.3336 -0.2080 -0.5697
   34DOPE   H5X 4347   2.038   3.729  12.307  2.6828  0.2156  0.8144
   34DOPE   H5Y 4348   1.880   3.787  12.389 -0.2537 -1.3352 -0.3775
   34DOPE   C36 4349   2.057   3.767  12.519  0.7312 -0.0248 -0.7332
   34DOPE   H6X 4350   2.168   3.763  12.511  0.8711  1.1914  0.3510
   34DOPE   H6Y 4351   2.018   3.669  12.553  1.7622  0.5493  2.4556
   34DOPE   C37 4352   2.042   3.858  12.638 -0.0492  0.3916  0.3085
   34DOPE   H7X 4353   2.106   3.948  12.624 -1.5022  1.2483 -1.2071
   34DOPE   H7Y 4354   1.942   3.905  12.643  0.5469  1.5516  2.4831
   34DOPE   C38 4355   2.079   3.784  12.768  0.0955 -0.3083  0.0158
   34DOPE   H8X 4356   2.014   3.694  12.771  1.1266 -1.0785 -0.1881
   34DOPE   H8Y 4357   2.064   3.852  12.854  2.9088 -0.2398  0.5418
   34DOPE   C39 4358   2.228   3.744  12.780 -0.5745  0.7753  0.2909
   34DOPE   H9X 4359   2.299   3.806  12.724 -0.0173 -1.2223 -1.3433
   34DOPE  C310 4360   2.273   3.631  12.846  0.0976 -0.3191 -0.0572
   34DOPE  H10X 4361   2.382   3.621  12.856  0.0049 -0.0111  1.4841
   34DOPE  C311 4362   2.181   3.534  12.907 -0.2152 -0.0567 -0.4104
   34DOPE  H11X 4363   2.117   3.598  12.972 -1.2891 -0.0528 -1.4358
   34DOPE  H11Y 4364   2.134   3.470  12.829 -0.6237 -0.8213  0.4460
   34DOPE  C312 4365   2.251   3.437  13.005 -0.1491  0.7473  0.7246
   34DOPE  H12X 4366   2.315   3.495  13.074 -1.6784  3.3361  0.1153
   34DOPE  H12Y 4367   2.315   3.371  12.942 -0.0562  1.9089 -0.4477
   34DOPE  C313 4368   2.159   3.349  13.083 -0.0605  0.1366 -0.1503
   34DOPE  H13X 4369   2.078   3.409  13.130 -1.0802 -0.4172 -1.1474
   34DOPE  H13Y 4370   2.113   3.275  13.014 -1.7597  0.3241  0.7186
   34DOPE  C314 4371   2.224   3.266  13.195 -0.7363  0.7809 -0.1738
   34DOPE  H14X 4372   2.319   3.230  13.150 -0.5681 -0.3926  1.0472
   34DOPE  H14Y 4373   2.167   3.174  13.219  1.3592 -0.5839 -0.1165
   34DOPE  C315 4374   2.253   3.354  13.318 -0.5364  0.3103  0.4552
   34DOPE  H15X 4375   2.162   3.399  13.361  0.5890 -0.1334  3.5069
   34DOPE  H15Y 4376   2.324   3.434  13.288  0.2726 -0.3636  0.5215
   34DOPE  C316 4377   2.313   3.268  13.432 -0.4939  0.1357  0.5991
   34DOPE  H16X 4378   2.374   3.337  13.494 -1.4143  0.4786  1.1471
   34DOPE  H16Y 4379   2.370   3.198  13.367  0.3267  1.0020  0.3591
   34DOPE  C317 4380   2.217   3.187  13.515 -0.0920  0.3374 -0.0143
   34DOPE  H17X 4381   2.141   3.244  13.572 -1.0950 -0.4615 -0.5043
   34DOPE  H17Y 4382   2.162   3.135  13.433  0.3411  2.0354 -1.4472
   34DOPE  C318 4383   2.280   3.070  13.601  0.0352 -0.4312 -0.3813
   34DOPE  H18X 4384   2.205   3.016  13.662  0.5355  1.7737  2.4295
   34DOPE  H18Y 4385   2.337   3.008  13.529  0.1361  0.7603 -1.3691
   34DOPE  H18Z 4386   2.362   3.108  13.668  1.1457 -2.2382 -0.6624
   35DOPE     N 4387   5.602   2.720  12.081 -0.2771 -0.3229 -0.5750
   35DOPE   HN1 4388   5.639   2.680  12.170  0.8866  1.2210 -0.3048
   35DOPE   HN2 4389   5.527   2.673  12.028 -1.7251 -0.6144  1.5925
   35DOPE   HN3 4390   5.687   2.739  12.023  2.0043 -1.3120  2.1718
   35DOPE   C12 4391   5.556   2.858  12.116  0.0873  0.3844 -0.5409
   35DOPE  H12A 4392   5.503   2.851  12.213  1.6385 -0.6526  0.2860
   35DOPE  H12B 4393   5.490   2.892  12.033  0.4860 -2.5531 -2.2212
   35DOPE   C11 4394   5.668   2.959  12.151 -0.5831  0.1629  0.2983
   35DOPE  H11A 4395   5.702   2.932  12.253 -1.2853  0.9501  0.7469
   35DOPE  H11B 4396   5.619   3.059  12.156 -0.1749  0.3378  0.9285
   35DOPE     P 4397   5.915   3.024  12.110 -0.4495 -0.3628  0.2086
   35DOPE   O13 4398   5.876   3.161  12.138  0.1045 -0.3973  0.2881
   35DOPE   O14 4399   6.017   2.999  12.006 -0.4272 -0.0589 -0.6994
   35DOPE   O11 4400   5.948   2.943  12.243  0.7069 -0.5315 -0.1448
   35DOPE   O12 4401   5.781   2.953  12.059  0.6638 -0.4619 -0.1890
   35DOPE    C1 4402   5.972   2.806  12.247 -0.7202 -0.0423 -0.2909
   35DOPE    HA 4403   6.074   2.789  12.206 -0.3260 -0.1038  0.6688
   35DOPE    HB 4404   5.911   2.738  12.185  1.8523 -1.9390 -0.9044
   35DOPE    C2 4405   5.956   2.764  12.396  0.1513  1.0149 -0.3433
   35DOPE    HS 4406   5.856   2.799  12.428 -0.4155  0.4795 -1.4569
   35DOPE   O21 4407   6.058   2.833  12.468 -0.7147 -0.4830  0.0097
   35DOPE   C21 4408   6.027   2.850  12.598  0.5494 -0.5373 -0.1675
   35DOPE   O22 4409   5.911   2.847  12.640  0.4982 -0.9776 -0.2156
   35DOPE   C22 4410   6.148   2.893  12.677  0.0828  0.2952  0.0406
   35DOPE   H2R 4411   6.187   2.995  12.656  0.2072  0.0688 -0.8774
   35DOPE   H2S 4412   6.227   2.823  12.644 -0.3811  0.0803 -0.6413
   35DOPE    C3 4413   5.959   2.602  12.415  0.2518  0.2090  0.5577
   35DOPE    HX 4414   6.051   2.570  12.363  0.5050 -1.8805  2.1774
   35DOPE    HY 4415   5.873   2.556  12.362 -0.2895  1.2667  0.4798
   35DOPE   O31 4416   5.966   2.558  12.551  0.3534 -0.1729  0.0952
   35DOPE   C31 4417   5.850   2.531  12.609  0.0518  0.3026  0.8417
   35DOPE   O32 4418   5.741   2.531  12.553  0.2647  0.5628 -0.4532
   35DOPE   C32 4419   5.875   2.486  12.753  0.7342  0.0403  0.5602
   35DOPE   H2X 4420   5.944   2.400  12.742  0.0398 -0.5010  0.3657
   35DOPE   H2Y 4421   5.929   2.569  12.803 -1.3262 -0.0610  3.2101
   35DOPE   C23 4422   6.120   2.878  12.831 -0.2758  0.2721 -0.5160
   35DOPE   H3R 4423   6.215   2.886  12.889 -0.4933 -1.8737  0.2570
   35DOPE   H3S 4424   6.100   2.772  12.860 -1.6249  0.7982  0.6202
   35DOPE   C24 4425   6.022   2.981  12.888  0.4425 -0.4318  0.3984
   35DOPE   H4R 4426   5.925   2.987  12.834 -0.4832 -0.1958  2.0334
   35DOPE   H4S 4427   6.064   3.084  12.877 -0.2810 -0.0398  1.1847
   35DOPE   C25 4428   5.987   2.978  13.037  0.8463 -0.4035  0.4107
   35DOPE   H5R 4429   6.077   2.935  13.087  0.3050 -4.1529 -1.5544
   35DOPE   H5S 4430   5.903   2.907  13.048  0.3185  0.0286 -0.7086
   35DOPE   C26 4431   5.937   3.111  13.092  0.1344 -0.2622  0.7101
   35DOPE   H6R 4432   5.848   3.147  13.035  1.0449  1.1545  0.1179
   35DOPE   H6S 4433   6.017   3.184  13.067  0.4589 -0.9233 -0.2657
   35DOPE   C27 4434   5.908   3.103  13.241  0.4347 -0.4431  0.2265
   35DOPE   H7R 4435   6.007   3.080  13.286  1.0088 -0.8426 -1.1830
   35DOPE   H7S 4436   5.842   3.017  13.266  3.2880 -3.0544 -0.6291
   35DOPE   C28 4437   5.842   3.229  13.306  0.0088 -0.1365 -0.5228
   35DOPE   H8R 4438   5.820   3.203  13.412 -0.5294  0.1998 -0.5526
   35DOPE   H8S 4439   5.748   3.248  13.249  0.3870 -0.0435 -1.1273
   35DOPE   C29 4440   5.940   3.341  13.283 -0.1573 -0.0121 -0.5293
   35DOPE   H9R 4441   5.955   3.376  13.179  0.3729  0.5495 -0.2669
   35DOPE  C210 4442   6.024   3.385  13.378 -0.2118 -0.4983  0.3874
   35DOPE  H10R 4443   6.096   3.468  13.371 -0.4593  0.5551  5.7266
   35DOPE  C211 4444   6.040   3.334  13.516  0.2671  0.5361 -0.1384
   35DOPE  H11R 4445   6.116   3.253  13.509  0.7816  1.0191 -0.1640
   35DOPE  H11S 4446   5.952   3.285  13.563 -0.0966  2.5302  1.3801
   35DOPE  C212 4447   6.087   3.445  13.613  0.2815  0.6069  0.1513
   35DOPE  H12R 4448   6.023   3.535  13.611  1.5286  1.6652  2.9094
   35DOPE  H12S 4449   6.188   3.481  13.584 -0.2068  1.2541 -0.7792
   35DOPE  C213 4450   6.075   3.392  13.755  0.2840  0.8062  0.0792
   35DOPE  H13R 4451   5.985   3.328  13.768  1.6823 -1.0340  1.1843
   35DOPE  H13S 4452   6.078   3.485  13.816 -0.2749  0.2120  1.0319
   35DOPE  C214 4453   6.198   3.308  13.796 -0.2268  0.7190 -0.0494
   35DOPE  H14R 4454   6.286   3.375  13.788  0.5272 -0.1611  0.7303
   35DOPE  H14S 4455   6.209   3.218  13.731  1.3388  0.3006  0.7344
   35DOPE  C215 4456   6.195   3.258  13.937  0.1393  0.6800 -1.3990
   35DOPE  H15R 4457   6.268   3.182  13.971 -0.8108  0.4511  0.2752
   35DOPE  H15S 4458   6.095   3.216  13.963  0.1018  0.6098 -1.6568
   35DOPE  C216 4459   6.231   3.383  14.028  0.5260 -0.1497 -0.2593
   35DOPE  H16R 4460   6.132   3.433  14.019  0.8671  0.7902  0.8950
   35DOPE  H16S 4461   6.316   3.447  13.995 -0.2754  0.0613 -2.0494
   35DOPE  C217 4462   6.244   3.357  14.185  0.2078 -0.1831  0.6913
   35DOPE  H17R 4463   6.161   3.295  14.227  2.0496 -1.1338  3.2089
   35DOPE  H17S 4464   6.251   3.446  14.251  1.7445 -0.3216  0.7514
   35DOPE  C218 4465   6.374   3.280  14.202 -0.3980 -0.3322  0.1257
   35DOPE  H18R 4466   6.399   3.271  14.310  2.4761 -0.9356 -0.5153
   35DOPE  H18S 4467   6.459   3.337  14.159 -0.2647  0.8471  1.8423
   35DOPE  H18T 4468   6.377   3.178  14.158  0.8193  0.0963 -0.8478
   35DOPE   C33 4469   5.760   2.445  12.836 -0.2320 -0.2864  0.0644
   35DOPE   H3X 4470   5.709   2.359  12.788  0.4287  0.2168 -1.6049
   35DOPE   H3Y 4471   5.686   2.526  12.857 -0.2320 -0.6655  1.6846
   35DOPE   C34 4472   5.798   2.405  12.986  0.8775  0.1481  0.0401
   35DOPE   H4X 4473   5.715   2.346  13.031  2.1522  0.2606  2.7504
   35DOPE   H4Y 4474   5.880   2.330  12.981  0.4323 -0.5817  2.2958
   35DOPE   C35 4475   5.822   2.519  13.085 -0.2596  0.1777  0.2918
   35DOPE   H5X 4476   5.727   2.571  13.110 -0.8647  0.3069 -2.0516
   35DOPE   H5Y 4477   5.873   2.603  13.032 -0.5975  0.5889  0.6069
   35DOPE   C36 4478   5.907   2.475  13.205  0.0828 -0.2461 -0.2976
   35DOPE   H6X 4479   5.952   2.561  13.259 -2.7843  1.1694  0.0594
   35DOPE   H6Y 4480   5.989   2.425  13.150  0.0114 -0.2668 -0.3859
   35DOPE   C37 4481   5.840   2.376  13.297  0.7996 -0.2533  0.5819
   35DOPE   H7X 4482   5.735   2.409  13.308  1.1647  1.1850 -0.0308
   35DOPE   H7Y 4483   5.832   2.272  13.257 -0.6332 -0.3517  1.0563
   35DOPE   C38 4484   5.914   2.358  13.433 -0.0514  0.5698  0.4387
   35DOPE   H8X 4485   5.857   2.293  13.503 -0.5206  0.6182  0.1075
   35DOPE   H8Y 4486   5.923   2.458  13.481  1.4858  0.8154 -0.2763
   35DOPE   C39 4487   6.045   2.286  13.414 -0.6518 -0.1838  0.1049
   35DOPE   H9X 4488   6.051   2.200  13.346  2.0359 -0.4837  0.6438
   35DOPE  C310 4489   6.168   2.324  13.460 -0.9863 -0.1961 -0.6030
   35DOPE  H10X 4490   6.255   2.258  13.450 -0.7981 -0.1508  0.6333
   35DOPE  C311 4491   6.208   2.443  13.537  0.7700 -0.2090 -0.8088
   35DOPE  H11X 4492   6.319   2.452  13.535  0.9830 -2.0524  0.1891
   35DOPE  H11Y 4493   6.172   2.533  13.483  1.5861 -0.2443 -1.4199
   35DOPE  C312 4494   6.162   2.440  13.682  0.5894  0.3878  0.4338
   35DOPE  H12X 4495   6.051   2.432  13.682  0.4151  1.2211 -2.9233
   35DOPE  H12Y 4496   6.190   2.538  13.725 -0.5300  1.2585 -0.7697
   35DOPE  C313 4497   6.226   2.333  13.766 -0.0596  0.8321 -0.3945
   35DOPE  H13X 4498   6.181   2.232  13.763 -1.3896  1.3719  0.5100
   35DOPE  H13Y 4499   6.332   2.318  13.735  0.1758  3.3988 -1.0407
   35DOPE  C314 4500   6.240   2.371  13.919  0.2237  0.4955 -0.2789
   35DOPE  H14X 4501   6.137   2.362  13.961  0.6433  0.6354  0.8054
   35DOPE  H14Y 4502   6.280   2.474  13.933 -2.4875  1.6592 -0.4163
   35DOPE  C315 4503   6.312   2.267  13.998  0.5704  0.5779 -0.0634
   35DOPE  H15X 4504   6.355   2.310  14.090  1.4675 -0.3977 -0.0054
   35DOPE  H15Y 4505   6.394   2.224  13.936 -1.6912 -1.9677 -1.5439
   35DOPE  C316 4506   6.224   2.146  14.038  0.6509 -0.4512 -0.1325
   35DOPE  H16X 4507   6.213   2.092  13.941  0.1090  0.4631 -0.5982
   35DOPE  H16Y 4508   6.128   2.185  14.077 -0.1132 -3.0666  0.7579
   35DOPE  C317 4509   6.290   2.054  14.147  0.1788 -0.7118 -0.1049
   35DOPE  H17X 4510   6.246   1.952  14.141 -0.7996 -0.3573  0.7342
   35DOPE  H17Y 4511   6.398   2.039  14.128  0.3202 -0.0581  0.1631
   35DOPE  C318 4512   6.273   2.111  14.286 -0.2527  0.4466  0.0262
   35DOPE  H18X 4513   6.165   2.125  14.307 -0.8354 -1.7562 -1.1961
   35DOPE  H18Y 4514   6.316   2.043  14.363  0.3413  0.8010  0.0099
   35DOPE  H18Z 4515   6.329   2.203  14.313 -0.6826 -0.0379  2.9100
   36DOPE     N 4516   4.797   4.770  11.778 -0.3373 -0.0984  0.5701
   36DOPE   HN1 4517   4.707   4.731  11.746  1.3470 -2.8332 -1.2157
   36DOPE   HN2 4518   4.780   4.830  11.861 -1.0533  2.9017 -1.5728
   36DOPE   HN3 4519   4.834   4.838  11.708 -1.0792 -0.3605 -0.0782
   36DOPE   C12 4520   4.906   4.668  11.815  0.0365  0.2568  0.8752
   36DOPE  H12A 4521   4.939   4.620  11.720 -1.7017  1.3408 -0.3491
   36DOPE  H12B 4522   4.847   4.601  11.881 -3.2771 -1.8558 -3.5984
   36DOPE   C11 4523   5.020   4.727  11.896 -0.2751 -0.4550  0.0094
   36DOPE  H11A 4524   5.103   4.786  11.850 -1.2436  0.9255 -0.0302
   36DOPE  H11B 4525   5.073   4.634  11.925  1.4208  1.0016  1.8883
   36DOPE     P 4526   5.059   4.868  12.107 -0.5302 -0.5190  0.0685
   36DOPE   O13 4527   5.200   4.830  12.082 -0.4431  0.8787  0.2592
   36DOPE   O14 4528   5.011   4.831  12.242 -0.6860  0.4171  0.1524
   36DOPE   O11 4529   5.035   5.023  12.076  0.1946 -0.3075 -0.1688
   36DOPE   O12 4530   4.966   4.800  12.009 -0.6318  0.8291 -0.3453
   36DOPE    C1 4531   5.132   5.118  12.119 -0.0515 -0.0361 -0.1189
   36DOPE    HA 4532   5.118   5.203  12.048  0.4708 -0.6726 -1.0139
   36DOPE    HB 4533   5.236   5.081  12.108  0.2875  1.3562 -2.3266
   36DOPE    C2 4534   5.106   5.188  12.260  0.5581  0.2234 -0.0089
   36DOPE    HS 4535   5.137   5.295  12.260  1.4414 -0.0078 -1.4523
   36DOPE   O21 4536   5.189   5.116  12.360  0.2206  0.0036  0.1232
   36DOPE   C21 4537   5.316   5.141  12.356 -0.1394  0.5323  1.0845
   36DOPE   O22 4538   5.373   5.212  12.275 -0.2626  0.3531  0.1674
   36DOPE   C22 4539   5.377   5.049  12.462 -0.0254  0.2895 -0.1149
   36DOPE   H2R 4540   5.334   4.947  12.458  1.9163 -0.5425 -1.1653
   36DOPE   H2S 4541   5.338   5.092  12.557 -0.4909 -0.9465  0.2763
   36DOPE    C3 4542   4.961   5.187  12.287  0.3258 -0.2302 -0.5472
   36DOPE    HX 4543   4.926   5.082  12.287  3.0607 -1.2245 -1.8640
   36DOPE    HY 4544   4.915   5.254  12.211  0.6815  0.8173  0.1416
   36DOPE   O31 4545   4.938   5.250  12.413 -0.2697  0.2868 -0.1067
   36DOPE   C31 4546   4.876   5.178  12.511 -0.1608 -0.7847  0.1799
   36DOPE   O32 4547   4.846   5.061  12.503  0.5073  0.4411  0.0784
   36DOPE   C32 4548   4.844   5.270  12.635 -0.0415  0.1493  0.3266
   36DOPE   H2X 4549   4.874   5.374  12.612  0.0302 -0.2014 -1.3271
   36DOPE   H2Y 4550   4.734   5.262  12.648  0.0278  1.9168  2.4887
   36DOPE   C23 4551   5.537   5.052  12.457  0.6731  0.4070  0.7096
   36DOPE   H3R 4552   5.580   5.152  12.480  2.3037 -0.1083  0.0234
   36DOPE   H3S 4553   5.566   5.051  12.350  0.2996  1.0217  0.5947
   36DOPE   C24 4554   5.599   4.935  12.536  0.7178  0.4894  0.6191
   36DOPE   H4R 4555   5.703   4.919  12.502  0.5175  1.0266 -0.2783
   36DOPE   H4S 4556   5.530   4.852  12.507  2.5299 -0.6990 -0.4657
   36DOPE   C25 4557   5.606   4.963  12.684  0.3774  0.1379  0.2632
   36DOPE   H5R 4558   5.510   4.997  12.727  1.5687  2.8577  0.9576
   36DOPE   H5S 4559   5.673   5.050  12.702 -1.7790  2.0996 -0.6747
   36DOPE   C26 4560   5.643   4.834  12.765 -0.6874  0.4031  0.5268
   36DOPE   H6R 4561   5.568   4.752  12.756 -1.3136  0.6084  2.9713
   36DOPE   H6S 4562   5.632   4.874  12.868  0.1999  0.1933  0.7087
   36DOPE   C27 4563   5.788   4.790  12.746 -0.6706 -0.0579  0.4667
   36DOPE   H7R 4564   5.852   4.880  12.755 -0.5938 -0.0544 -0.0636
   36DOPE   H7S 4565   5.812   4.746  12.647 -1.5201 -0.1029  0.2733
   36DOPE   C28 4566   5.823   4.663  12.842 -0.0451 -0.0847  0.2417
   36DOPE   H8R 4567   5.899   4.603  12.788  1.0618  2.2662 -0.9896
   36DOPE   H8S 4568   5.735   4.600  12.868 -0.6438  0.3044 -0.8000
   36DOPE   C29 4569   5.880   4.707  12.975  0.2776 -0.4065  0.9224
   36DOPE   H9R 4570   5.972   4.764  12.954 -1.0339  0.9454 -1.5383
   36DOPE  C210 4571   5.838   4.690  13.098  0.3821 -0.1733  0.0776
   36DOPE  H10R 4572   5.905   4.717  13.182 -0.7863 -1.2768  1.3978
   36DOPE  C211 4573   5.718   4.616  13.135 -0.2125  0.2113  0.4696
   36DOPE  H11R 4574   5.752   4.511  13.149 -0.6958 -0.3003 -1.8134
   36DOPE  H11S 4575   5.647   4.613  13.050  1.1748 -0.0863 -0.6984
   36DOPE  C212 4576   5.650   4.661  13.261 -0.5589 -0.0009 -0.8051
   36DOPE  H12R 4577   5.558   4.601  13.280 -1.4561  0.9605 -1.9805
   36DOPE  H12S 4578   5.604   4.761  13.247 -0.3551  0.5204  1.7901
   36DOPE  C213 4579   5.746   4.672  13.389 -0.1020 -0.2799  0.2452
   36DOPE  H13R 4580   5.813   4.760  13.375 -1.0418  0.1292 -2.1250
   36DOPE  H13S 4581   5.785   4.568  13.393  0.0112 -0.2007  1.4590
   36DOPE  C214 4582   5.667   4.686  13.516 -0.0188  0.0580  0.5274
   36DOPE  H14R 4583   5.592   4.603  13.512 -0.1970  0.1850  1.0987
   36DOPE  H14S 4584   5.618   4.786  13.523  0.0266  0.0158  1.6784
   36DOPE  C215 4585   5.759   4.670  13.633  0.9290 -0.5387 -0.6172
   36DOPE  H15R 4586   5.843   4.742  13.627 -0.0062  0.4811 -2.4861
   36DOPE  H15S 4587   5.812   4.572  13.629  0.2621 -0.8844 -1.3835
   36DOPE  C216 4588   5.687   4.699  13.770 -0.8063 -0.3074  0.4523
   36DOPE  H16R 4589   5.584   4.658  13.764 -0.2639 -1.6085 -0.5318
   36DOPE  H16S 4590   5.685   4.809  13.786  1.5276 -0.1816  0.1984
   36DOPE  C217 4591   5.749   4.639  13.891 -0.1382  0.3855  1.1836
   36DOPE  H17R 4592   5.859   4.654  13.885 -0.1432 -0.0876 -1.5677
   36DOPE  H17S 4593   5.731   4.530  13.895 -0.7006  0.5191  2.9088
   36DOPE  C218 4594   5.699   4.694  14.023 -0.0347 -0.3094 -0.2834
   36DOPE  H18R 4595   5.721   4.803  14.021 -0.9120 -0.1093 -3.1132
   36DOPE  H18S 4596   5.751   4.636  14.103 -0.6637 -2.6385 -1.4639
   36DOPE  H18T 4597   5.591   4.676  14.043 -0.4081  0.1032 -1.8016
   36DOPE   C33 4598   4.915   5.216  12.755 -0.1422 -0.2564  0.2335
   36DOPE   H3X 4599   5.024   5.239  12.750  0.1690 -1.3621  1.3141
   36DOPE   H3Y 4600   4.925   5.106  12.761  0.4893 -0.4175 -2.4476
   36DOPE   C34 4601   4.864   5.281  12.884  0.2436 -0.4720  0.2425
   36DOPE   H4X 4602   4.885   5.390  12.885 -0.7197 -0.1791 -2.5525
   36DOPE   H4Y 4603   4.754   5.269  12.884 -0.0450  1.5249 -1.3947
   36DOPE   C35 4604   4.932   5.193  12.998 -0.1525  0.0921  0.9568
   36DOPE   H5X 4605   5.040   5.188  12.971 -0.4379  0.7831 -0.4280
   36DOPE   H5Y 4606   4.884   5.093  12.987 -1.6028  0.7086  1.5022
   36DOPE   C36 4607   4.911   5.252  13.134 -0.1106  0.2662  0.5002
   36DOPE   H6X 4608   4.833   5.328  13.153 -1.3856 -0.8684  0.0116
   36DOPE   H6Y 4609   5.007   5.304  13.154 -0.6986  3.1800 -3.1594
   36DOPE   C37 4610   4.863   5.145  13.240  0.8668  0.9986  0.3028
   36DOPE   H7X 4611   4.775   5.093  13.195  0.6145  1.0078  0.7825
   36DOPE   H7Y 4612   4.953   5.081  13.244  0.6307  0.4704 -1.6935
   36DOPE   C38 4613   4.838   5.203  13.383 -0.9753  0.1764 -0.2099
   36DOPE   H8X 4614   4.744   5.261  13.381 -2.7218 -2.5051 -1.9716
   36DOPE   H8Y 4615   4.920   5.278  13.391 -1.3576  0.6622 -0.7932
   36DOPE   C39 4616   4.839   5.091  13.479  0.1279  0.2877  0.7821
   36DOPE   H9X 4617   4.754   5.022  13.469  1.3223 -1.0863 -0.4276
   36DOPE  C310 4618   4.942   5.053  13.561 -0.4843  0.4091 -0.0372
   36DOPE  H10X 4619   4.923   4.970  13.630 -0.3946  0.1133 -0.3622
   36DOPE  C311 4620   5.078   5.113  13.576  0.9756  0.6304  0.4683
   36DOPE  H11X 4621   5.152   5.055  13.517 -0.4616  1.9020 -2.8404
   36DOPE  H11Y 4622   5.081   5.215  13.533  0.9348  0.5403  0.2477
   36DOPE  C312 4623   5.108   5.122  13.728  0.9486 -0.1227  0.3353
   36DOPE  H12X 4624   5.217   5.147  13.733  0.9026  0.0704  0.3771
   36DOPE  H12Y 4625   5.092   5.018  13.766 -0.5062  0.2314  0.7550
   36DOPE  C313 4626   5.021   5.209  13.826 -0.2364  0.7035  0.2117
   36DOPE  H13X 4627   5.047   5.313  13.799 -0.5236  0.3956 -1.3719
   36DOPE  H13Y 4628   4.913   5.196  13.807 -0.1316 -0.1566  0.1241
   36DOPE  C314 4629   5.062   5.183  13.971  0.0025  0.0627  0.4992
   36DOPE  H14X 4630   5.172   5.175  13.957 -0.0787  0.2997 -0.3516
   36DOPE  H14Y 4631   5.004   5.096  14.010 -0.3689  0.0433 -0.0767
   36DOPE  C315 4632   5.039   5.299  14.073 -0.3065 -0.4551 -0.2248
   36DOPE  H15X 4633   5.060   5.396  14.023 -0.5328  0.4162  1.3151
   36DOPE  H15Y 4634   5.121   5.286  14.147 -0.2769 -0.8725 -0.3254
   36DOPE  C316 4635   4.911   5.298  14.150 -0.3814  0.1036  0.2256
   36DOPE  H16X 4636   4.872   5.195  14.169  0.0847 -0.2591 -0.7146
   36DOPE  H16Y 4637   4.833   5.348  14.089  0.2766 -1.1445 -1.7316
   36DOPE  C317 4638   4.925   5.380  14.289  0.1917  0.7991  0.0084
   36DOPE  H17X 4639   4.989   5.317  14.355 -1.0838  0.6605  1.1645
   36DOPE  H17Y 4640   4.971   5.479  14.274 -0.0951  1.3958  2.5135
   36DOPE  C318 4641   4.787   5.415  14.351  0.5959  0.3107  0.0617
   36DOPE  H18X 4642   4.731   5.486  14.285 -1.0705  1.4696  2.5776
   36DOPE  H18Y 4643   4.740   5.316  14.368  0.6631  0.3445  0.4446
   36DOPE  H18Z 4644   4.798   5.471  14.446 -0.8876  0.2300  0.3121
   37DOPE     N 4645   2.662   2.375  11.826 -0.0408  0.8155  0.0390
   37DOPE   HN1 4646   2.660   2.478  11.815  0.5772  0.7089 -1.2718
   37DOPE   HN2 4647   2.701   2.334  11.739 -1.9115 -1.6251  0.2521
   37DOPE   HN3 4648   2.568   2.338  11.850  0.9234 -1.1934  0.9239
   37DOPE   C12 4649   2.750   2.360  11.946  0.0975 -0.1074  0.1253
   37DOPE  H12A 4650   2.851   2.403  11.930 -0.1543  0.9507  1.1971
   37DOPE  H12B 4651   2.755   2.253  11.973 -4.3319 -0.8951 -1.4261
   37DOPE   C11 4652   2.692   2.439  12.067 -0.0393  0.0082 -0.4188
   37DOPE  H11A 4653   2.749   2.427  12.162 -2.0506 -0.4543  0.8202
   37DOPE  H11B 4654   2.593   2.392  12.089 -0.5220  1.5211  0.8922
   37DOPE     P 4655   2.763   2.691  12.061 -0.4245 -0.5455 -0.4180
   37DOPE   O13 4656   2.707   2.819  11.997  0.1927  0.2144 -0.2775
   37DOPE   O14 4657   2.902   2.648  12.029  0.5094 -0.5744  0.2706
   37DOPE   O11 4658   2.748   2.702  12.214  0.5149  0.0559  0.9244
   37DOPE   O12 4659   2.658   2.577  12.034 -0.3918  0.0863  0.2003
   37DOPE    C1 4660   2.625   2.733  12.277  0.0809  0.2673 -0.4175
   37DOPE    HA 4661   2.612   2.669  12.367  1.0101  1.8948  0.9364
   37DOPE    HB 4662   2.536   2.734  12.210 -0.4694  2.0291  0.2740
   37DOPE    C2 4663   2.648   2.875  12.332 -0.0269  0.8482  0.1977
   37DOPE    HS 4664   2.710   2.929  12.257 -0.0061  0.8041  0.1828
   37DOPE   O21 4665   2.716   2.877  12.458  0.2908 -0.9306  0.5962
   37DOPE   C21 4666   2.785   2.981  12.494 -0.1532 -0.3751 -0.1242
   37DOPE   O22 4667   2.783   3.091  12.441 -0.1157  0.5794 -0.1180
   37DOPE   C22 4668   2.870   2.944  12.608 -0.5867 -0.4940 -0.5648
   37DOPE   H2R 4669   2.962   2.894  12.571 -0.6188 -0.4268 -0.7357
   37DOPE   H2S 4670   2.817   2.870  12.672  1.0902 -2.7816 -1.6819
   37DOPE    C3 4671   2.508   2.937  12.352 -0.4583  0.1072 -0.0200
   37DOPE    HX 4672   2.461   2.940  12.251 -1.5727 -1.2610  0.4330
   37DOPE    HY 4673   2.517   3.039  12.396 -0.7200  0.8407 -1.5866
   37DOPE   O31 4674   2.433   2.860  12.444  0.1867  0.3616 -0.1532
   37DOPE   C31 4675   2.307   2.834  12.413 -0.1891 -0.6529  0.0470
   37DOPE   O32 4676   2.247   2.859  12.309  0.1610  0.0726  0.6318
   37DOPE   C32 4677   2.238   2.770  12.537  0.4408  0.9214  0.0723
   37DOPE   H2X 4678   2.290   2.672  12.531  0.6644  1.0777 -0.5840
   37DOPE   H2Y 4679   2.271   2.820  12.630  0.2861  0.3134  0.4565
   37DOPE   C23 4680   2.916   3.072  12.688 -0.9603  0.6555  0.1824
   37DOPE   H3R 4681   2.833   3.127  12.736 -0.3159  0.2794  1.8109
   37DOPE   H3S 4682   2.970   3.143  12.621 -1.3934 -0.7049 -1.6841
   37DOPE   C24 4683   3.009   3.043  12.805  0.5136  0.2934 -0.5236
   37DOPE   H4R 4684   3.107   3.008  12.769  0.9036 -0.2686  0.9991
   37DOPE   H4S 4685   2.965   2.964  12.870  0.6380 -0.5689 -1.4760
   37DOPE   C25 4686   3.024   3.170  12.890 -0.2049 -0.3401 -0.0621
   37DOPE   H5R 4687   2.930   3.215  12.927  0.3479  0.2877  0.6021
   37DOPE   H5S 4688   3.084   3.238  12.826 -0.7605 -0.6079 -0.8880
   37DOPE   C26 4689   3.113   3.141  13.014  0.1797  0.1661 -0.3579
   37DOPE   H6R 4690   3.124   3.238  13.066  0.9887 -0.0221 -0.1659
   37DOPE   H6S 4691   3.206   3.096  12.973 -0.2993 -1.8901  0.6922
   37DOPE   C27 4692   3.054   3.034  13.112  0.7169 -0.3399  0.4152
   37DOPE   H7R 4693   3.032   2.937  13.061  0.3955 -1.0540  1.8646
   37DOPE   H7S 4694   2.955   3.068  13.147  0.2346 -2.7635  1.6338
   37DOPE   C28 4695   3.147   2.992  13.223 -0.3406  0.0296 -0.1988
   37DOPE   H8R 4696   3.191   3.079  13.276  0.0445 -0.1140 -0.2810
   37DOPE   H8S 4697   3.230   2.942  13.169 -2.0188 -0.9489 -2.0390
   37DOPE   C29 4698   3.086   2.896  13.325  0.3100  0.2200 -0.0933
   37DOPE   H9R 4699   2.979   2.910  13.350  0.5287  0.8413  0.5176
   37DOPE  C210 4700   3.152   2.797  13.377 -0.2876  0.0693  0.2425
   37DOPE  H10R 4701   3.102   2.753  13.465  1.4134  0.1289  1.2810
   37DOPE  C211 4702   3.296   2.764  13.350 -0.2002  0.4113 -0.4887
   37DOPE  H11R 4703   3.352   2.801  13.438  1.1441 -1.2562 -0.5811
   37DOPE  H11S 4704   3.338   2.814  13.260 -2.5259  2.4407 -0.5391
   37DOPE  C212 4705   3.319   2.612  13.341 -0.2688 -0.4742  0.3900
   37DOPE  H12R 4706   3.423   2.579  13.320  0.3436  1.3499  0.3677
   37DOPE  H12S 4707   3.270   2.571  13.250  0.5085 -1.9928  0.6190
   37DOPE  C213 4708   3.262   2.528  13.462  0.8256  0.5362 -0.3609
   37DOPE  H13R 4709   3.279   2.427  13.418  0.8809 -0.1391  1.1244
   37DOPE  H13S 4710   3.153   2.549  13.475  0.9723  0.3733  1.3912
   37DOPE  C214 4711   3.335   2.560  13.587  0.4381 -0.1563 -0.4662
   37DOPE  H14R 4712   3.314   2.668  13.604 -0.9963 -0.2120 -1.6308
   37DOPE  H14S 4713   3.444   2.553  13.567  0.7065 -0.6676  1.0485
   37DOPE  C215 4714   3.289   2.477  13.719 -0.1051  0.0715 -0.5455
   37DOPE  H15R 4715   3.382   2.452  13.775 -0.6149  1.6133  1.0916
   37DOPE  H15S 4716   3.258   2.377  13.683 -2.1655  0.8871 -1.1556
   37DOPE  C216 4717   3.180   2.540  13.808  0.5897 -0.0173 -0.2712
   37DOPE  H16R 4718   3.092   2.559  13.743  0.1254  1.8106  0.8428
   37DOPE  H16S 4719   3.218   2.635  13.850  0.6503 -0.1588 -0.0009
   37DOPE  C217 4720   3.145   2.452  13.926 -0.4326  0.1397 -0.2295
   37DOPE  H17R 4721   3.120   2.354  13.880 -0.3133 -0.6608  1.3266
   37DOPE  H17S 4722   3.055   2.487  13.981 -0.9224 -3.1186  1.3103
   37DOPE  C218 4723   3.261   2.422  14.031  0.1970 -0.1269 -0.8473
   37DOPE  H18R 4724   3.291   2.502  14.103  0.7276 -0.6045 -0.5285
   37DOPE  H18S 4725   3.358   2.388  13.988  1.9566  1.9962  1.1149
   37DOPE  H18T 4726   3.232   2.329  14.084  0.0218 -0.2143 -1.1003
   37DOPE   C33 4727   2.079   2.743  12.522 -1.0056  0.4702 -0.5517
   37DOPE   H3X 4728   2.052   2.674  12.439  2.6974  0.0511 -1.5550
   37DOPE   H3Y 4729   2.035   2.842  12.498 -0.7140  0.4456 -1.2234
   37DOPE   C34 4730   2.012   2.694  12.652 -0.4029 -0.5223  0.2418
   37DOPE   H4X 4731   2.057   2.758  12.731  0.3906 -1.2117  0.3695
   37DOPE   H4Y 4732   1.903   2.710  12.649 -0.3915 -0.5117 -0.0972
   37DOPE   C35 4733   2.024   2.546  12.683  0.4855 -0.4359 -0.1818
   37DOPE   H5X 4734   2.133   2.539  12.706  0.3574 -0.3867  0.4428
   37DOPE   H5Y 4735   1.998   2.489  12.591  1.6956 -1.2042 -0.0677
   37DOPE   C36 4736   1.938   2.499  12.794  0.2982  0.1278  0.5698
   37DOPE   H6X 4737   1.834   2.535  12.779  0.5407 -0.0408 -1.8954
   37DOPE   H6Y 4738   1.973   2.556  12.882  1.7080 -0.0039  0.1123
   37DOPE   C37 4739   1.954   2.350  12.816 -1.2411 -0.1185  0.4644
   37DOPE   H7X 4740   1.938   2.300  12.718 -0.7618 -0.9171  0.7858
   37DOPE   H7Y 4741   2.061   2.337  12.842 -1.3332  0.6637  1.2793
   37DOPE   C38 4742   1.863   2.291  12.930 -0.2744  0.3784  0.5583
   37DOPE   H8X 4743   1.887   2.182  12.929 -1.8688 -0.0156 -1.6835
   37DOPE   H8Y 4744   1.757   2.309  12.903 -0.9648 -0.6174  2.4066
   37DOPE   C39 4745   1.890   2.346  13.069  1.0136  0.0571  0.8572
   37DOPE   H9X 4746   1.992   2.367  13.103  1.2430 -0.2838  0.3926
   37DOPE  C310 4747   1.789   2.380  13.152  0.3505 -0.2042  0.0291
   37DOPE  H10X 4748   1.831   2.403  13.251  2.7611 -0.5432 -0.8407
   37DOPE  C311 4749   1.640   2.368  13.128 -0.7158 -0.0023  0.0204
   37DOPE  H11X 4750   1.598   2.289  13.062 -1.7455 -0.4342  1.1370
   37DOPE  H11Y 4751   1.587   2.343  13.223 -0.5789 -2.0410 -0.3907
   37DOPE  C312 4752   1.580   2.499  13.069  0.3653  1.1916 -0.0606
   37DOPE  H12X 4753   1.470   2.491  13.054  0.3046 -0.4871  1.0744
   37DOPE  H12Y 4754   1.622   2.489  12.967  2.0777 -2.5193  0.8373
   37DOPE  C313 4755   1.618   2.630  13.142 -0.1519  0.0162 -0.1991
   37DOPE  H13X 4756   1.586   2.630  13.249  1.5992  2.0390  0.4092
   37DOPE  H13Y 4757   1.728   2.649  13.142 -0.3642  1.5831  1.8191
   37DOPE  C314 4758   1.547   2.750  13.076 -0.8188  0.5219 -0.3128
   37DOPE  H14X 4759   1.438   2.735  13.091 -0.8640  0.4940 -0.6640
   37DOPE  H14Y 4760   1.572   2.740  12.968 -1.3484 -3.6019 -0.2265
   37DOPE  C315 4761   1.595   2.886  13.135 -0.2565 -0.2741 -0.5418
   37DOPE  H15X 4762   1.695   2.924  13.103  1.4168 -3.1244  0.9126
   37DOPE  H15Y 4763   1.586   2.882  13.245  0.2987  2.0574 -0.3590
   37DOPE  C316 4764   1.507   3.005  13.094  0.1498 -0.1537 -0.3173
   37DOPE  H16X 4765   1.540   3.090  13.158  2.2846 -0.1263 -1.3458
   37DOPE  H16Y 4766   1.409   2.970  13.132  1.2354  0.0791  3.0561
   37DOPE  C317 4767   1.505   3.039  12.949  0.8321  0.0423  0.1127
   37DOPE  H17X 4768   1.459   2.951  12.900  2.2521 -0.0521 -1.1476
   37DOPE  H17Y 4769   1.435   3.123  12.932  1.1999  0.3251 -0.0252
   37DOPE  C318 4770   1.639   3.071  12.884  0.5372 -0.0385 -0.5035
   37DOPE  H18X 4771   1.718   2.995  12.902  2.0893  1.1394 -1.9681
   37DOPE  H18Y 4772   1.624   3.095  12.777  1.5064 -1.4549 -0.9877
   37DOPE  H18Z 4773   1.685   3.160  12.932 -1.6645 -0.5941  3.0352
   38DOPE     N 4774   4.169   5.475  12.031  0.2325  0.1562 -0.1550
   38DOPE   HN1 4775   4.206   5.535  12.108  0.6292 -0.2082 -0.0614
   38DOPE   HN2 4776   4.250   5.413  12.010  0.8686  0.9302 -0.0145
   38DOPE   HN3 4777   4.128   5.529  11.953 -1.0585  0.8624  0.9494
   38DOPE   C12 4778   4.048   5.400  12.076  0.4764 -0.1222  0.4044
   38DOPE  H12A 4779   4.015   5.331  11.995 -0.1934  1.5726 -0.8163
   38DOPE  H12B 4780   3.979   5.476  12.118  0.6024  0.3654 -0.2560
   38DOPE   C11 4781   4.099   5.310  12.189 -0.5967  0.5755  0.0073
   38DOPE  H11A 4782   4.014   5.248  12.226  1.1061 -2.0883 -0.2945
   38DOPE  H11B 4783   4.138   5.380  12.266  2.0457 -0.3163 -0.4293
   38DOPE     P 4784   4.261   5.121  12.249  0.1709 -0.0317  0.3422
   38DOPE   O13 4785   4.369   5.044  12.189 -0.9282 -0.4002  0.2134
   38DOPE   O14 4786   4.157   5.049  12.323 -0.4709  0.2743  0.2088
   38DOPE   O11 4787   4.333   5.232  12.342 -0.1506  0.1089 -0.2950
   38DOPE   O12 4788   4.195   5.215  12.141  0.1959 -0.3144  0.4514
   38DOPE    C1 4789   4.396   5.189  12.458 -0.9244  0.0999 -0.7191
   38DOPE    HA 4790   4.505   5.205  12.445 -0.8289  1.2864  1.2121
   38DOPE    HB 4791   4.390   5.079  12.476  0.5476  0.1835  0.5114
   38DOPE    C2 4792   4.357   5.273  12.584  0.0154  0.0975  0.2748
   38DOPE    HS 4793   4.428   5.237  12.662 -0.7053 -1.2797  0.3210
   38DOPE   O21 4794   4.221   5.261  12.613  0.9068 -0.7822 -0.2349
   38DOPE   C21 4795   4.179   5.301  12.729  0.0155 -0.6095 -0.4079
   38DOPE   O22 4796   4.256   5.309  12.823  0.0159  0.2814 -0.1144
   38DOPE   C22 4797   4.026   5.341  12.724 -0.5795 -0.9559 -0.6274
   38DOPE   H2R 4798   3.976   5.244  12.701 -1.5342 -0.2587 -1.5801
   38DOPE   H2S 4799   4.015   5.408  12.636  1.2078 -0.9222 -0.8453
   38DOPE    C3 4800   4.387   5.419  12.543 -0.1350  0.5801  0.1096
   38DOPE    HX 4801   4.310   5.445  12.468 -1.2230 -2.3902  0.0594
   38DOPE    HY 4802   4.477   5.417  12.479 -0.0772  0.2847  0.1962
   38DOPE   O31 4803   4.393   5.518  12.659  0.1698  0.4083  0.3187
   38DOPE   C31 4804   4.478   5.482  12.759  0.6727  0.0977 -0.7175
   38DOPE   O32 4805   4.576   5.412  12.747  0.8907  0.3549 -0.5885
   38DOPE   C32 4806   4.451   5.549  12.889 -0.6538  0.0955 -0.0291
   38DOPE   H2X 4807   4.481   5.655  12.874 -1.5559  0.6653  1.8478
   38DOPE   H2Y 4808   4.344   5.545  12.917 -0.6412  0.1998  0.0336
   38DOPE   C23 4809   3.964   5.407  12.855 -0.4598  0.0369  0.1384
   38DOPE   H3R 4810   3.996   5.346  12.943 -1.9351 -0.6798  0.2069
   38DOPE   H3S 4811   3.854   5.402  12.865 -0.3322 -0.5965  1.4542
   38DOPE   C24 4812   4.019   5.552  12.873  0.3026  0.6299  0.2301
   38DOPE   H4R 4813   3.960   5.605  12.795 -0.3068  0.4401  0.5589
   38DOPE   H4S 4814   4.127   5.550  12.844 -0.4220  1.2156 -2.8818
   38DOPE   C25 4815   4.009   5.599  13.020 -0.4074 -0.1172  0.0803
   38DOPE   H5R 4816   4.060   5.525  13.086  0.5171  1.1316  0.8121
   38DOPE   H5S 4817   3.901   5.605  13.044 -0.6232  0.0512 -0.9047
   38DOPE   C26 4818   4.061   5.735  13.056  0.3478  0.4791 -0.0810
   38DOPE   H6R 4819   4.000   5.803  12.993 -0.5588  0.6641  0.9585
   38DOPE   H6S 4820   4.161   5.765  13.020  0.0996  0.6573 -0.6308
   38DOPE   C27 4821   4.053   5.771  13.206 -0.1615  0.3653  0.4925
   38DOPE   H7R 4822   4.120   5.699  13.258 -0.7126  0.6449  1.6057
   38DOPE   H7S 4823   3.954   5.768  13.255  1.4460 -0.2171  4.0058
   38DOPE   C28 4824   4.118   5.911  13.239  0.9728 -0.3932 -0.3705
   38DOPE   H8R 4825   4.208   5.910  13.174  1.4226  1.7904  0.1349
   38DOPE   H8S 4826   4.143   5.905  13.347 -1.4929  0.1508  0.2861
   38DOPE   C29 4827   4.017   6.023  13.209  0.2301 -0.3552  0.5494
   38DOPE   H9R 4828   3.964   6.025  13.113 -0.8722  0.2604  1.1490
   38DOPE  C210 4829   3.982   6.131  13.288 -0.4952  0.1357  0.3596
   38DOPE  H10R 4830   3.919   6.211  13.246 -2.4325 -0.1172  2.5507
   38DOPE  C211 4831   4.028   6.173  13.422  0.4944 -0.6816  0.4638
   38DOPE  H11R 4832   4.076   6.273  13.416  0.1857 -0.5048  0.8951
   38DOPE  H11S 4833   4.094   6.091  13.456 -0.7991 -1.0151  2.2724
   38DOPE  C212 4834   3.908   6.186  13.524  0.4276  0.1901  0.3884
   38DOPE  H12R 4835   3.852   6.092  13.505  2.9526 -1.1130 -1.0825
   38DOPE  H12S 4836   3.834   6.264  13.495  1.3740  0.2653 -2.0368
   38DOPE  C213 4837   3.947   6.200  13.665 -1.0778 -0.2164 -0.8595
   38DOPE  H13R 4838   3.981   6.304  13.680 -2.3490 -0.0119  0.9212
   38DOPE  H13S 4839   4.028   6.125  13.680 -0.7056  0.1645 -0.9527
   38DOPE  C214 4840   3.835   6.173  13.768 -0.2504  0.2385  0.2036
   38DOPE  H14R 4841   3.805   6.073  13.730  0.0184  0.7394 -1.4271
   38DOPE  H14S 4842   3.752   6.243  13.745 -1.3451 -0.6040  1.4465
   38DOPE  C215 4843   3.877   6.180  13.911 -0.6685  0.6128 -0.5443
   38DOPE  H15R 4844   3.784   6.156  13.965 -0.2646  0.5884  0.1511
   38DOPE  H15S 4845   3.908   6.279  13.951 -0.5955  0.2877  0.2195
   38DOPE  C216 4846   3.989   6.081  13.951  0.0660  0.1551 -0.7359
   38DOPE  H16R 4847   4.015   6.026  13.858  0.6587 -1.7741  0.5144
   38DOPE  H16S 4848   3.945   6.020  14.033  0.3119 -0.3210 -0.9548
   38DOPE  C217 4849   4.118   6.159  13.997  0.3813  0.1242  0.2993
   38DOPE  H17R 4850   4.127   6.237  13.918  0.9264 -0.5710 -0.3362
   38DOPE  H17S 4851   4.207   6.092  13.992 -0.2447 -0.6647 -0.9389
   38DOPE  C218 4852   4.117   6.227  14.136  0.2442  0.7539 -0.1444
   38DOPE  H18R 4853   4.042   6.306  14.155 -1.3277 -0.7696  0.1853
   38DOPE  H18S 4854   4.218   6.273  14.149  0.2584  1.1847 -1.6133
   38DOPE  H18T 4855   4.115   6.156  14.222 -0.5230  1.0133  0.0561
   38DOPE   C33 4856   4.531   5.490  13.008  0.3139  0.3057  0.3622
   38DOPE   H3X 4857   4.637   5.525  13.007  0.2095  0.6519  1.0639
   38DOPE   H3Y 4858   4.514   5.381  12.999 -1.5194  0.7094 -2.2391
   38DOPE   C34 4859   4.486   5.519  13.153  0.1715  0.3154 -0.2984
   38DOPE   H4X 4860   4.474   5.629  13.150  0.3632  0.3371 -0.3121
   38DOPE   H4Y 4861   4.387   5.475  13.176  0.0796  0.9359  0.5537
   38DOPE   C35 4862   4.577   5.469  13.261 -0.0124  0.4612  0.4640
   38DOPE   H5X 4863   4.680   5.509  13.252  1.2946 -2.8985 -1.8116
   38DOPE   H5Y 4864   4.605   5.362  13.247 -0.8897  0.4072 -1.1770
   38DOPE   C36 4865   4.511   5.503  13.399  0.6895 -0.3543  0.0041
   38DOPE   H6X 4866   4.405   5.470  13.398  0.7407 -0.6794  1.6400
   38DOPE   H6Y 4867   4.502   5.613  13.409 -2.3549 -0.5793  1.0274
   38DOPE   C37 4868   4.584   5.441  13.524  0.2522 -0.3680 -0.0798
   38DOPE   H7X 4869   4.575   5.331  13.534 -0.7266 -0.2348  0.6859
   38DOPE   H7Y 4870   4.689   5.475  13.519 -0.1858  1.1255  0.2887
   38DOPE   C38 4871   4.536   5.503  13.650  0.8150 -0.0158 -0.2804
   38DOPE   H8X 4872   4.563   5.611  13.657  0.0809  0.1387  0.3253
   38DOPE   H8Y 4873   4.599   5.469  13.735  0.2294  1.8493  0.9706
   38DOPE   C39 4874   4.391   5.475  13.674  0.0316 -0.9712 -0.3394
   38DOPE   H9X 4875   4.367   5.375  13.715  0.6423  0.3322  3.6546
   38DOPE  C310 4876   4.286   5.560  13.657 -0.2970  0.0630 -0.1217
   38DOPE  H10X 4877   4.185   5.523  13.679 -0.1454 -0.6194 -0.5523
   38DOPE  C311 4878   4.284   5.700  13.604  0.8334 -0.5598  0.0828
   38DOPE  H11X 4879   4.384   5.741  13.578  0.3295 -0.5962 -2.1079
   38DOPE  H11Y 4880   4.227   5.697  13.508  1.9842 -1.4299 -0.6012
   38DOPE  C312 4881   4.215   5.796  13.707 -0.2890 -0.3192 -0.0842
   38DOPE  H12X 4882   4.113   5.769  13.739  0.0133 -0.9951  0.3232
   38DOPE  H12Y 4883   4.217   5.900  13.667  0.4214 -0.6232 -0.8617
   38DOPE  C313 4884   4.288   5.798  13.838 -0.8640 -0.3112 -0.2578
   38DOPE  H13X 4885   4.225   5.854  13.910 -0.4816  0.6716 -0.6692
   38DOPE  H13Y 4886   4.304   5.694  13.874 -0.5821 -0.0158  0.5004
   38DOPE  C314 4887   4.412   5.885  13.833 -0.6894  0.2392 -0.0905
   38DOPE  H14X 4888   4.383   5.982  13.786 -2.2689  0.1425  0.6115
   38DOPE  H14Y 4889   4.481   5.832  13.764 -0.3354 -0.0038  0.4458
   38DOPE  C315 4890   4.491   5.925  13.959  0.5357 -0.1008 -0.9291
   38DOPE  H15X 4891   4.540   5.834  13.999  0.6936 -0.1166 -1.1585
   38DOPE  H15Y 4892   4.415   5.953  14.036  0.2355  0.4381 -1.4100
   38DOPE  C316 4893   4.585   6.044  13.940 -0.0404  0.5252  0.0446
   38DOPE  H16X 4894   4.649   6.014  13.854 -0.9880 -0.8259 -0.2229
   38DOPE  H16Y 4895   4.653   6.062  14.026  1.0533 -2.7119  0.0057
   38DOPE  C317 4896   4.515   6.174  13.919  0.1548  0.1111 -0.3545
   38DOPE  H17X 4897   4.450   6.153  13.832 -2.6857  0.7824  1.4908
   38DOPE  H17Y 4898   4.441   6.195  14.000 -1.2377 -0.1261 -1.5317
   38DOPE  C318 4899   4.598   6.299  13.894  0.1282  0.4829  0.4089
   38DOPE  H18X 4900   4.537   6.388  13.919  0.4273  1.6252 -2.5075
   38DOPE  H18Y 4901   4.695   6.289  13.948  0.4802 -2.5167 -0.5893
   38DOPE  H18Z 4902   4.629   6.306  13.787  2.2528 -2.3339  0.7077
   39DOPE     N 4903   1.135   3.131  11.800  0.6048 -0.0382  0.4246
   39DOPE   HN1 4904   1.124   3.116  11.902 -2.3768  1.5823  0.4369
   39DOPE   HN2 4905   1.070   3.210  11.782  1.9399  1.2683  1.1840
   39DOPE   HN3 4906   1.115   3.044  11.746  0.7560 -1.6506  2.8455
   39DOPE   C12 4907   1.276   3.180  11.771  0.4650 -0.1267 -0.3210
   39DOPE  H12A 4908   1.268   3.223  11.668  1.5251 -0.3086 -0.4868
   39DOPE  H12B 4909   1.342   3.091  11.762 -1.5544 -1.7016 -0.4270
   39DOPE   C11 4910   1.309   3.293  11.864  0.1773 -0.0419 -0.1761
   39DOPE  H11A 4911   1.298   3.260  11.969 -0.6767 -1.5240 -0.6958
   39DOPE  H11B 4912   1.238   3.377  11.848 -0.4329 -0.3960  0.6374
   39DOPE     P 4913   1.563   3.324  11.932  0.5891  0.2966  0.4447
   39DOPE   O13 4914   1.671   3.417  11.898  0.9052 -0.1897 -0.6036
   39DOPE   O14 4915   1.595   3.180  11.933  0.2736  0.1066  0.5909
   39DOPE   O11 4916   1.492   3.365  12.073 -0.1520  0.8367 -0.4061
   39DOPE   O12 4917   1.439   3.349  11.832 -0.3780 -0.4391 -0.2574
   39DOPE    C1 4918   1.459   3.501  12.100 -0.2849 -0.3926 -0.2199
   39DOPE    HA 4919   1.381   3.518  12.176  0.6064  4.4838 -0.1012
   39DOPE    HB 4920   1.429   3.549  12.005 -0.0535 -0.0581 -0.1260
   39DOPE    C2 4921   1.582   3.582  12.156 -0.6305 -0.5266 -0.4201
   39DOPE    HS 4922   1.660   3.565  12.079  2.0085 -0.2037  2.0074
   39DOPE   O21 4923   1.626   3.538  12.289  0.0606 -0.3603 -0.3485
   39DOPE   C21 4924   1.757   3.503  12.301  0.0430  0.0350 -0.1490
   39DOPE   O22 4925   1.844   3.511  12.218 -0.5022  0.3053 -0.1406
   39DOPE   C22 4926   1.774   3.461  12.448  0.1512 -0.5882 -0.0022
   39DOPE   H2R 4927   1.676   3.410  12.467  0.4396 -1.2862 -0.3621
   39DOPE   H2S 4928   1.783   3.552  12.511  0.0982 -0.1718 -0.5956
   39DOPE    C3 4929   1.548   3.733  12.167 -0.3176  0.4062 -0.0449
   39DOPE    HX 4930   1.548   3.765  12.061 -0.9461  0.1171 -0.1429
   39DOPE    HY 4931   1.626   3.768  12.237 -0.8499 -0.5211  1.0452
   39DOPE   O31 4932   1.425   3.765  12.231 -0.2661  0.5279 -0.1265
   39DOPE   C31 4933   1.405   3.898  12.232 -0.8495 -0.4798 -0.5406
   39DOPE   O32 4934   1.479   3.981  12.175 -0.1631  0.2297 -0.5532
   39DOPE   C32 4935   1.285   3.934  12.319  0.2540  0.7102  0.1018
   39DOPE   H2X 4936   1.198   3.957  12.254 -0.3167  1.2955  1.0523
   39DOPE   H2Y 4937   1.247   3.839  12.361  1.3735 -0.4990 -1.5083
   39DOPE   C23 4938   1.879   3.356  12.466  0.2798 -1.0011 -0.2389
   39DOPE   H3R 4939   1.977   3.403  12.439 -0.2712 -0.1638 -0.8325
   39DOPE   H3S 4940   1.855   3.262  12.411 -2.1431 -0.2310 -0.6086
   39DOPE   C24 4941   1.882   3.315  12.617  1.0474  0.5990  0.8746
   39DOPE   H4R 4942   1.774   3.303  12.642 -0.1126 -1.1083 -3.8871
   39DOPE   H4S 4943   1.929   3.406  12.661 -0.6099  2.0771 -0.2962
   39DOPE   C25 4944   1.947   3.180  12.638 -0.4486 -0.5420  0.6725
   39DOPE   H5R 4945   2.041   3.171  12.580 -2.2458  0.1884 -2.5841
   39DOPE   H5S 4946   1.881   3.102  12.595  0.8354 -1.6802  0.6968
   39DOPE   C26 4947   1.971   3.154  12.785 -0.2438  0.2099 -0.0702
   39DOPE   H6R 4948   1.882   3.179  12.847 -1.1762 -1.5451 -0.6168
   39DOPE   H6S 4949   2.056   3.217  12.817 -0.1525 -0.4435  1.0338
   39DOPE   C27 4950   2.010   3.011  12.827  0.1979  0.6406  0.6716
   39DOPE   H7R 4951   2.079   2.985  12.744 -2.4947  1.3993 -1.9911
   39DOPE   H7S 4952   1.928   2.937  12.816  1.1286 -0.3586  0.3200
   39DOPE   C28 4953   2.060   3.004  12.967  0.4771  0.0598 -0.6823
   39DOPE   H8R 4954   1.988   3.057  13.032 -0.0732 -1.7750  0.2702
   39DOPE   H8S 4955   2.156   3.059  12.967 -0.5434  1.9508  0.5780
   39DOPE   C29 4956   2.083   2.863  13.017 -0.1194  0.2847  0.1319
   39DOPE   H9R 4957   2.142   2.803  12.946 -0.9835 -1.9022  1.1424
   39DOPE  C210 4958   2.055   2.808  13.133  0.2041 -0.3791  0.2110
   39DOPE  H10R 4959   2.080   2.702  13.147  1.9428 -0.6516 -3.5826
   39DOPE  C211 4960   1.991   2.873  13.252 -0.2259 -0.0259  0.1598
   39DOPE  H11R 4961   1.882   2.855  13.255 -0.3389  0.6872  0.8093
   39DOPE  H11S 4962   1.984   2.983  13.236 -0.1889  0.5461  3.3124
   39DOPE  C212 4963   2.061   2.838  13.382 -0.5896 -0.2291 -0.2122
   39DOPE  H12R 4964   2.169   2.861  13.372 -0.9794  0.7342 -2.8555
   39DOPE  H12S 4965   2.061   2.728  13.398 -1.1325  0.0523  2.0862
   39DOPE  C213 4966   1.993   2.891  13.512  0.0252 -0.4848  0.2691
   39DOPE  H13R 4967   1.998   3.001  13.498 -1.2803 -0.8486 -5.3794
   39DOPE  H13S 4968   2.041   2.852  13.604 -1.2337  0.8719  1.5437
   39DOPE  C214 4969   1.846   2.852  13.525  0.0573  0.5409  0.3803
   39DOPE  H14R 4970   1.788   2.901  13.445  1.9275  2.1614 -0.0806
   39DOPE  H14S 4971   1.813   2.888  13.625  0.0012  1.0730  0.1745
   39DOPE  C215 4972   1.819   2.701  13.509  0.4706  0.3702  0.0786
   39DOPE  H15R 4973   1.904   2.643  13.550 -1.2807 -2.6497 -0.2463
   39DOPE  H15S 4974   1.812   2.676  13.401 -1.1371 -0.2191  0.2900
   39DOPE  C216 4975   1.694   2.648  13.588 -0.1567 -0.4045  0.7938
   39DOPE  H16R 4976   1.609   2.715  13.563 -1.1981 -1.8625  0.2789
   39DOPE  H16S 4977   1.702   2.649  13.699  2.8421 -1.1213  0.6842
   39DOPE  C217 4978   1.651   2.509  13.529  0.3976  0.5290  0.0040
   39DOPE  H17R 4979   1.644   2.531  13.421 -1.5521  0.5225  0.0912
   39DOPE  H17S 4980   1.550   2.474  13.561  1.7148 -2.4601  1.2359
   39DOPE  C218 4981   1.751   2.393  13.537 -0.6883 -0.0062 -0.1256
   39DOPE  H18R 4982   1.717   2.314  13.466  1.6045 -1.8898  0.7619
   39DOPE  H18S 4983   1.757   2.348  13.638 -2.1683 -1.2595 -0.5527
   39DOPE  H18T 4984   1.847   2.438  13.505 -0.2693 -0.6736  0.1827
   39DOPE   C33 4985   1.298   4.043  12.423  0.1667 -0.6686  0.5945
   39DOPE   H3X 4986   1.283   4.142  12.375  1.2070 -1.0292 -0.5109
   39DOPE   H3Y 4987   1.400   4.041  12.467 -0.0668 -1.5850  1.1305
   39DOPE   C34 4988   1.213   4.013  12.548 -0.8305 -0.0426  0.7516
   39DOPE   H4X 4989   1.241   3.911  12.581  1.0067 -0.1883 -1.0962
   39DOPE   H4Y 4990   1.252   4.082  12.626  0.2711  0.7931 -0.5085
   39DOPE   C35 4991   1.059   4.032  12.523 -0.3734 -0.3571  0.1828
   39DOPE   H5X 4992   1.032   3.961  12.441  1.3604  0.0357 -0.7600
   39DOPE   H5Y 4993   1.039   4.136  12.490  0.1809 -0.2816  0.0876
   39DOPE   C36 4994   0.977   4.010  12.648  0.3558  0.0194  0.0024
   39DOPE   H6X 4995   1.013   4.071  12.733 -2.2785  0.7790  0.6693
   39DOPE   H6Y 4996   0.970   3.909  12.691  0.8252 -0.3310 -0.7190
   39DOPE   C37 4997   0.833   4.054  12.644  0.8715 -0.2667 -0.1536
   39DOPE   H7X 4998   0.824   4.165  12.642 -1.4416 -0.3896 -3.3280
   39DOPE   H7Y 4999   0.799   4.016  12.546  1.1945 -0.0107 -0.3685
   39DOPE   C38 5000   0.749   3.987  12.754 -0.3990  0.1142  0.5107
   39DOPE   H8X 5001   0.806   4.036  12.836  1.6111  2.0810 -1.8790
   39DOPE   H8Y 5002   0.760   3.878  12.737 -6.7018 -0.7874 -0.0945
   39DOPE   C39 5003   0.601   4.019  12.756  0.1675 -0.1431  0.3570
   39DOPE   H9X 5004   0.552   4.008  12.658  0.5467 -2.1165  0.3441
   39DOPE  C310 5005   0.536   4.083  12.853 -0.1512 -1.1188  0.1682
   39DOPE  H10X 5006   0.429   4.105  12.834 -0.0985 -1.1697 -0.1965
   39DOPE  C311 5007   0.586   4.143  12.982 -0.6080  0.2524 -0.2509
   39DOPE  H11X 5008   0.582   4.075  13.069 -1.2421  3.2718  2.2519
   39DOPE  H11Y 5009   0.694   4.166  12.971 -0.4734  0.1051  0.7080
   39DOPE  C312 5010   0.506   4.270  13.020  0.3003  0.7765  0.0229
   39DOPE  H12X 5011   0.399   4.252  13.040  0.4301  0.6506  0.6064
   39DOPE  H12Y 5012   0.499   4.335  12.930 -0.3286  2.2233  1.0839
   39DOPE  C313 5013   0.565   4.341  13.141  0.1695 -0.1867 -0.0992
   39DOPE  H13X 5014   0.667   4.372  13.109 -0.5996  1.4357 -1.1174
   39DOPE  H13Y 5015   0.507   4.431  13.168 -0.0414 -0.7694  1.4579
   39DOPE  C314 5016   0.582   4.264  13.275  0.3839 -0.1314  0.2109
   39DOPE  H14X 5017   0.640   4.170  13.267  0.7771  0.0041  1.3283
   39DOPE  H14Y 5018   0.476   4.232  13.288  0.6223 -2.8747 -3.0515
   39DOPE  C315 5019   0.626   4.346  13.392 -0.1313 -0.5431 -0.1278
   39DOPE  H15X 5020   0.593   4.451  13.383  1.2376 -0.0751  0.0713
   39DOPE  H15Y 5021   0.736   4.361  13.391 -0.0595 -0.9301 -1.9039
   39DOPE  C316 5022   0.583   4.288  13.529  0.4070  0.6996 -0.3577
   39DOPE  H16X 5023   0.472   4.283  13.519  0.5809 -3.2177 -2.5663
   39DOPE  H16Y 5024   0.609   4.361  13.608  0.2270  1.9493 -1.4336
   39DOPE  C317 5025   0.633   4.141  13.551 -1.0671 -0.1674  0.1185
   39DOPE  H17X 5026   0.580   4.080  13.475 -2.8313 -0.9608  1.8718
   39DOPE  H17Y 5027   0.744   4.134  13.552 -0.8425  1.7403 -2.0643
   39DOPE  C318 5028   0.586   4.094  13.690  0.6422  0.0703  0.7913
   39DOPE  H18X 5029   0.601   3.984  13.703 -0.6652 -0.1788  0.3308
   39DOPE  H18Y 5030   0.637   4.148  13.773  1.5921  0.1118  0.1916
   39DOPE  H18Z 5031   0.476   4.101  13.705  0.2338 -0.3908 -1.6298
   40DOPE     N 5032   4.026   6.194  12.287  1.0420  0.5516  0.0503
   40DOPE   HN1 5033   4.030   6.219  12.186  0.4917 -1.5063 -0.5310
   40DOPE   HN2 5034   3.942   6.228  12.337  0.7928 -0.9868  0.7352
   40DOPE   HN3 5035   4.098   6.249  12.338  1.7583  0.3942 -0.7692
   40DOPE   C12 5036   4.042   6.045  12.315  0.4599  0.0040  0.3224
   40DOPE  H12A 5037   3.942   6.008  12.346 -1.0423  0.3536 -3.5414
   40DOPE  H12B 5038   4.115   6.030  12.397  1.1199 -1.6485 -0.4953
   40DOPE   C11 5039   4.099   5.979  12.188 -0.3955 -0.3018  0.2772
   40DOPE  H11A 5040   4.194   6.031  12.162 -1.5768  0.6833 -2.4270
   40DOPE  H11B 5041   4.033   6.007  12.103  0.7347  0.9867 -0.2168
   40DOPE     P 5042   4.228   5.764  12.281  0.0520  0.0230 -0.2318
   40DOPE   O13 5043   4.329   5.864  12.317  0.2387 -0.2168  0.2101
   40DOPE   O14 5044   4.276   5.644  12.207  0.6649  0.6953  0.3378
   40DOPE   O11 5045   4.153   5.718  12.410 -0.1690 -0.2809 -0.4301
   40DOPE   O12 5046   4.122   5.841  12.199 -0.2877  0.1617  0.1286
   40DOPE    C1 5047   4.039   5.637  12.417  0.1332  0.1285 -0.9208
   40DOPE    HA 5048   4.045   5.574  12.509 -1.2281  0.3976 -0.6247
   40DOPE    HB 5049   4.040   5.556  12.341 -1.0303 -0.5042 -0.2990
   40DOPE    C2 5050   3.909   5.710  12.412  0.1830 -0.1229 -0.8958
   40DOPE    HS 5051   3.912   5.802  12.351  0.7503 -0.4538 -1.3732
   40DOPE   O21 5052   3.874   5.732  12.552  0.3077  0.4652 -0.3437
   40DOPE   C21 5053   3.800   5.835  12.584  0.6114 -0.4012  0.2822
   40DOPE   O22 5054   3.742   5.908  12.501 -0.0949  0.5730  0.2156
   40DOPE   C22 5055   3.786   5.840  12.739  0.3018  0.1282 -0.4103
   40DOPE   H2R 5056   3.882   5.826  12.792 -0.0512 -1.2800 -0.1008
   40DOPE   H2S 5057   3.708   5.766  12.769  0.8260  0.6542  2.5009
   40DOPE    C3 5058   3.795   5.636  12.346 -0.0080  0.0660  0.5680
   40DOPE    HX 5059   3.825   5.637  12.239 -0.9640 -1.4134  0.2660
   40DOPE    HY 5060   3.696   5.684  12.358 -0.3095  0.0334 -1.4937
   40DOPE   O31 5061   3.798   5.498  12.388 -0.1494 -0.0160 -0.0610
   40DOPE   C31 5062   3.723   5.469  12.491  0.2439  0.1844 -0.7303
   40DOPE   O32 5063   3.652   5.549  12.556 -0.1122 -0.0925 -0.1915
   40DOPE   C32 5064   3.748   5.320  12.520  0.1535  0.0614  0.0573
   40DOPE   H2X 5065   3.714   5.261  12.433  2.2783  1.1124 -1.5856
   40DOPE   H2Y 5066   3.856   5.298  12.536  0.1143 -0.2641 -0.1206
   40DOPE   C23 5067   3.722   5.975  12.777 -0.1875 -0.7337 -0.7282
   40DOPE   H3R 5068   3.620   5.990  12.735  0.0222  0.8548 -0.7452
   40DOPE   H3S 5069   3.780   6.057  12.729  1.3447 -0.2725  1.7552
   40DOPE   C24 5070   3.706   5.995  12.930 -0.3456  0.2146 -0.5325
   40DOPE   H4R 5071   3.643   6.085  12.941  1.0729  1.1733  0.0724
   40DOPE   H4S 5072   3.806   6.030  12.965 -0.5202  0.7870 -0.6000
   40DOPE   C25 5073   3.663   5.875  13.014  0.6659  0.2978  0.7630
   40DOPE   H5R 5074   3.749   5.814  13.049  0.4783 -0.4730 -0.0681
   40DOPE   H5S 5075   3.603   5.817  12.941  1.7534 -0.2063  0.2416
   40DOPE   C26 5076   3.580   5.931  13.134 -0.3142  0.1846  0.4458
   40DOPE   H6R 5077   3.519   6.022  13.114 -2.9949 -1.2139  1.6887
   40DOPE   H6S 5078   3.666   5.959  13.199 -0.4819 -1.7516  1.5779
   40DOPE   C27 5079   3.488   5.841  13.217  0.1094 -0.0238  0.1526
   40DOPE   H7R 5080   3.555   5.761  13.256  1.5380  0.0036 -2.0762
   40DOPE   H7S 5081   3.415   5.793  13.149  2.1404  0.8099 -2.8250
   40DOPE   C28 5082   3.416   5.927  13.323 -0.7458 -0.4459 -0.3721
   40DOPE   H8R 5083   3.339   5.854  13.356 -0.3308 -1.2524 -1.1399
   40DOPE   H8S 5084   3.365   6.014  13.278  1.2062  1.5683  1.1085
   40DOPE   C29 5085   3.500   5.962  13.444  0.0551 -0.2314 -0.1328
   40DOPE   H9R 5086   3.497   5.881  13.519  1.4383 -0.8615 -0.7354
   40DOPE  C210 5087   3.566   6.080  13.463  0.6196 -0.1863 -0.3797
   40DOPE  H10R 5088   3.626   6.092  13.553 -0.2904 -1.3961  0.4202
   40DOPE  C211 5089   3.570   6.201  13.374  0.3961 -0.4404  0.2308
   40DOPE  H11R 5090   3.568   6.168  13.267  2.2068  0.8848 -0.2711
   40DOPE  H11S 5091   3.660   6.266  13.383 -0.8453  1.3171  0.4139
   40DOPE  C212 5092   3.464   6.296  13.424  0.5691 -0.0186 -0.5522
   40DOPE  H12R 5093   3.364   6.263  13.388  0.1102  0.2747  0.3935
   40DOPE  H12S 5094   3.477   6.387  13.362 -0.8071 -0.6001 -1.7687
   40DOPE  C213 5095   3.470   6.332  13.572  1.0784  0.2138  0.2085
   40DOPE  H13R 5096   3.577   6.341  13.602  1.8890  1.2103 -2.6426
   40DOPE  H13S 5097   3.411   6.255  13.626  1.4264 -0.1813  0.0333
   40DOPE  C214 5098   3.416   6.470  13.595  0.0108  0.2936  0.5824
   40DOPE  H14R 5099   3.309   6.468  13.566 -0.3412  0.0902  1.8275
   40DOPE  H14S 5100   3.454   6.544  13.522 -2.3055  1.6009  0.5890
   40DOPE  C215 5101   3.437   6.513  13.744  0.2389 -0.2563 -0.3939
   40DOPE  H15R 5102   3.370   6.601  13.753  1.6372  0.7826  0.2155
   40DOPE  H15S 5103   3.539   6.558  13.747 -0.5572  1.5317  1.7977
   40DOPE  C216 5104   3.407   6.414  13.848  0.0158 -0.1529  0.0996
   40DOPE  H16R 5105   3.482   6.333  13.836 -1.2189 -1.2718 -0.3192
   40DOPE  H16S 5106   3.307   6.367  13.836 -1.2485  2.4763 -0.3551
   40DOPE  C217 5107   3.412   6.488  13.981 -0.0512 -0.3695  0.3108
   40DOPE  H17R 5108   3.326   6.558  13.983 -0.7595 -1.1985 -0.2226
   40DOPE  H17S 5109   3.507   6.544  13.998  0.4684 -1.6162  1.7692
   40DOPE  C218 5110   3.407   6.391  14.100  0.8882 -0.5304 -0.2615
   40DOPE  H18R 5111   3.473   6.302  14.090  2.3636  0.2232  1.8889
   40DOPE  H18S 5112   3.304   6.350  14.108  1.1743 -1.2558 -0.2138
   40DOPE  H18T 5113   3.414   6.442  14.199  0.6003  0.4218 -0.7219
   40DOPE   C33 5114   3.661   5.276  12.641 -0.0760  0.1512  0.3158
   40DOPE   H3X 5115   3.559   5.318  12.625 -0.4224 -1.0224 -0.7466
   40DOPE   H3Y 5116   3.703   5.316  12.736  0.0738 -0.3115  0.4480
   40DOPE   C34 5117   3.654   5.120  12.655 -0.4445 -0.4630  0.0275
   40DOPE   H4X 5118   3.633   5.071  12.558  2.1107 -0.3861 -0.6418
   40DOPE   H4Y 5119   3.750   5.091  12.704 -0.6367 -0.8343  0.1947
   40DOPE   C35 5120   3.535   5.087  12.752 -0.5673  0.5418  0.2166
   40DOPE   H5X 5121   3.450   5.063  12.685  0.4905 -3.6995  0.0761
   40DOPE   H5Y 5122   3.504   5.179  12.805 -2.1290  0.3319 -0.2825
   40DOPE   C36 5123   3.556   4.968  12.850  0.2775 -0.3801 -0.0699
   40DOPE   H6X 5124   3.576   4.878  12.788  0.0604  0.5528 -1.5299
   40DOPE   H6Y 5125   3.459   4.957  12.903  0.0116 -2.3404 -0.8623
   40DOPE   C37 5126   3.677   4.984  12.940 -0.4076 -0.3272  0.2742
   40DOPE   H7X 5127   3.770   4.943  12.895 -0.5420 -0.9218  0.5144
   40DOPE   H7Y 5128   3.695   5.093  12.949 -0.3840 -0.1446 -1.7059
   40DOPE   C38 5129   3.650   4.915  13.071 -0.2563 -0.1477  0.7753
   40DOPE   H8X 5130   3.619   4.812  13.044  0.8957 -0.0709 -1.0598
   40DOPE   H8Y 5131   3.555   4.963  13.104 -0.8260 -2.0075  1.9392
   40DOPE   C39 5132   3.761   4.924  13.178  1.0504 -0.3481 -0.6958
   40DOPE   H9X 5133   3.864   4.935  13.140  1.5071 -0.3393  0.5014
   40DOPE  C310 5134   3.732   4.929  13.308  0.0462  0.2330 -0.0244
   40DOPE  H10X 5135   3.818   4.953  13.372 -0.0747  1.4295 -0.2864
   40DOPE  C311 5136   3.597   4.927  13.369  0.6603 -0.2279 -0.2836
   40DOPE  H11X 5137   3.517   4.887  13.304 -0.3383  0.2697  0.5977
   40DOPE  H11Y 5138   3.609   4.869  13.463  4.3640 -0.9126 -1.0357
   40DOPE  C312 5139   3.565   5.075  13.406  0.3355 -0.4206  0.4515
   40DOPE  H12X 5140   3.573   5.131  13.310  1.3469 -1.3346 -0.0172
   40DOPE  H12Y 5141   3.640   5.109  13.481  1.7516 -1.5834 -0.3812
   40DOPE  C313 5142   3.427   5.106  13.460  0.0747  0.2621  0.3994
   40DOPE  H13X 5143   3.411   5.215  13.480  0.3149  0.4741 -0.5161
   40DOPE  H13Y 5144   3.339   5.065  13.407 -0.0936  0.0017  0.8727
   40DOPE  C314 5145   3.399   5.030  13.590 -0.1009  0.1670 -0.0443
   40DOPE  H14X 5146   3.467   5.053  13.675 -0.4957 -0.3428  0.4165
   40DOPE  H14Y 5147   3.412   4.921  13.574  0.4902  0.1783  0.3132
   40DOPE  C315 5148   3.251   5.039  13.625  1.1404  0.0245 -0.3949
   40DOPE  H15X 5149   3.187   4.986  13.551 -1.5317 -0.9494  2.3875
   40DOPE  H15Y 5150   3.220   5.144  13.602  0.4733 -0.1216 -0.1785
   40DOPE  C316 5151   3.206   5.001  13.768  0.0111  0.1235  0.1571
   40DOPE  H16X 5152   3.101   4.964  13.772  0.0252  0.1417  3.1874
   40DOPE  H16Y 5153   3.203   5.084  13.841 -0.4631  0.4305 -0.2067
   40DOPE  C317 5154   3.291   4.896  13.827 -0.4699  0.9123 -0.0269
   40DOPE  H17X 5155   3.282   4.800  13.772 -1.3287  0.8905  0.1393
   40DOPE  H17Y 5156   3.399   4.922  13.827 -0.1701 -0.2254 -1.0284
   40DOPE  C318 5157   3.266   4.864  13.976  0.2687 -0.4114  0.4854
   40DOPE  H18X 5158   3.159   4.843  13.997  0.3243  1.3890  3.1054
   40DOPE  H18Y 5159   3.335   4.787  14.017  0.2795  0.2031  1.6753
   40DOPE  H18Z 5160   3.289   4.961  14.025 -0.3092  0.8195 -1.5686
   41DOPE     N 5161   1.762   4.766  11.987 -0.6990 -0.1538 -0.3802
   41DOPE   HN1 5162   1.669   4.725  11.966 -1.2982  1.2762 -0.6391
   41DOPE   HN2 5163   1.740   4.860  12.025 -1.0595  1.6652 -4.6250
   41DOPE   HN3 5164   1.819   4.772  11.901 -0.5320 -1.2146 -0.3633
   41DOPE   C12 5165   1.844   4.688  12.093 -0.0771 -0.6550 -0.1432
   41DOPE  H12A 5166   1.947   4.730  12.093 -0.9163  1.5210  0.4791
   41DOPE  H12B 5167   1.862   4.587  12.049 -0.4747 -0.8861  0.2261
   41DOPE   C11 5168   1.783   4.682  12.230  0.3863  0.1818  0.6327
   41DOPE  H11A 5169   1.860   4.637  12.295 -0.3731 -0.1943  1.2764
   41DOPE  H11B 5170   1.689   4.623  12.232  0.3359  0.1739 -0.7903
   41DOPE     P 5171   1.864   4.889  12.366  0.5598  0.2420 -0.3091
   41DOPE   O13 5172   1.808   5.012  12.427  0.3730 -0.1486  0.2118
   41DOPE   O14 5173   1.980   4.908  12.277 -0.2099 -0.0525  0.5050
   41DOPE   O11 5174   1.897   4.784  12.480 -0.0916 -0.2893 -0.0846
   41DOPE   O12 5175   1.753   4.817  12.278  0.2165 -0.6986 -0.1346
   41DOPE    C1 5176   1.795   4.743  12.575  0.3355  0.1580 -0.6216
   41DOPE    HA 5177   1.806   4.636  12.604  0.3917  0.0538 -1.0260
   41DOPE    HB 5178   1.699   4.760  12.522 -1.0538 -3.5049  0.3675
   41DOPE    C2 5179   1.789   4.827  12.707  0.5098 -0.2694  0.2731
   41DOPE    HS 5180   1.774   4.932  12.676 -0.8436 -0.7434 -0.7937
   41DOPE   O21 5181   1.918   4.817  12.763 -0.9136 -0.5608 -0.0037
   41DOPE   C21 5182   1.949   4.896  12.868 -0.1777  0.0762 -1.3252
   41DOPE   O22 5183   1.880   4.984  12.906 -0.3395  0.1413  0.2215
   41DOPE   C22 5184   2.082   4.862  12.943  0.7173  0.0722 -0.1892
   41DOPE   H2R 5185   2.140   4.957  12.943  1.0390 -0.0815 -1.8450
   41DOPE   H2S 5186   2.146   4.808  12.870  1.7115  0.0711  0.6595
   41DOPE    C3 5187   1.672   4.787  12.809 -0.2059 -1.2567  0.0928
   41DOPE    HX 5188   1.574   4.790  12.755 -0.7537  0.7054  1.1196
   41DOPE    HY 5189   1.670   4.860  12.892  0.8072 -0.4825 -0.5464
   41DOPE   O31 5190   1.694   4.656  12.851  0.2061  0.4240 -0.6927
   41DOPE   C31 5191   1.639   4.623  12.966  0.3370 -0.1320  0.6789
   41DOPE   O32 5192   1.576   4.702  13.035  0.2231  0.5013 -0.0164
   41DOPE   C32 5193   1.653   4.473  12.989 -0.2216 -0.4682  0.0574
   41DOPE   H2X 5194   1.586   4.419  12.918 -0.5266  1.2282 -0.9956
   41DOPE   H2Y 5195   1.758   4.437  12.976 -0.4909 -1.8788  1.4285
   41DOPE   C23 5196   2.054   4.806  13.083  0.3583 -0.6035 -0.0784
   41DOPE   H3R 5197   1.977   4.869  13.133  0.3401 -0.0828 -0.7565
   41DOPE   H3S 5198   2.139   4.828  13.151 -0.1075  0.1739  0.2745
   41DOPE   C24 5199   2.037   4.653  13.106  0.5124  0.0799  0.3025
   41DOPE   H4R 5200   2.133   4.605  13.078  0.3207 -1.5087  2.1704
   41DOPE   H4S 5201   1.954   4.618  13.041  1.0899  0.4691 -0.6590
   41DOPE   C25 5202   2.000   4.622  13.252  0.9208 -0.1662  0.2876
   41DOPE   H5R 5203   1.903   4.672  13.270  0.0212 -1.6498 -0.2848
   41DOPE   H5S 5204   2.072   4.673  13.319  1.3909  0.4444 -0.6610
   41DOPE   C26 5205   1.997   4.473  13.280  0.2895  0.5539 -0.0998
   41DOPE   H6R 5206   2.067   4.412  13.220  3.0155  0.1938  3.1605
   41DOPE   H6S 5207   1.892   4.456  13.248  0.4929  1.4179 -1.3165
   41DOPE   C27 5208   2.017   4.449  13.427  0.3894 -0.0861 -0.7362
   41DOPE   H7R 5209   1.947   4.506  13.491  1.5008 -0.9765  1.3992
   41DOPE   H7S 5210   2.120   4.478  13.458  1.6823 -1.3144 -3.4567
   41DOPE   C28 5211   1.989   4.303  13.457  0.0603  0.8040 -0.4924
   41DOPE   H8R 5212   2.044   4.265  13.546  0.2762  0.5453 -0.7366
   41DOPE   H8S 5213   2.021   4.232  13.378 -0.5015  1.2922 -1.1779
   41DOPE   C29 5214   1.835   4.292  13.467 -0.0658 -0.4259 -0.1033
   41DOPE   H9R 5215   1.793   4.358  13.390 -1.2573  0.7144  1.4639
   41DOPE  C210 5216   1.764   4.243  13.567  0.0153 -1.1760 -0.4871
   41DOPE  H10R 5217   1.654   4.257  13.564  0.3584  2.9250 -0.1855
   41DOPE  C211 5218   1.815   4.186  13.694 -0.0299  0.9692  0.1075
   41DOPE  H11R 5219   1.793   4.257  13.777 -0.2612 -2.1390  2.9655
   41DOPE  H11S 5220   1.925   4.169  13.688 -0.1540  0.1290  0.0811
   41DOPE  C212 5221   1.746   4.051  13.750  0.6238  0.0058  0.3179
   41DOPE  H12R 5222   1.638   4.076  13.763 -0.0001 -0.9767 -2.2331
   41DOPE  H12S 5223   1.782   4.021  13.851  0.3387  0.3911  0.5395
   41DOPE  C213 5224   1.758   3.939  13.644 -0.2936 -0.1630 -0.1353
   41DOPE  H13R 5225   1.860   3.897  13.629 -0.4150 -0.0323 -1.4062
   41DOPE  H13S 5226   1.744   3.986  13.544  0.8868  1.3390  0.3515
   41DOPE  C214 5227   1.656   3.823  13.646  0.1217  0.7362  0.3716
   41DOPE  H14R 5228   1.629   3.787  13.544 -0.8062  0.2769  0.7659
   41DOPE  H14S 5229   1.558   3.859  13.683 -1.2505 -0.6751 -1.7090
   41DOPE  C215 5230   1.697   3.702  13.732  0.7833 -0.1997 -0.0661
   41DOPE  H15R 5231   1.608   3.637  13.725 -1.1262  2.2559  0.0640
   41DOPE  H15S 5232   1.711   3.740  13.836  1.0071 -0.1621 -0.1081
   41DOPE  C216 5233   1.825   3.634  13.691  0.5530  0.4607  0.0967
   41DOPE  H16R 5234   1.848   3.553  13.763 -0.8845 -1.3274 -1.3494
   41DOPE  H16S 5235   1.911   3.704  13.692 -2.3390  4.3307  0.1391
   41DOPE  C217 5236   1.813   3.576  13.550 -0.7399 -0.2906  0.1289
   41DOPE  H17R 5237   1.777   3.649  13.475  2.9563  2.3937  0.6728
   41DOPE  H17S 5238   1.745   3.488  13.552 -1.3138  0.1287 -0.4328
   41DOPE  C218 5239   1.953   3.542  13.490 -0.3989  0.4460 -0.5294
   41DOPE  H18R 5240   2.029   3.624  13.493  1.3665 -1.1299 -0.0381
   41DOPE  H18S 5241   1.939   3.518  13.383  1.6093 -0.2855 -0.6842
   41DOPE  H18T 5242   1.994   3.461  13.554 -2.3245 -0.9272 -0.9661
   41DOPE   C33 5243   1.617   4.423  13.137  0.2420  0.0829 -0.5013
   41DOPE   H3X 5244   1.511   4.450  13.158  0.5359  1.2637 -0.4572
   41DOPE   H3Y 5245   1.676   4.480  13.211 -1.9053  2.1736 -0.2768
   41DOPE   C34 5246   1.654   4.279  13.165  0.0186 -0.0510  0.0077
   41DOPE   H4X 5247   1.756   4.243  13.139 -0.3181  0.0987 -1.6583
   41DOPE   H4Y 5248   1.652   4.268  13.275 -0.4216  2.5106  0.3021
   41DOPE   C35 5249   1.552   4.180  13.102 -0.2300 -0.7686  0.0687
   41DOPE   H5X 5250   1.577   4.148  12.999 -2.6096 -0.4703 -0.6668
   41DOPE   H5Y 5251   1.451   4.226  13.101  0.4305  0.7361  0.4448
   41DOPE   C36 5252   1.557   4.051  13.190  0.1518  0.8302  0.2663
   41DOPE   H6X 5253   1.531   4.083  13.293  0.2653 -1.5632  1.0857
   41DOPE   H6Y 5254   1.654   4.000  13.174 -0.8137 -0.8928 -0.2761
   41DOPE   C37 5255   1.452   3.946  13.139 -0.0244  0.2282 -0.2020
   41DOPE   H7X 5256   1.351   3.990  13.157 -0.2388 -0.2669 -0.1925
   41DOPE   H7Y 5257   1.456   3.940  13.028  0.3524  1.9530 -0.3092
   41DOPE   C38 5258   1.465   3.803  13.203  1.1451  0.3044 -0.8044
   41DOPE   H8X 5259   1.569   3.765  13.215 -0.0508 -3.1498 -0.2790
   41DOPE   H8Y 5260   1.412   3.736  13.132  0.8824 -0.9721  0.5522
   41DOPE   C39 5261   1.400   3.797  13.337  0.5880 -0.4277  0.0060
   41DOPE   H9X 5262   1.375   3.890  13.390 -0.6518 -0.6702 -0.1364
   41DOPE  C310 5263   1.344   3.683  13.378  0.2554 -0.5791 -0.2516
   41DOPE  H10X 5264   1.284   3.696  13.469 -0.5524  0.5186 -0.9169
   41DOPE  C311 5265   1.338   3.546  13.314 -0.3379  0.4149  0.3516
   41DOPE  H11X 5266   1.234   3.509  13.317  0.3118 -1.5695  3.9319
   41DOPE  H11Y 5267   1.370   3.542  13.207  0.4454 -0.5870  0.6051
   41DOPE  C312 5268   1.429   3.441  13.390  0.1652 -0.8120  0.1194
   41DOPE  H12X 5269   1.531   3.483  13.407 -0.6378  0.3738  2.4547
   41DOPE  H12Y 5270   1.439   3.349  13.328  2.1870  0.5348 -1.7015
   41DOPE  C313 5271   1.361   3.405  13.527  0.1713 -0.3441 -0.1238
   41DOPE  H13X 5272   1.400   3.475  13.604  0.0887 -1.7698  1.2559
   41DOPE  H13Y 5273   1.251   3.417  13.516  0.2115  0.2976  0.1145
   41DOPE  C314 5274   1.382   3.260  13.562  0.0021  1.0235 -0.3049
   41DOPE  H14X 5275   1.349   3.193  13.480  1.1299  2.0718 -1.6655
   41DOPE  H14Y 5276   1.319   3.250  13.653  0.9711  0.5393  0.3336
   41DOPE  C315 5277   1.524   3.238  13.606  0.3750  0.2055 -0.1772
   41DOPE  H15X 5278   1.545   3.312  13.687  1.0319 -1.1229  0.9094
   41DOPE  H15Y 5279   1.587   3.256  13.517 -1.0663  1.6997 -0.9615
   41DOPE  C316 5280   1.552   3.113  13.671 -0.5545 -0.0954 -0.1592
   41DOPE  H16X 5281   1.559   3.033  13.595 -0.7161  0.6610 -0.9856
   41DOPE  H16Y 5282   1.464   3.080  13.731  0.4140 -1.5006  0.5323
   41DOPE  C317 5283   1.686   3.133  13.751  0.3062  0.0462  0.4619
   41DOPE  H17X 5284   1.659   3.156  13.856  0.4273  0.9098  0.3085
   41DOPE  H17Y 5285   1.723   3.030  13.771  1.1784  0.6099  1.9037
   41DOPE  C318 5286   1.800   3.217  13.683  0.3803 -0.4492  0.5150
   41DOPE  H18X 5287   1.817   3.196  13.575 -0.8607  1.6806 -0.1695
   41DOPE  H18Y 5288   1.782   3.327  13.692 -0.9817 -0.4311 -1.4804
   41DOPE  H18Z 5289   1.891   3.190  13.739  0.7681 -0.1952  0.0167
   42DOPE     N 5290   0.213   4.219  12.521  0.9584  0.2034  0.2005
   42DOPE   HN1 5291   0.162   4.297  12.568  2.5208  2.1831 -1.2175
   42DOPE   HN2 5292   0.233   4.255  12.426  1.7324 -1.0715 -0.1380
   42DOPE   HN3 5293   0.158   4.131  12.523 -0.0011  0.7762 -0.2789
   42DOPE   C12 5294   0.345   4.187  12.583  0.6143  0.3271  0.4423
   42DOPE  H12A 5295   0.377   4.084  12.557  0.1271  0.5892 -1.3253
   42DOPE  H12B 5296   0.330   4.191  12.693 -0.2141 -0.4962  0.3706
   42DOPE   C11 5297   0.448   4.304  12.561 -0.2492  0.2994  0.1316
   42DOPE  H11A 5298   0.537   4.273  12.619 -0.3162 -0.6467 -0.2558
   42DOPE  H11B 5299   0.403   4.395  12.608 -0.5009 -0.2224  0.9161
   42DOPE     P 5300   0.576   4.233  12.340 -0.1792 -0.3045  0.2202
   42DOPE   O13 5301   0.573   4.276  12.197 -0.0202 -0.5778 -0.0495
   42DOPE   O14 5302   0.572   4.088  12.367  0.9475 -0.1626 -0.3561
   42DOPE   O11 5303   0.716   4.283  12.393 -0.1077 -0.0682 -0.0184
   42DOPE   O12 5304   0.471   4.326  12.420 -0.7923  0.3686  0.1513
   42DOPE    C1 5305   0.756   4.417  12.432 -0.0028 -0.1539  0.7261
   42DOPE    HA 5306   0.818   4.415  12.524  0.4330 -1.0388  0.4302
   42DOPE    HB 5307   0.667   4.477  12.460 -1.6919 -0.2627 -3.6293
   42DOPE    C2 5308   0.832   4.495  12.324  0.2045 -0.3569 -0.1656
   42DOPE    HS 5309   0.777   4.460  12.234 -0.9487 -0.2757  0.4942
   42DOPE   O21 5310   0.968   4.442  12.331  0.7365 -0.4496 -0.0532
   42DOPE   C21 5311   1.038   4.437  12.222  0.3610 -0.0025  0.4366
   42DOPE   O22 5312   0.999   4.487  12.113 -0.2100 -0.2819 -0.1837
   42DOPE   C22 5313   1.165   4.355  12.236 -0.1526 -0.2406 -0.2785
   42DOPE   H2R 5314   1.145   4.253  12.197 -2.2001 -0.2287  0.6219
   42DOPE   H2S 5315   1.184   4.334  12.343  0.5628 -2.8477 -0.8339
   42DOPE    C3 5316   0.815   4.649  12.326  0.2330  0.3837 -0.2782
   42DOPE    HX 5317   0.708   4.677  12.313  0.1759  0.5229  0.4758
   42DOPE    HY 5318   0.856   4.688  12.230 -1.4751  1.6165 -0.5560
   42DOPE   O31 5319   0.867   4.712  12.441  0.5705 -0.0002 -0.1756
   42DOPE   C31 5320   0.979   4.781  12.424 -0.0654 -0.1117 -0.4581
   42DOPE   O32 5321   1.049   4.779  12.324 -1.0863 -0.1599  0.1643
   42DOPE   C32 5322   1.010   4.867  12.550 -0.6404 -0.6731  0.2776
   42DOPE   H2X 5323   1.120   4.878  12.558 -0.7937  0.8367  0.6096
   42DOPE   H2Y 5324   0.974   4.969  12.524  1.3208 -0.3502 -1.4621
   42DOPE   C23 5325   1.288   4.422  12.163  0.1915 -0.1487  0.7312
   42DOPE   H3R 5326   1.296   4.526  12.200 -2.3579  0.1478  0.6326
   42DOPE   H3S 5327   1.267   4.403  12.056 -0.7071  1.6662  0.5412
   42DOPE   C24 5328   1.416   4.356  12.201 -0.5040 -0.4359 -0.7550
   42DOPE   H4R 5329   1.493   4.398  12.133 -2.0986  2.1780 -1.1013
   42DOPE   H4S 5330   1.396   4.247  12.187 -0.0211 -0.6309  0.0045
   42DOPE   C25 5331   1.472   4.370  12.348  0.6277 -0.7749 -0.2396
   42DOPE   H5R 5332   1.397   4.333  12.421 -0.6295 -0.6870 -1.4331
   42DOPE   H5S 5333   1.486   4.480  12.351 -0.3667 -0.5765 -1.5411
   42DOPE   C26 5334   1.595   4.280  12.357 -0.3751 -0.1693 -0.1540
   42DOPE   H6R 5335   1.676   4.319  12.293 -0.0657 -0.5823 -0.0182
   42DOPE   H6S 5336   1.561   4.179  12.323  1.3653 -0.5344 -0.8987
   42DOPE   C27 5337   1.635   4.262  12.507  0.2455  0.4318  0.2136
   42DOPE   H7R 5338   1.537   4.249  12.558 -0.3121  1.7507 -0.4701
   42DOPE   H7S 5339   1.678   4.361  12.534  0.7356 -0.2158  1.9740
   42DOPE   C28 5340   1.733   4.149  12.536  0.1050 -0.5440 -0.7386
   42DOPE   H8R 5341   1.780   4.156  12.636 -0.7526 -0.0414 -0.3658
   42DOPE   H8S 5342   1.815   4.162  12.461 -0.0393 -1.5090 -1.0756
   42DOPE   C29 5343   1.674   4.017  12.515  0.1055 -0.3110  0.1839
   42DOPE   H9R 5344   1.677   3.975  12.413  1.5820  0.5041 -0.1461
   42DOPE  C210 5345   1.613   3.946  12.609  0.4388 -0.5831  0.6062
   42DOPE  H10R 5346   1.585   3.842  12.586  1.2620 -1.2227  2.2759
   42DOPE  C211 5347   1.599   3.979  12.755  0.3597  0.0126  0.1934
   42DOPE  H11R 5348   1.494   3.953  12.781 -0.0595  0.8843 -0.5920
   42DOPE  H11S 5349   1.611   4.088  12.768  1.3462  0.0273 -0.6997
   42DOPE  C212 5350   1.700   3.897  12.840  0.1065  0.0732  0.1193
   42DOPE  H12R 5351   1.707   3.944  12.940  0.4598 -2.1079  1.1808
   42DOPE  H12S 5352   1.802   3.910  12.798 -0.6716  0.1313 -1.8293
   42DOPE  C213 5353   1.654   3.754  12.862 -0.4256 -0.2299 -0.3800
   42DOPE  H13R 5354   1.642   3.698  12.767  0.8682 -0.5430 -0.3808
   42DOPE  H13S 5355   1.556   3.756  12.915  0.6615 -1.9662  1.9083
   42DOPE  C214 5356   1.744   3.683  12.964  0.2142  0.0855 -0.0805
   42DOPE  H14R 5357   1.730   3.727  13.065  0.1397 -1.1687  0.4751
   42DOPE  H14S 5358   1.853   3.685  12.943  0.3414 -0.7159  0.4847
   42DOPE  C215 5359   1.701   3.530  12.980 -0.6678 -0.5320  0.4111
   42DOPE  H15R 5360   1.749   3.478  12.894 -1.6298 -0.9678  0.1172
   42DOPE  H15S 5361   1.591   3.516  12.981 -0.5720 -1.3246  0.9308
   42DOPE  C216 5362   1.752   3.479  13.121 -0.5814 -0.1463  1.2645
   42DOPE  H16R 5363   1.689   3.517  13.205 -1.5972 -3.0487  1.9500
   42DOPE  H16S 5364   1.859   3.504  13.133  0.2130 -0.9454 -2.6742
   42DOPE  C217 5365   1.730   3.332  13.131  0.3094  0.2141  1.1355
   42DOPE  H17R 5366   1.797   3.294  13.050  0.2334  1.6323  0.3734
   42DOPE  H17S 5367   1.625   3.306  13.106  0.7927 -0.0983 -0.7591
   42DOPE  C218 5368   1.765   3.273  13.269 -0.4676 -0.5283 -0.9324
   42DOPE  H18R 5369   1.739   3.332  13.359  3.2191 -0.4876  0.2709
   42DOPE  H18S 5370   1.876   3.275  13.269 -0.3339  3.5974  1.7634
   42DOPE  H18T 5371   1.719   3.172  13.274 -2.0339  0.2012  0.1026
   42DOPE   C33 5372   0.952   4.805  12.681  0.2447  0.3125 -0.0269
   42DOPE   H3X 5373   0.990   4.701  12.691 -1.7638 -0.3902  0.9045
   42DOPE   H3Y 5374   0.843   4.784  12.673  0.2190  0.7860 -1.0024
   42DOPE   C34 5375   1.007   4.878  12.803 -0.2198  0.0085 -0.6369
   42DOPE   H4X 5376   1.118   4.882  12.802 -0.2395  0.4857 -0.8135
   42DOPE   H4Y 5377   0.962   4.978  12.821 -0.6075 -0.1812 -0.5356
   42DOPE   C35 5378   0.995   4.793  12.931  0.4685  0.2626 -0.2787
   42DOPE   H5X 5379   1.065   4.707  12.918 -0.1877 -0.1211 -1.4152
   42DOPE   H5Y 5380   0.892   4.754  12.943  0.7890 -0.0535  2.0918
   42DOPE   C36 5381   1.027   4.875  13.068 -0.4653  0.0108  0.6913
   42DOPE   H6X 5382   0.967   4.967  13.051  0.6300  0.4509 -1.0909
   42DOPE   H6Y 5383   1.135   4.900  13.075 -0.0195 -1.6384  0.3796
   42DOPE   C37 5384   0.980   4.782  13.188 -0.0739 -0.0301  0.8247
   42DOPE   H7X 5385   0.960   4.856  13.268  1.4327  2.1460 -0.6841
   42DOPE   H7Y 5386   0.889   4.726  13.157  0.6641 -0.6259 -0.3448
   42DOPE   C38 5387   1.095   4.686  13.220  0.8019 -0.6003  0.2573
   42DOPE   H8X 5388   1.187   4.743  13.240  0.7637 -0.5161  0.1946
   42DOPE   H8Y 5389   1.120   4.625  13.131  0.3776 -1.1040  0.4750
   42DOPE   C39 5390   1.055   4.594  13.329  0.6901  0.0173 -0.4295
   42DOPE   H9X 5391   1.067   4.628  13.433  1.4322 -2.8917  0.5380
   42DOPE  C310 5392   1.008   4.467  13.316 -0.2860 -0.2350  0.8013
   42DOPE  H10X 5393   0.966   4.423  13.408 -1.5078 -1.7764 -0.4378
   42DOPE  C311 5394   0.994   4.384  13.191  0.7541 -0.6421 -0.0773
   42DOPE  H11X 5395   0.892   4.344  13.172 -0.0355  0.4544  1.6428
   42DOPE  H11Y 5396   0.989   4.460  13.110  2.3746  1.2283  1.4756
   42DOPE  C312 5397   1.104   4.284  13.155 -0.2314 -0.2056  0.0207
   42DOPE  H12X 5398   1.124   4.203  13.228  0.1872  0.9470  1.2370
   42DOPE  H12Y 5399   1.202   4.336  13.158  0.0187 -0.6770  0.0034
   42DOPE  C313 5400   1.093   4.217  13.014  0.2904  0.4283 -0.0475
   42DOPE  H13X 5401   1.172   4.139  13.000 -1.0513 -1.0523  0.3768
   42DOPE  H13Y 5402   0.994   4.170  12.999 -0.2063  2.0756 -2.5056
   42DOPE  C314 5403   1.099   4.316  12.899  0.2760 -0.0772 -0.2966
   42DOPE  H14X 5404   1.031   4.402  12.916  0.8229  0.6569 -1.6262
   42DOPE  H14Y 5405   1.065   4.263  12.807 -1.7774 -0.5138  0.6500
   42DOPE  C315 5406   1.244   4.372  12.858  0.2443 -0.5237 -1.2205
   42DOPE  H15X 5407   1.308   4.283  12.837 -1.0976 -2.1670  1.1067
   42DOPE  H15Y 5408   1.284   4.419  12.950 -0.0737 -1.7428 -0.4312
   42DOPE  C316 5409   1.237   4.467  12.734 -0.3554 -0.3074 -0.5357
   42DOPE  H16X 5410   1.183   4.555  12.774 -0.5658 -1.1418  1.1036
   42DOPE  H16Y 5411   1.177   4.420  12.654  4.2913 -0.4820 -4.3618
   42DOPE  C317 5412   1.375   4.506  12.690 -0.1813  0.1041  0.3857
   42DOPE  H17X 5413   1.435   4.541  12.777 -0.0191 -0.0270  0.3293
   42DOPE  H17Y 5414   1.418   4.410  12.653 -0.3730  0.8257 -1.8572
   42DOPE  C318 5415   1.373   4.613  12.585 -0.0640 -0.6262 -0.0853
   42DOPE  H18X 5416   1.337   4.712  12.619  0.0577 -0.0230 -1.6045
   42DOPE  H18Y 5417   1.478   4.626  12.552  0.6573 -0.7323  2.0225
   42DOPE  H18Z 5418   1.313   4.577  12.498  0.1606  0.3825 -0.6744
   43DOPE     N 5419   0.369   2.426  12.564  0.9770  0.1031 -0.0156
   43DOPE   HN1 5420   0.287   2.419  12.500  1.2051 -0.1564 -0.2872
   43DOPE   HN2 5421   0.384   2.326  12.587 -1.5881 -0.0905  1.0327
   43DOPE   HN3 5422   0.324   2.473  12.644 -0.8770  1.0993 -1.5686
   43DOPE   C12 5423   0.493   2.491  12.514 -1.3162 -1.1501 -0.3498
   43DOPE  H12A 5424   0.490   2.488  12.403 -0.3333 -1.5500 -0.3738
   43DOPE  H12B 5425   0.578   2.425  12.543 -0.0138 -0.5145 -2.4860
   43DOPE   C11 5426   0.496   2.632  12.568 -0.5396  0.1096  0.1345
   43DOPE  H11A 5427   0.589   2.677  12.527 -1.2586  1.6562  0.1239
   43DOPE  H11B 5428   0.513   2.641  12.677  2.4129  1.5016 -0.3515
   43DOPE     P 5429   0.382   2.815  12.417 -0.2345  0.1851 -0.0410
   43DOPE   O13 5430   0.250   2.863  12.382 -0.1183  0.0813 -0.1560
   43DOPE   O14 5431   0.460   2.748  12.309  0.0373  0.6187 -0.1686
   43DOPE   O11 5432   0.483   2.924  12.472  0.5887 -0.0901 -0.2725
   43DOPE   O12 5433   0.378   2.706  12.538 -0.1424 -0.2596 -0.0600
   43DOPE    C1 5434   0.421   3.031  12.548  0.4130 -0.4850  0.9702
   43DOPE    HA 5435   0.334   2.993  12.607 -1.0166  0.8211 -0.2075
   43DOPE    HB 5436   0.374   3.103  12.477  1.8984 -1.1872 -0.7824
   43DOPE    C2 5437   0.510   3.119  12.635 -0.2317  0.0436 -0.4427
   43DOPE    HS 5438   0.584   3.175  12.575 -1.3343  3.7581  1.3343
   43DOPE   O21 5439   0.579   3.028  12.724 -0.2065 -0.6589  0.1825
   43DOPE   C21 5440   0.678   3.088  12.791  0.0296 -0.2620 -0.1415
   43DOPE   O22 5441   0.720   3.201  12.773  0.6389 -0.0108 -0.2405
   43DOPE   C22 5442   0.727   2.992  12.898  0.6425 -0.7189  0.6157
   43DOPE   H2R 5443   0.832   3.019  12.925  0.1759  3.2735 -0.8343
   43DOPE   H2S 5444   0.724   2.889  12.858  2.1330 -1.2314  1.7201
   43DOPE    C3 5445   0.436   3.229  12.720 -0.0356 -0.0306  0.1446
   43DOPE    HX 5446   0.391   3.294  12.642 -0.7471 -1.1028 -0.3594
   43DOPE    HY 5447   0.507   3.295  12.775  2.9944 -0.2899 -3.1210
   43DOPE   O31 5448   0.340   3.169  12.809  0.0023 -0.2443 -0.3831
   43DOPE   C31 5449   0.258   3.255  12.862  0.7765 -0.8576  0.1352
   43DOPE   O32 5450   0.256   3.373  12.833 -0.7673  0.1030 -0.3602
   43DOPE   C32 5451   0.172   3.193  12.972 -1.2602 -0.0164 -0.6089
   43DOPE   H2X 5452   0.095   3.271  12.988  0.5790  1.4800  1.6787
   43DOPE   H2Y 5453   0.119   3.104  12.932 -4.3776  1.6947 -0.6239
   43DOPE   C23 5454   0.634   3.011  13.015  0.6287 -0.3534 -0.2853
   43DOPE   H3R 5455   0.533   2.989  12.973 -0.2025  2.0608  0.3139
   43DOPE   H3S 5456   0.602   3.110  13.053 -0.7507 -1.0319  0.4200
   43DOPE   C24 5457   0.669   2.929  13.141  0.4755 -0.1879 -0.7429
   43DOPE   H4R 5458   0.751   2.994  13.180 -0.2413  0.2369  0.1085
   43DOPE   H4S 5459   0.716   2.836  13.105  0.5564 -0.0695 -0.9468
   43DOPE   C25 5460   0.557   2.893  13.239 -0.5520  0.2285  0.5910
   43DOPE   H5R 5461   0.491   2.817  13.191  0.7168 -0.9758  0.6824
   43DOPE   H5S 5462   0.504   2.986  13.271 -1.5729 -0.4125  0.8348
   43DOPE   C26 5463   0.611   2.820  13.366 -0.0959  0.6964 -0.2278
   43DOPE   H6R 5464   0.703   2.872  13.401 -1.0785  2.6023 -0.3112
   43DOPE   H6S 5465   0.632   2.713  13.347 -0.3437  0.7443 -0.7797
   43DOPE   C27 5466   0.514   2.835  13.487 -0.0658  0.0875  0.1938
   43DOPE   H7R 5467   0.416   2.791  13.457 -0.3097  0.4371  0.4705
   43DOPE   H7S 5468   0.491   2.943  13.499 -0.2071  0.0635  0.1448
   43DOPE   C28 5469   0.565   2.757  13.617  0.5238 -0.2809  0.4008
   43DOPE   H8R 5470   0.653   2.814  13.654  1.0252 -0.4276 -0.5329
   43DOPE   H8S 5471   0.610   2.664  13.577 -0.4170 -1.1129  1.2230
   43DOPE   C29 5472   0.465   2.735  13.731  0.1064  0.1973 -0.0035
   43DOPE   H9R 5473   0.406   2.643  13.724 -0.4114  0.0772  3.8704
   43DOPE  C210 5474   0.444   2.812  13.842 -0.6112  0.0173 -0.2956
   43DOPE  H10R 5475   0.362   2.780  13.908 -0.1248  0.7933  0.7182
   43DOPE  C211 5476   0.506   2.943  13.883 -0.2657 -0.8565 -0.3879
   43DOPE  H11R 5477   0.433   3.027  13.881  0.2519 -0.3946 -2.3497
   43DOPE  H11S 5478   0.587   2.971  13.812  0.7794 -0.7696  0.8256
   43DOPE  C212 5479   0.577   2.939  14.016  0.1527 -0.1514 -0.7090
   43DOPE  H12R 5480   0.659   2.864  14.009 -1.4401 -2.4043  2.3894
   43DOPE  H12S 5481   0.517   2.898  14.099  0.7103 -0.9242 -0.6722
   43DOPE  C213 5482   0.637   3.079  14.058  0.1921 -0.6145  0.5130
   43DOPE  H13R 5483   0.550   3.147  14.065  0.3971  0.1549 -2.6470
   43DOPE  H13S 5484   0.691   3.110  13.965 -0.7901 -1.1295 -0.2447
   43DOPE  C214 5485   0.726   3.092  14.179  0.3789  0.3660 -0.0946
   43DOPE  H14R 5486   0.820   3.033  14.173 -0.2089 -0.6545  0.3533
   43DOPE  H14S 5487   0.669   3.049  14.265 -0.2847  0.7945 -0.3099
   43DOPE  C215 5488   0.775   3.240  14.211 -0.6619  0.5158 -0.2709
   43DOPE  H15R 5489   0.688   3.305  14.233 -0.6303 -0.2352  2.4725
   43DOPE  H15S 5490   0.821   3.279  14.118 -0.6076 -1.8259 -1.2857
   43DOPE  C216 5491   0.883   3.269  14.314 -0.2012  1.2861 -0.7034
   43DOPE  H16R 5492   0.975   3.223  14.270 -1.6749 -1.0176 -1.5500
   43DOPE  H16S 5493   0.864   3.218  14.411  2.7566  1.3907  0.0276
   43DOPE  C217 5494   0.898   3.410  14.355 -0.6223 -0.6310 -0.5266
   43DOPE  H17R 5495   0.976   3.415  14.434 -0.4021 -0.1774 -0.7671
   43DOPE  H17S 5496   0.804   3.432  14.411 -0.8090 -0.9375 -0.7175
   43DOPE  C218 5497   0.907   3.511  14.244 -0.3833  0.8002  0.4652
   43DOPE  H18R 5498   0.991   3.492  14.174 -0.9769  1.4391 -0.4448
   43DOPE  H18S 5499   0.924   3.609  14.294  3.3370  2.3056 -3.1495
   43DOPE  H18T 5500   0.818   3.512  14.177  1.0600 -1.1885 -1.6371
   43DOPE   C33 5501   0.256   3.148  13.091 -0.6914  0.5650 -0.5034
   43DOPE   H3X 5502   0.304   3.232  13.145 -1.1289  1.5183 -1.5544
   43DOPE   H3Y 5503   0.329   3.068  13.068  0.0556  0.3028  2.3876
   43DOPE   C34 5504   0.169   3.068  13.193 -0.7421  0.8414 -0.1188
   43DOPE   H4X 5505   0.077   3.128  13.209 -0.9146  0.9179 -1.3469
   43DOPE   H4Y 5506   0.143   2.973  13.141  2.9933 -1.2304  1.3205
   43DOPE   C35 5507   0.229   3.045  13.327 -0.6136 -0.0157 -0.1649
   43DOPE   H5X 5508   0.291   3.130  13.364 -1.2892  0.6707 -0.5805
   43DOPE   H5Y 5509   0.302   2.961  13.334  0.7700  1.2540  1.7676
   43DOPE   C36 5510   0.120   3.003  13.420  0.1234 -0.0759  0.0234
   43DOPE   H6X 5511   0.049   2.931  13.374  1.0394 -1.7925  1.2272
   43DOPE   H6Y 5512   0.065   3.100  13.423 -1.5516 -0.9882  0.0019
   43DOPE   C37 5513   0.189   2.935  13.539 -0.3136 -0.3871 -0.5602
   43DOPE   H7X 5514   0.206   2.828  13.514 -0.8532 -0.6572  0.1798
   43DOPE   H7Y 5515   0.286   2.987  13.553  0.1842 -0.8441 -2.1072
   43DOPE   C38 5516   0.100   2.935  13.669  0.0226 -0.6340  0.3982
   43DOPE   H8X 5517   0.052   3.035  13.668 -2.3918 -1.6633  1.8121
   43DOPE   H8Y 5518   0.183   2.929  13.743  1.0303 -0.0898 -0.6614
   43DOPE   C39 5519  -0.001   2.826  13.686  0.3527 -0.0197  0.2250
   43DOPE   H9X 5520  -0.053   2.810  13.590  0.7690 -0.7266  0.1078
   43DOPE  C310 5521  -0.028   2.749  13.791  0.0690  0.0413 -0.9000
   43DOPE  H10X 5522  -0.106   2.672  13.785  1.2468 -1.0969 -3.1065
   43DOPE  C311 5523   0.058   2.766  13.919  1.2880 -0.5559  0.3776
   43DOPE  H11X 5524   0.153   2.710  13.907  2.8741  1.8873  0.8630
   43DOPE  H11Y 5525   0.084   2.873  13.931 -2.8573  0.8749 -1.2922
   43DOPE  C312 5526  -0.013   2.720  14.047 -0.2660 -0.6927  0.1554
   43DOPE  H12X 5527  -0.104   2.777  14.074  0.0895 -0.7417  1.5613
   43DOPE  H12Y 5528   0.065   2.745  14.122 -0.8379  1.0906  0.2037
   43DOPE  C313 5529  -0.052   2.578  14.058  0.1099  0.1766 -0.0279
   43DOPE  H13X 5530  -0.131   2.571  13.980 -0.4176  3.8678 -0.0081
   43DOPE  H13Y 5531   0.035   2.512  14.041  2.4524  3.6836 -2.9850
   43DOPE  C314 5532  -0.103   2.531  14.195  0.3492  0.1960  0.1999
   43DOPE  H14X 5533  -0.028   2.558  14.273 -0.3826 -1.8035  1.6882
   43DOPE  H14Y 5534  -0.094   2.422  14.212 -0.6223  0.3056  1.5455
   43DOPE  C315 5535  -0.248   2.589  14.236 -0.1296  0.4556  0.3020
   43DOPE  H15X 5536  -0.325   2.562  14.160 -0.8232  1.1033  0.7680
   43DOPE  H15Y 5537  -0.244   2.700  14.241 -0.5870  0.5469 -1.0201
   43DOPE  C316 5538  -0.272   2.529  14.374  0.2150 -0.6873  0.4090
   43DOPE  H16X 5539  -0.192   2.568  14.441  0.5263  2.0974 -1.3932
   43DOPE  H16Y 5540  -0.268   2.418  14.378 -2.7941 -0.8401  1.7090
   43DOPE  C317 5541  -0.404   2.580  14.444  0.1030 -0.0691 -0.1794
   43DOPE  H17X 5542  -0.398   2.691  14.453 -0.3436 -0.1535  1.3959
   43DOPE  H17Y 5543  -0.490   2.565  14.374 -1.5071  3.0857  0.9111
   43DOPE  C318 5544  -0.437   2.515  14.580  0.3007 -0.1071 -0.1464
   43DOPE  H18X 5545  -0.422   2.406  14.565  0.0194  0.1487 -2.6443
   43DOPE  H18Y 5546  -0.363   2.563  14.647  0.5223 -1.0476  0.2993
   43DOPE  H18Z 5547  -0.536   2.547  14.618  0.4073  0.3378 -0.2434
   44DOPE     N 5548   2.196   1.762  11.976 -1.2261 -0.0483  0.6118
   44DOPE   HN1 5549   2.175   1.734  12.073  1.5755 -1.9984  0.7995
   44DOPE   HN2 5550   2.108   1.765  11.921 -1.5475 -0.2046  1.1151
   44DOPE   HN3 5551   2.245   1.681  11.933  0.1027  1.2339 -0.3920
   44DOPE   C12 5552   2.279   1.890  11.967 -0.1878  0.1431  0.2407
   44DOPE  H12A 5553   2.222   1.985  11.968  0.7990  0.8129 -1.6882
   44DOPE  H12B 5554   2.319   1.887  11.864  0.3732  1.0882  0.4183
   44DOPE   C11 5555   2.407   1.882  12.060 -1.3694  0.5373 -1.0701
   44DOPE  H11A 5556   2.366   1.882  12.163  2.6703 -0.7351  0.7295
   44DOPE  H11B 5557   2.474   1.970  12.052  0.4679 -0.8465 -1.7087
   44DOPE     P 5558   2.470   1.633  12.123 -0.1866  0.1522 -0.2659
   44DOPE   O13 5559   2.577   1.557  12.063 -1.0699  0.1878  0.4916
   44DOPE   O14 5560   2.328   1.584  12.131  0.2697  0.3957  0.5488
   44DOPE   O11 5561   2.514   1.688  12.268 -0.3053  0.1194 -0.0587
   44DOPE   O12 5562   2.477   1.760  12.037 -0.4642 -0.7816 -0.1889
   44DOPE    C1 5563   2.643   1.751  12.295 -0.1393  0.2491  0.5094
   44DOPE    HA 5564   2.632   1.832  12.370  2.3124 -0.9820  2.3582
   44DOPE    HB 5565   2.688   1.797  12.205 -0.5920 -4.3479 -2.4067
   44DOPE    C2 5566   2.738   1.639  12.351 -0.2973 -0.0898 -0.2440
   44DOPE    HS 5567   2.751   1.562  12.272  2.2754 -0.2023  0.1961
   44DOPE   O21 5568   2.667   1.586  12.461 -0.4484 -0.5270 -0.2816
   44DOPE   C21 5569   2.716   1.475  12.508  0.1536 -0.0243  0.4122
   44DOPE   O22 5570   2.799   1.406  12.450  0.5093  0.0048  0.2623
   44DOPE   C22 5571   2.670   1.454  12.652  0.6375  0.1912  0.1488
   44DOPE   H2R 5572   2.593   1.375  12.640 -1.2750  2.1131 -0.8705
   44DOPE   H2S 5573   2.624   1.546  12.693 -0.4517 -1.1950  2.2650
   44DOPE    C3 5574   2.888   1.694  12.374  1.2834  0.1116  0.1853
   44DOPE    HX 5575   2.922   1.721  12.272  1.2100  0.9197  0.3670
   44DOPE    HY 5576   2.954   1.615  12.416  0.4075 -0.0831  1.2383
   44DOPE   O31 5577   2.885   1.805  12.464 -0.2514 -0.0157 -0.3878
   44DOPE   C31 5578   3.009   1.842  12.496 -0.7925 -0.2720  0.5422
   44DOPE   O32 5579   3.110   1.780  12.465  0.1042 -0.3679  0.0220
   44DOPE   C32 5580   3.006   1.959  12.589 -0.4780  0.9176  0.7553
   44DOPE   H2X 5581   3.100   2.014  12.565 -0.8859  1.1316 -0.3877
   44DOPE   H2Y 5582   2.915   2.015  12.560 -1.7815 -1.5100 -0.1605
   44DOPE   C23 5583   2.778   1.425  12.760  0.3120 -0.1419 -1.6325
   44DOPE   H3R 5584   2.830   1.329  12.739  1.3926  0.8144 -3.6322
   44DOPE   H3S 5585   2.721   1.419  12.854  0.5197  2.3245 -1.2794
   44DOPE   C24 5586   2.893   1.526  12.768 -0.3894  1.2619 -1.0148
   44DOPE   H4R 5587   2.839   1.619  12.798 -1.9931  0.8259 -2.3568
   44DOPE   H4S 5588   2.939   1.542  12.668  0.9897  1.4299 -0.3736
   44DOPE   C25 5589   3.001   1.477  12.866  0.2846 -0.9981  0.4381
   44DOPE   H5R 5590   2.970   1.439  12.965  1.1386 -0.7125  0.8270
   44DOPE   H5S 5591   3.061   1.568  12.885  0.4234 -1.1035  0.5014
   44DOPE   C26 5592   3.096   1.376  12.798 -0.0331  0.0860  0.6430
   44DOPE   H6R 5593   3.039   1.281  12.792  0.3540 -0.0790 -0.6528
   44DOPE   H6S 5594   3.186   1.370  12.864  0.4521 -0.0742 -0.0292
   44DOPE   C27 5595   3.137   1.410  12.651  0.4665 -0.6578 -0.6174
   44DOPE   H7R 5596   3.171   1.515  12.636 -3.7685  0.8007 -1.4967
   44DOPE   H7S 5597   3.050   1.388  12.585 -0.7310 -0.6066  0.8884
   44DOPE   C28 5598   3.259   1.326  12.611 -0.3489  0.2587 -0.6206
   44DOPE   H8R 5599   3.260   1.361  12.505 -0.7864 -3.3459 -1.9708
   44DOPE   H8S 5600   3.232   1.219  12.622 -1.4052  0.4616 -1.1300
   44DOPE   C29 5601   3.386   1.353  12.696  0.5196 -0.2134  0.0434
   44DOPE   H9R 5602   3.440   1.444  12.665  1.0808 -0.8446 -0.8622
   44DOPE  C210 5603   3.450   1.288  12.790  0.0201  0.0395 -0.3738
   44DOPE  H10R 5604   3.538   1.339  12.831 -0.0245 -0.2518  0.0877
   44DOPE  C211 5605   3.422   1.151  12.843 -0.0266  0.1058  0.1224
   44DOPE  H11R 5606   3.489   1.089  12.779 -1.1682 -0.9031 -0.1158
   44DOPE  H11S 5607   3.319   1.120  12.816  0.1752 -0.5010  0.0450
   44DOPE  C212 5608   3.434   1.112  12.993  0.1183 -0.2848  0.9127
   44DOPE  H12R 5609   3.396   1.008  13.001 -3.0092  0.8521  2.3673
   44DOPE  H12S 5610   3.366   1.184  13.043  1.0101  0.2406  1.3835
   44DOPE  C213 5611   3.574   1.110  13.067  0.1635  0.4911 -0.5189
   44DOPE  H13R 5612   3.636   1.200  13.047 -1.4629  1.9586  0.6404
   44DOPE  H13S 5613   3.634   1.023  13.036  0.4720  1.0836 -1.6303
   44DOPE  C214 5614   3.555   1.096  13.218  0.0191  0.0129 -0.2546
   44DOPE  H14R 5615   3.478   1.025  13.256 -0.2100  0.7224  0.6512
   44DOPE  H14S 5616   3.531   1.193  13.266  0.4868  0.0605 -0.1039
   44DOPE  C215 5617   3.682   1.051  13.292 -0.4497  0.0536 -0.3572
   44DOPE  H15R 5618   3.766   1.111  13.250 -1.6765  1.9797 -0.2017
   44DOPE  H15S 5619   3.696   0.941  13.280  1.2202  0.0503  1.2346
   44DOPE  C216 5620   3.678   1.084  13.440  0.2595  0.2553  0.0258
   44DOPE  H16R 5621   3.587   1.047  13.492  0.3906  2.4942  2.0380
   44DOPE  H16S 5622   3.679   1.194  13.457 -1.1308  0.3368 -0.3300
   44DOPE  C217 5623   3.792   1.026  13.517  0.3993  0.9369 -0.0888
   44DOPE  H17R 5624   3.889   1.003  13.468  0.9660  0.2748  1.2890
   44DOPE  H17S 5625   3.767   0.925  13.557  3.4008  1.0081  2.3724
   44DOPE  C218 5626   3.819   1.112  13.637 -0.2026  0.0504  0.2146
   44DOPE  H18R 5627   3.910   1.078  13.691  1.0133 -0.2383 -1.9103
   44DOPE  H18S 5628   3.738   1.125  13.712 -0.2117  0.3253  0.1587
   44DOPE  H18T 5629   3.856   1.211  13.604 -2.1484  1.3088  1.5960
   44DOPE   C33 5630   3.005   1.902  12.730  0.2573  0.1255 -0.8062
   44DOPE   H3X 5631   3.102   1.850  12.741  0.2519  0.3015  0.1546
   44DOPE   H3Y 5632   2.919   1.831  12.734 -1.0818  1.7181  0.0407
   44DOPE   C34 5633   2.975   1.998  12.842 -0.7008 -0.2808 -0.3321
   44DOPE   H4X 5634   3.057   2.073  12.845 -1.2457  0.3113  0.1952
   44DOPE   H4Y 5635   2.877   2.049  12.828 -0.2795  1.4052  2.1389
   44DOPE   C35 5636   2.976   1.936  12.986  0.2266 -0.7700  0.3126
   44DOPE   H5X 5637   2.883   1.878  13.002 -0.8808  1.4054  2.2847
   44DOPE   H5Y 5638   2.978   2.018  13.061  1.1981 -0.8828  0.4248
   44DOPE   C36 5639   3.090   1.849  13.018 -0.8312  0.4794  0.3346
   44DOPE   H6X 5640   3.188   1.890  12.985 -0.7884 -0.6799 -1.1170
   44DOPE   H6Y 5641   3.083   1.754  12.961 -0.1637  0.8003 -0.3035
   44DOPE   C37 5642   3.117   1.803  13.163 -0.0229  0.4101 -0.1796
   44DOPE   H7X 5643   3.153   1.893  13.218 -1.0519  0.1736  0.9471
   44DOPE   H7Y 5644   3.032   1.755  13.216  0.3348  0.9368  0.9024
   44DOPE   C38 5645   3.247   1.709  13.162  0.4315 -0.2417  0.0679
   44DOPE   H8X 5646   3.297   1.747  13.254 -0.6783 -1.4499  1.2275
   44DOPE   H8Y 5647   3.316   1.749  13.085 -0.6370  1.2695 -0.1373
   44DOPE   C39 5648   3.220   1.566  13.146  0.7194 -0.3203 -0.1734
   44DOPE   H9X 5649   3.117   1.549  13.110  1.4741 -0.7734 -2.2635
   44DOPE  C310 5650   3.317   1.471  13.134  0.4662  0.4543  0.4036
   44DOPE  H10X 5651   3.296   1.364  13.118 -1.2898  0.7913  0.2297
   44DOPE  C311 5652   3.468   1.503  13.147  0.1233  0.2762  0.2289
   44DOPE  H11X 5653   3.539   1.437  13.092 -0.1036 -0.3286  0.6646
   44DOPE  H11Y 5654   3.482   1.601  13.095 -0.3256 -0.0738 -0.5665
   44DOPE  C312 5655   3.515   1.511  13.288 -0.0025 -0.6400  0.5549
   44DOPE  H12X 5656   3.496   1.418  13.346 -1.2964  0.8666  2.6824
   44DOPE  H12Y 5657   3.468   1.601  13.332  0.2777  0.2696 -0.9440
   44DOPE  C313 5658   3.666   1.530  13.315 -0.1213  0.4125  0.2512
   44DOPE  H13X 5659   3.700   1.442  13.256 -0.6622  0.2979  0.1039
   44DOPE  H13Y 5660   3.714   1.621  13.273  1.0013 -0.0365  0.5316
   44DOPE  C314 5661   3.689   1.538  13.466  0.5636 -0.3046 -0.5383
   44DOPE  H14X 5662   3.645   1.448  13.513  1.4860 -0.7640 -0.5374
   44DOPE  H14Y 5663   3.659   1.639  13.503  2.1136  0.0512 -0.1767
   44DOPE  C315 5664   3.837   1.529  13.499 -1.1375  0.3623 -0.3339
   44DOPE  H15X 5665   3.888   1.602  13.433  1.2955 -1.8282 -1.0631
   44DOPE  H15Y 5666   3.861   1.425  13.467 -0.3435  0.5924 -0.5026
   44DOPE  C316 5667   3.872   1.538  13.646  0.1559 -0.6425 -0.4314
   44DOPE  H16X 5668   3.808   1.467  13.703  1.4873 -1.1178  0.5210
   44DOPE  H16Y 5669   3.851   1.641  13.683 -0.1510 -1.0844  0.6743
   44DOPE  C317 5670   4.022   1.508  13.679 -0.3126 -0.9075 -0.3766
   44DOPE  H17X 5671   4.046   1.400  13.674  3.1068 -0.2883  0.0280
   44DOPE  H17Y 5672   4.085   1.566  13.607 -3.0423  0.5040 -1.7886
   44DOPE  C318 5673   4.049   1.567  13.813 -0.3627 -0.6382 -0.4286
   44DOPE  H18X 5674   4.037   1.677  13.811  0.8087 -0.4575  0.8143
   44DOPE  H18Y 5675   3.989   1.528  13.898  0.0416  2.0041  1.1775
   44DOPE  H18Z 5676   4.157   1.549  13.836  0.3608  2.0897 -1.3730
   45DOPE     N 5677   3.431   0.619  12.239  0.2353 -0.0437 -0.0025
   45DOPE   HN1 5678   3.448   0.530  12.188 -0.6478  0.6394 -1.5755
   45DOPE   HN2 5679   3.460   0.607  12.338 -0.8746  0.8727  0.4602
   45DOPE   HN3 5680   3.328   0.630  12.230  0.0222 -1.6524  0.0813
   45DOPE   C12 5681   3.517   0.730  12.179 -0.5800  0.2733 -0.0084
   45DOPE  H12A 5682   3.491   0.821  12.238 -0.3592  0.0926  0.3666
   45DOPE  H12B 5683   3.490   0.732  12.071  1.0704  0.5845 -0.4342
   45DOPE   C11 5684   3.669   0.703  12.196 -1.1324  0.3361  0.2722
   45DOPE  H11A 5685   3.681   0.702  12.307 -2.2052  0.5947  0.4061
   45DOPE  H11B 5686   3.736   0.788  12.171  0.6312 -0.6464  1.3975
   45DOPE     P 5687   3.834   0.498  12.179  0.1741 -0.3055 -0.0038
   45DOPE   O13 5688   3.859   0.401  12.076 -0.5931  0.4045 -0.0059
   45DOPE   O14 5689   3.818   0.449  12.311 -0.0023 -0.2097 -0.7605
   45DOPE   O11 5690   3.947   0.606  12.178  0.5683 -0.7051 -0.0472
   45DOPE   O12 5691   3.715   0.585  12.139  0.5174  0.2400 -0.0657
   45DOPE    C1 5692   4.071   0.588  12.230  0.2143 -0.2982 -0.5236
   45DOPE    HA 5693   4.139   0.596  12.142 -1.1298  0.9183 -1.5023
   45DOPE    HB 5694   4.091   0.506  12.303 -1.7266  1.0504  1.6334
   45DOPE    C2 5695   4.115   0.710  12.321  0.5102 -0.4522  0.2257
   45DOPE    HS 5696   4.211   0.684  12.371  0.7229  0.8531  0.5178
   45DOPE   O21 5697   4.005   0.744  12.404  0.4442  0.7455 -0.5876
   45DOPE   C21 5698   3.987   0.647  12.501  0.1153 -0.5609 -0.6455
   45DOPE   O22 5699   4.062   0.561  12.527  0.0783  0.1540 -0.5978
   45DOPE   C22 5700   3.857   0.670  12.581 -0.1348 -0.1622  0.4873
   45DOPE   H2R 5701   3.838   0.584  12.649 -1.3420  1.0570  1.7721
   45DOPE   H2S 5702   3.781   0.665  12.501 -0.1885  3.0936  0.2156
   45DOPE    C3 5703   4.153   0.833  12.233 -0.4308 -0.4787 -0.2580
   45DOPE    HX 5704   4.070   0.850  12.161  0.4233  1.5669 -0.8157
   45DOPE    HY 5705   4.241   0.803  12.171  0.2930  0.8574  0.0789
   45DOPE   O31 5706   4.169   0.962  12.301 -0.3540  0.0526  0.0942
   45DOPE   C31 5707   4.287   0.970  12.349  0.2030 -0.2400 -0.0389
   45DOPE   O32 5708   4.373   0.881  12.349 -0.3798 -0.1975  0.2051
   45DOPE   C32 5709   4.318   1.116  12.386  0.9564  0.1807 -0.2080
   45DOPE   H2X 5710   4.380   1.152  12.301  0.3463  1.2151 -0.2351
   45DOPE   H2Y 5711   4.221   1.171  12.392  0.8709 -0.0456  0.5607
   45DOPE   C23 5712   3.841   0.798  12.662 -0.7115  0.7799  0.5962
   45DOPE   H3R 5713   3.935   0.830  12.710  0.9788 -0.3161 -1.7678
   45DOPE   H3S 5714   3.761   0.778  12.737 -2.9106 -1.1386 -2.0341
   45DOPE   C24 5715   3.790   0.912  12.574 -0.2209  0.6287 -0.2919
   45DOPE   H4R 5716   3.697   0.882  12.522  0.0849 -0.6516 -0.1314
   45DOPE   H4S 5717   3.850   0.931  12.483  1.2446 -1.5108  0.1422
   45DOPE   C25 5718   3.770   1.045  12.663  0.5354 -0.0818 -0.3053
   45DOPE   H5R 5719   3.731   1.018  12.764  0.7219 -1.9796 -0.6901
   45DOPE   H5S 5720   3.691   1.106  12.615  1.1834  0.1778 -1.0594
   45DOPE   C26 5721   3.898   1.118  12.675 -0.8665 -0.0993 -0.1156
   45DOPE   H6R 5722   3.919   1.173  12.580 -1.6197  2.0619  0.9054
   45DOPE   H6S 5723   3.981   1.045  12.675 -0.5318  0.2658 -0.9628
   45DOPE   C27 5724   3.914   1.220  12.781 -0.2058 -0.0867  0.2700
   45DOPE   H7R 5725   3.816   1.272  12.780 -0.1555  0.0109  0.3721
   45DOPE   H7S 5726   3.998   1.289  12.760  0.7809 -1.5074 -0.6354
   45DOPE   C28 5727   3.916   1.150  12.916  0.3302 -0.7015 -0.3419
   45DOPE   H8R 5728   3.989   1.067  12.904  1.9379  0.8098 -1.5717
   45DOPE   H8S 5729   3.816   1.102  12.922  0.4345 -1.3089 -2.4895
   45DOPE   C29 5730   3.942   1.251  13.031  0.3273  0.4595  0.0589
   45DOPE   H9R 5731   3.866   1.330  13.036  0.5143  0.6349  0.1606
   45DOPE  C210 5732   4.041   1.268  13.121  0.4163  0.2035  0.2052
   45DOPE  H10R 5733   4.021   1.333  13.207 -1.1696 -1.8272  1.4957
   45DOPE  C211 5734   4.163   1.187  13.139  0.1265  0.1320  0.2371
   45DOPE  H11R 5735   4.251   1.254  13.142  0.1406  0.0951  0.7458
   45DOPE  H11S 5736   4.180   1.115  13.056  1.2242 -2.3604  2.4806
   45DOPE  C212 5737   4.174   1.105  13.273 -0.1823  0.0582 -0.2825
   45DOPE  H12R 5738   4.263   1.041  13.258 -1.3815 -2.2639  1.6962
   45DOPE  H12S 5739   4.079   1.053  13.300 -0.3585  0.4572 -0.1298
   45DOPE  C213 5740   4.206   1.198  13.401  0.3517  0.1159  0.5846
   45DOPE  H13R 5741   4.141   1.287  13.418 -0.6456 -0.7410  1.4628
   45DOPE  H13S 5742   4.308   1.237  13.383  0.3232  0.8582  1.8705
   45DOPE  C214 5743   4.205   1.118  13.525 -0.0989  0.4350 -0.0722
   45DOPE  H14R 5744   4.259   1.022  13.512 -0.5708  0.2792 -0.9148
   45DOPE  H14S 5745   4.100   1.086  13.540 -0.4801  1.3917 -0.6464
   45DOPE  C215 5746   4.251   1.181  13.648  0.0768 -0.0327 -0.6276
   45DOPE  H15R 5747   4.203   1.281  13.656 -1.2520 -0.7926  1.9224
   45DOPE  H15S 5748   4.359   1.200  13.632 -0.0679  1.0098 -0.4312
   45DOPE  C216 5749   4.224   1.105  13.780 -0.6201 -0.6406  0.0250
   45DOPE  H16R 5750   4.271   1.005  13.792  1.1890  0.0182 -1.1199
   45DOPE  H16S 5751   4.117   1.085  13.801 -0.3468 -1.1060  1.0421
   45DOPE  C217 5752   4.265   1.193  13.893 -0.0870 -0.1584  0.2161
   45DOPE  H17R 5753   4.207   1.288  13.881  0.9357  0.5510  0.7831
   45DOPE  H17S 5754   4.367   1.229  13.867  0.5882 -2.0092  0.1996
   45DOPE  C218 5755   4.265   1.137  14.036 -0.4889  0.0866 -0.1550
   45DOPE  H18R 5756   4.336   1.053  14.043 -0.5578  0.0777  0.4943
   45DOPE  H18S 5757   4.165   1.092  14.054  0.4802 -2.4003 -0.7290
   45DOPE  H18T 5758   4.294   1.211  14.115  1.8410 -1.2821  0.3590
   45DOPE   C33 5759   4.388   1.144  12.524  0.3739 -0.0983  0.9174
   45DOPE   H3X 5760   4.373   1.254  12.532 -0.2570 -0.0642 -0.4129
   45DOPE   H3Y 5761   4.493   1.108  12.521 -0.5668 -3.2642  2.2735
   45DOPE   C34 5762   4.308   1.078  12.641 -0.4334  0.6096  0.6733
   45DOPE   H4X 5763   4.215   1.138  12.634 -1.8809 -1.7435 -1.9543
   45DOPE   H4Y 5764   4.287   0.975  12.605 -0.6619  1.3059 -1.2826
   45DOPE   C35 5765   4.378   1.078  12.778 -0.0043  0.4605 -0.0508
   45DOPE   H5X 5766   4.320   1.018  12.851 -1.8062  0.0203 -1.7524
   45DOPE   H5Y 5767   4.385   1.183  12.814 -1.8861  1.5273 -2.4587
   45DOPE   C36 5768   4.515   1.007  12.771  0.2350 -0.2136 -0.0738
   45DOPE   H6X 5769   4.579   1.041  12.687 -0.1544 -1.3842 -0.8728
   45DOPE   H6Y 5770   4.494   0.899  12.751  0.0440 -0.8649  3.0701
   45DOPE   C37 5771   4.603   1.011  12.895  0.1108  0.4026  0.5538
   45DOPE   H7X 5772   4.622   1.112  12.936 -0.5548  0.7996 -0.0807
   45DOPE   H7Y 5773   4.545   0.959  12.974 -1.6908  1.1637 -0.2107
   45DOPE   C38 5774   4.733   0.931  12.883  0.3780 -0.8328 -0.5292
   45DOPE   H8X 5775   4.792   0.980  12.803  0.8304  1.4843  1.1179
   45DOPE   H8Y 5776   4.719   0.827  12.848  1.4085 -1.8808  1.9075
   45DOPE   C39 5777   4.810   0.927  13.011 -0.1331 -0.7508 -0.5753
   45DOPE   H9X 5778   4.896   0.996  13.015 -0.1608 -0.6513 -1.4589
   45DOPE  C310 5779   4.797   0.840  13.111  0.4336  0.6226  0.3541
   45DOPE  H10X 5780   4.868   0.841  13.196 -0.5262  0.6917  1.1710
   45DOPE  C311 5781   4.708   0.718  13.132 -0.5407 -0.0048  0.4911
   45DOPE  H11X 5782   4.664   0.698  13.032  2.1606 -0.1719 -0.7698
   45DOPE  H11Y 5783   4.770   0.631  13.162  0.4020 -0.0510 -1.4133
   45DOPE  C312 5784   4.596   0.737  13.233 -0.0590  0.0076  0.0118
   45DOPE  H12X 5785   4.525   0.651  13.226 -0.6910  0.6095 -1.6053
   45DOPE  H12Y 5786   4.523   0.814  13.199 -0.7345 -0.3988  0.5072
   45DOPE  C313 5787   4.650   0.726  13.382  0.2144  0.3553  0.5114
   45DOPE  H13X 5788   4.685   0.620  13.380 -1.1319 -0.1670  2.3672
   45DOPE  H13Y 5789   4.716   0.808  13.416 -0.8021  0.5209  2.1379
   45DOPE  C314 5790   4.534   0.735  13.474 -0.0636 -0.0257 -0.3249
   45DOPE  H14X 5791   4.470   0.648  13.450 -3.4823  2.1582  0.1538
   45DOPE  H14Y 5792   4.476   0.825  13.442  0.0371 -0.3954 -1.6223
   45DOPE  C315 5793   4.575   0.759  13.619 -0.3035 -0.4210 -0.2852
   45DOPE  H15X 5794   4.625   0.857  13.631  0.8948 -1.1929  1.5720
   45DOPE  H15Y 5795   4.642   0.678  13.656  2.5189  1.8441 -0.1746
   45DOPE  C316 5796   4.453   0.748  13.707  0.1440 -0.3125 -0.3277
   45DOPE  H16X 5797   4.399   0.658  13.671 -0.4655  0.7143 -2.0952
   45DOPE  H16Y 5798   4.386   0.835  13.689  1.8543  1.1670  0.2483
   45DOPE  C317 5799   4.491   0.735  13.852 -0.4546 -0.1162 -0.1491
   45DOPE  H17X 5800   4.400   0.722  13.914  0.7554 -0.5592  1.6297
   45DOPE  H17Y 5801   4.532   0.632  13.863  1.6402  0.2229 -3.3487
   45DOPE  C318 5802   4.582   0.844  13.910  0.0350 -0.0355  1.1470
   45DOPE  H18X 5803   4.526   0.940  13.900  0.0286 -0.1588 -0.2297
   45DOPE  H18Y 5804   4.614   0.840  14.016  1.4216 -0.2172  0.7361
   45DOPE  H18Z 5805   4.673   0.855  13.847  0.1598 -1.4541  1.0634
   46DOPE     N 5806   4.450   6.091  12.344  0.0432 -0.3030  0.6217
   46DOPE   HN1 5807   4.394   6.169  12.303  2.8760  0.5203 -2.0536
   46DOPE   HN2 5808   4.535   6.091  12.284 -0.0668 -0.8672  0.4579
   46DOPE   HN3 5809   4.402   5.999  12.342  1.6356 -1.1555  0.0209
   46DOPE   C12 5810   4.501   6.122  12.477  0.1001  0.6588  0.6347
   46DOPE  H12A 5811   4.572   6.044  12.510  0.1152  0.2078 -0.4322
   46DOPE  H12B 5812   4.416   6.123  12.549  0.1492  1.7183  0.6901
   46DOPE   C11 5813   4.565   6.263  12.481  0.4289 -0.6050  0.3344
   46DOPE  H11A 5814   4.660   6.265  12.424 -0.0223 -0.3239 -0.4351
   46DOPE  H11B 5815   4.583   6.284  12.588  2.2267  1.7373 -0.3524
   46DOPE     P 5816   4.328   6.394  12.491  0.3401  0.0658 -0.0720
   46DOPE   O13 5817   4.239   6.299  12.426 -0.3387  0.3665  0.1909
   46DOPE   O14 5818   4.296   6.536  12.477  0.0173  0.1098  0.1251
   46DOPE   O11 5819   4.343   6.357  12.644 -0.0769 -0.8679 -0.2893
   46DOPE   O12 5820   4.474   6.369  12.437  0.2413 -0.3064 -0.2670
   46DOPE    C1 5821   4.247   6.278  12.717 -0.8234  0.6409  0.2234
   46DOPE    HA 5822   4.258   6.172  12.686  0.7547  1.1368 -1.0723
   46DOPE    HB 5823   4.143   6.309  12.693 -1.0797 -0.9599 -0.9205
   46DOPE    C2 5824   4.279   6.281  12.869  0.6279 -0.1886 -0.4373
   46DOPE    HS 5825   4.247   6.382  12.903 -1.0098 -0.8290 -0.0314
   46DOPE   O21 5826   4.417   6.248  12.896  0.2297 -0.1698  0.2819
   46DOPE   C21 5827   4.471   6.328  12.992  0.2258  0.2344  0.2370
   46DOPE   O22 5828   4.403   6.400  13.065 -0.2193  0.8501  0.1654
   46DOPE   C22 5829   4.626   6.321  12.979 -0.3253  0.1400 -0.4735
   46DOPE   H2R 5830   4.651   6.345  12.874  0.1328  1.5709 -0.0532
   46DOPE   H2S 5831   4.652   6.217  13.010 -0.2594  0.8033  1.9322
   46DOPE    C3 5832   4.193   6.182  12.952 -0.2989  0.3892 -0.4207
   46DOPE    HX 5833   4.227   6.207  13.054  1.1430  0.6498 -0.9460
   46DOPE    HY 5834   4.213   6.077  12.921  2.8174  1.2138 -1.5150
   46DOPE   O31 5835   4.051   6.205  12.923  0.0770 -0.6884  0.0983
   46DOPE   C31 5836   3.996   6.303  12.989 -0.5280 -0.6166 -0.4337
   46DOPE   O32 5837   4.056   6.378  13.067  0.2093  0.0823 -0.2408
   46DOPE   C32 5838   3.848   6.316  12.960  0.3963  0.0833 -0.6261
   46DOPE   H2X 5839   3.836   6.290  12.853  3.6438  1.1197 -1.3597
   46DOPE   H2Y 5840   3.779   6.258  13.025 -1.4088  1.3639 -1.3073
   46DOPE   C23 5841   4.694   6.423  13.079 -0.4992  0.5708  0.2165
   46DOPE   H3R 5842   4.671   6.531  13.069  2.2046  1.1272 -0.7486
   46DOPE   H3S 5843   4.801   6.414  13.053 -0.0146  0.7091  2.0161
   46DOPE   C24 5844   4.673   6.377  13.228 -0.0147  0.1083 -0.1564
   46DOPE   H4R 5845   4.704   6.271  13.235 -1.1417 -0.2177  0.1076
   46DOPE   H4S 5846   4.574   6.385  13.278 -0.3487 -1.4508 -0.5250
   46DOPE   C25 5847   4.773   6.442  13.328 -0.1398  0.3113  0.1248
   46DOPE   H5R 5848   4.745   6.550  13.332  1.6408  0.7890  0.5082
   46DOPE   H5S 5849   4.873   6.437  13.281  0.4801 -0.3386  1.4733
   46DOPE   C26 5850   4.780   6.379  13.465  0.5595 -0.2833  0.5545
   46DOPE   H6R 5851   4.776   6.268  13.456  2.0207 -0.6066  2.9575
   46DOPE   H6S 5852   4.698   6.410  13.533  0.5636  0.0003  0.4323
   46DOPE   C27 5853   4.921   6.399  13.529  1.1968  0.1550 -0.0034
   46DOPE   H7R 5854   4.935   6.505  13.557  1.8484  0.2666 -0.6944
   46DOPE   H7S 5855   4.992   6.363  13.451  0.1298  1.3135 -1.5832
   46DOPE   C28 5856   4.937   6.314  13.658  0.8139 -0.4494  0.3367
   46DOPE   H8R 5857   4.895   6.214  13.638 -1.3428  0.4130  0.3566
   46DOPE   H8S 5858   4.873   6.368  13.731  0.3116  0.4700 -0.7583
   46DOPE   C29 5859   5.077   6.304  13.702 -0.3826  0.1899  0.1794
   46DOPE   H9R 5860   5.132   6.399  13.709 -0.8271  0.6684 -2.0236
   46DOPE  C210 5861   5.158   6.198  13.718 -0.3800 -0.2009  0.0437
   46DOPE  H10R 5862   5.263   6.216  13.747 -0.6056 -0.5875  1.1877
   46DOPE  C211 5863   5.113   6.059  13.688 -0.3400 -0.0283  0.6023
   46DOPE  H11R 5864   5.174   6.017  13.605 -0.5616  0.2114  0.3151
   46DOPE  H11S 5865   5.007   6.041  13.661 -0.3477  0.9654 -0.1123
   46DOPE  C212 5866   5.136   5.972  13.812 -0.0868  0.3468  0.0243
   46DOPE  H12R 5867   5.239   5.967  13.856 -0.5278 -0.3503  1.0327
   46DOPE  H12S 5868   5.105   5.867  13.792 -1.1480  0.3464  1.5082
   46DOPE  C213 5869   5.049   6.023  13.930 -0.8335 -0.3853  0.4688
   46DOPE  H13R 5870   4.943   6.004  13.902 -0.8365  1.5366 -1.0176
   46DOPE  H13S 5871   5.063   6.131  13.952 -0.6149 -0.3165  0.0107
   46DOPE  C214 5872   5.089   5.937  14.056 -0.1785  0.9066 -0.0524
   46DOPE  H14R 5873   5.181   5.990  14.091  0.5989  0.0231 -0.7095
   46DOPE  H14S 5874   5.119   5.834  14.028 -0.3609  0.2049  2.1238
   46DOPE  C215 5875   4.978   5.927  14.154 -0.4586  0.3448 -1.3966
   46DOPE  H15R 5876   4.896   5.866  14.111 -1.1204 -0.1162  0.3972
   46DOPE  H15S 5877   4.942   6.032  14.161 -0.5168  0.4065 -2.5374
   46DOPE  C216 5878   5.014   5.869  14.291  0.5111  0.8250  0.2271
   46DOPE  H16R 5879   5.076   5.935  14.356  0.7607 -0.4803  1.3544
   46DOPE  H16S 5880   5.071   5.778  14.264 -1.0494  0.0270 -0.5090
   46DOPE  C217 5881   4.884   5.830  14.357  0.1525  0.3800  0.8758
   46DOPE  H17R 5882   4.828   5.764  14.288  1.8094 -1.0193  0.7836
   46DOPE  H17S 5883   4.821   5.919  14.377  1.3746  1.2460  1.0044
   46DOPE  C218 5884   4.909   5.748  14.484 -0.1153  0.1223 -0.0350
   46DOPE  H18R 5885   4.962   5.817  14.552 -0.4358  0.2062  0.1321
   46DOPE  H18S 5886   4.966   5.654  14.466 -1.1272 -0.5583  0.2091
   46DOPE  H18T 5887   4.816   5.731  14.544  0.5685  1.2734  1.3916
   46DOPE   C33 5888   3.796   6.464  12.969  0.9220  0.2638 -0.4871
   46DOPE   H3X 5889   3.701   6.466  12.911 -1.0005  2.7329  2.4343
   46DOPE   H3Y 5890   3.859   6.535  12.911 -0.3811  1.6473 -0.2634
   46DOPE   C34 5891   3.774   6.519  13.099 -0.5288  0.6127  0.2954
   46DOPE   H4X 5892   3.709   6.448  13.155  1.7364 -0.7786  1.3545
   46DOPE   H4Y 5893   3.867   6.503  13.158  0.4257 -1.3192 -1.5932
   46DOPE   C35 5894   3.710   6.654  13.127  0.1338  0.4931  0.1786
   46DOPE   H5X 5895   3.600   6.643  13.136  0.2173 -0.0884  0.6451
   46DOPE   H5Y 5896   3.723   6.722  13.041 -0.6081 -1.5809 -1.6626
   46DOPE   C36 5897   3.764   6.710  13.258 -0.0752  0.3102  0.2171
   46DOPE   H6X 5898   3.722   6.810  13.280 -1.0201 -0.1003  0.3301
   46DOPE   H6Y 5899   3.873   6.720  13.238 -0.4688  0.0033 -2.3275
   46DOPE   C37 5900   3.739   6.633  13.393 -0.4563  0.0605 -0.2971
   46DOPE   H7X 5901   3.632   6.640  13.423 -0.7357 -1.3425 -0.8647
   46DOPE   H7Y 5902   3.751   6.523  13.388 -2.0354 -0.1487 -0.1272
   46DOPE   C38 5903   3.837   6.690  13.499  0.0997 -0.5718 -0.2021
   46DOPE   H8X 5904   3.833   6.801  13.494  2.9585 -0.3517  0.7380
   46DOPE   H8Y 5905   3.939   6.657  13.471  0.4650  1.7090 -1.8836
   46DOPE   C39 5906   3.814   6.653  13.645  0.3016 -0.0699  0.0334
   46DOPE   H9X 5907   3.830   6.546  13.665  0.4936 -0.1850 -0.7352
   46DOPE  C310 5908   3.764   6.733  13.742 -0.6562 -0.1266  0.0349
   46DOPE  H10X 5909   3.743   6.679  13.836  0.2934 -2.7908 -1.1817
   46DOPE  C311 5910   3.725   6.875  13.734  0.1460  0.6675 -0.3103
   46DOPE  H11X 5911   3.795   6.933  13.798  1.3896  0.6432 -1.5961
   46DOPE  H11Y 5912   3.742   6.919  13.633 -1.4933  0.0468 -0.8818
   46DOPE  C312 5913   3.574   6.895  13.752 -0.4821  0.5886 -0.5052
   46DOPE  H12X 5914   3.540   6.836  13.665 -0.5845 -2.2612  1.3393
   46DOPE  H12Y 5915   3.546   7.001  13.732 -2.0788  0.3611  0.3342
   46DOPE  C313 5916   3.509   6.852  13.885 -0.5445  0.5810  0.0805
   46DOPE  H13X 5917   3.399   6.861  13.872 -0.7740 -0.5676  1.0949
   46DOPE  H13Y 5918   3.544   6.751  13.914 -0.9702  0.1984 -0.7037
   46DOPE  C314 5919   3.551   6.933  14.008  0.8327 -0.1815 -0.3706
   46DOPE  H14X 5920   3.584   7.034  13.975  2.6226 -0.2035  1.1562
   46DOPE  H14Y 5921   3.641   6.880  14.048  0.7128 -0.6027 -0.6513
   46DOPE  C315 5922   3.437   6.946  14.116 -0.0558 -0.0474  0.1368
   46DOPE  H15X 5923   3.362   7.004  14.057 -2.0009 -2.2217  0.3368
   46DOPE  H15Y 5924   3.486   7.001  14.199  1.2024 -1.4178  0.3386
   46DOPE  C316 5925   3.383   6.815  14.176  0.1083 -0.1701  0.2730
   46DOPE  H16X 5926   3.465   6.743  14.193 -1.8042 -2.3354  0.7637
   46DOPE  H16Y 5927   3.315   6.768  14.102  0.5448 -0.1526 -0.1498
   46DOPE  C317 5928   3.308   6.841  14.308 -0.9003 -0.6919  0.8935
   46DOPE  H17X 5929   3.379   6.887  14.380 -0.3345  0.7222 -0.5257
   46DOPE  H17Y 5930   3.228   6.916  14.286 -0.7054 -1.2420 -2.0488
   46DOPE  C318 5931   3.240   6.719  14.357 -0.3035  0.0110  0.5020
   46DOPE  H18X 5932   3.174   6.684  14.275 -0.7444  0.1753  0.7885
   46DOPE  H18Y 5933   3.317   6.644  14.389  0.1876 -0.1256 -0.9219
   46DOPE  H18Z 5934   3.178   6.753  14.442  1.1135 -0.4146  1.7512
   47DOPE     N 5935   1.864   5.281  12.834 -0.2340  0.2905  0.2333
   47DOPE   HN1 5936   1.828   5.357  12.896  0.4314  0.4106  0.4820
   47DOPE   HN2 5937   1.857   5.195  12.892 -2.4561  0.7432  0.7393
   47DOPE   HN3 5938   1.965   5.294  12.812 -0.6695  3.4586 -0.4120
   47DOPE   C12 5939   1.780   5.261  12.712 -0.2064 -0.3294  0.5971
   47DOPE  H12A 5940   1.688   5.214  12.753  0.9766 -3.4089  0.0165
   47DOPE  H12B 5941   1.827   5.175  12.658 -1.2141 -0.4257 -0.1454
   47DOPE   C11 5942   1.747   5.387  12.626  0.4518  0.4888  0.6258
   47DOPE  H11A 5943   1.675   5.362  12.545 -0.7081  3.2982  0.6659
   47DOPE  H11B 5944   1.838   5.424  12.572  0.7845  0.1086  0.9268
   47DOPE     P 5945   1.647   5.619  12.634 -0.0093 -0.4088 -0.3571
   47DOPE   O13 5946   1.509   5.594  12.572  0.0676 -0.2291  0.7973
   47DOPE   O14 5947   1.759   5.659  12.543 -0.0734 -0.2548 -0.2351
   47DOPE   O11 5948   1.643   5.725  12.750 -0.7654  0.3022 -0.0347
   47DOPE   O12 5949   1.691   5.487  12.709 -0.4786 -0.4281  0.1358
   47DOPE    C1 5950   1.769   5.777  12.806 -0.5539 -0.2115 -0.0858
   47DOPE    HA 5951   1.754   5.884  12.831  2.1459  0.1170  0.4963
   47DOPE    HB 5952   1.848   5.767  12.727 -1.5138 -0.8030 -1.0007
   47DOPE    C2 5953   1.824   5.697  12.927 -0.1027  0.2780  0.0530
   47DOPE    HS 5954   1.856   5.598  12.890  0.1371  0.6753 -0.8221
   47DOPE   O21 5955   1.719   5.688  13.034  0.5978  0.0645 -0.4346
   47DOPE   C21 5956   1.685   5.564  13.061 -0.3451 -0.0087 -0.0494
   47DOPE   O22 5957   1.736   5.462  13.026  0.5745 -0.2028 -0.2131
   47DOPE   C22 5958   1.573   5.565  13.174 -0.2905 -0.0752 -0.0822
   47DOPE   H2R 5959   1.489   5.508  13.129  1.2138 -2.9192  0.4739
   47DOPE   H2S 5960   1.544   5.670  13.199 -0.7055  0.1015 -1.2410
   47DOPE    C3 5961   1.952   5.761  12.990  0.0817  0.3881 -0.0438
   47DOPE    HX 5962   1.930   5.867  13.016  0.6797  0.7610 -0.9868
   47DOPE    HY 5963   2.032   5.768  12.912  0.3954  1.2073  0.3322
   47DOPE   O31 5964   1.995   5.683  13.109 -0.5687 -0.0860  0.2981
   47DOPE   C31 5965   2.111   5.626  13.112 -0.1850  0.2238 -0.4175
   47DOPE   O32 5966   2.200   5.629  13.030 -0.3867 -0.1437 -0.0621
   47DOPE   C32 5967   2.138   5.574  13.257  0.0621 -0.5644  0.6494
   47DOPE   H2X 5968   2.237   5.523  13.248 -0.6733 -1.7386 -1.2209
   47DOPE   H2Y 5969   2.152   5.667  13.316  2.4782  0.4845 -1.3755
   47DOPE   C23 5970   1.625   5.491  13.310 -0.3694 -0.1996  0.2930
   47DOPE   H3R 5971   1.556   5.490  13.397  0.5601 -0.7714  1.0431
   47DOPE   H3S 5972   1.723   5.534  13.339  0.4546 -2.7844  1.6758
   47DOPE   C24 5973   1.649   5.340  13.290  0.2933 -0.5198 -0.1767
   47DOPE   H4R 5974   1.723   5.318  13.209  2.3765  0.5784  1.3389
   47DOPE   H4S 5975   1.553   5.293  13.261  0.2351 -0.4185 -0.1456
   47DOPE   C25 5976   1.699   5.262  13.407 -0.2264  0.4758 -0.2810
   47DOPE   H5R 5977   1.633   5.254  13.496 -0.9806 -0.5392 -0.9088
   47DOPE   H5S 5978   1.783   5.317  13.455 -0.7878 -0.5876  2.0588
   47DOPE   C26 5979   1.732   5.117  13.385 -0.0150  0.1007 -0.3569
   47DOPE   H6R 5980   1.795   5.092  13.474 -1.7376  1.6122  1.3816
   47DOPE   H6S 5981   1.798   5.112  13.296 -2.1880 -0.6749 -2.0017
   47DOPE   C27 5982   1.608   5.034  13.377  0.2052 -0.8140 -0.4761
   47DOPE   H7R 5983   1.542   5.081  13.301 -0.1746 -0.5351  0.0237
   47DOPE   H7S 5984   1.550   5.051  13.470 -0.4619 -0.5685 -0.9313
   47DOPE   C28 5985   1.631   4.887  13.349 -0.2233  0.0100 -0.1627
   47DOPE   H8R 5986   1.688   4.850  13.437  0.6376 -0.1560 -0.7799
   47DOPE   H8S 5987   1.695   4.894  13.259 -2.4897  1.1239 -1.7958
   47DOPE   C29 5988   1.515   4.790  13.322  0.1770 -0.5373 -0.0488
   47DOPE   H9R 5989   1.451   4.823  13.239  1.6959 -2.0422 -1.9109
   47DOPE  C210 5990   1.488   4.672  13.388  0.2333 -0.3206 -0.2613
   47DOPE  H10R 5991   1.412   4.606  13.342 -0.8926  0.2946  0.6683
   47DOPE  C211 5992   1.562   4.611  13.507  0.1947  0.0842  0.5945
   47DOPE  H11R 5993   1.596   4.696  13.571 -1.6041  0.6985  0.7889
   47DOPE  H11S 5994   1.650   4.568  13.453 -0.1679  1.0773 -0.8366
   47DOPE  C212 5995   1.476   4.507  13.585  0.2282  0.1238 -0.2285
   47DOPE  H12R 5996   1.404   4.568  13.643  2.4620  1.6628  1.0897
   47DOPE  H12S 5997   1.537   4.462  13.667  0.5688  1.1320  0.0815
   47DOPE  C213 5998   1.417   4.399  13.501  0.8320  0.0301  0.0855
   47DOPE  H13R 5999   1.496   4.336  13.454  0.9299  1.3302 -1.6133
   47DOPE  H13S 6000   1.348   4.432  13.420 -0.0908 -0.3148  0.7198
   47DOPE  C214 6001   1.338   4.289  13.577  0.1576  0.5404 -0.9812
   47DOPE  H14R 6002   1.260   4.336  13.641 -0.3263  1.9025 -2.5266
   47DOPE  H14S 6003   1.408   4.229  13.641  1.5857  1.4570 -1.6237
   47DOPE  C215 6004   1.281   4.180  13.489 -0.2420 -0.2704 -0.0986
   47DOPE  H15R 6005   1.357   4.140  13.419  0.6318  2.1295 -0.6009
   47DOPE  H15S 6006   1.194   4.222  13.434 -0.8655 -0.8221  0.4354
   47DOPE  C216 6007   1.228   4.064  13.577  0.0457 -0.5264 -0.4014
   47DOPE  H16R 6008   1.186   4.116  13.666 -0.5440  2.4649 -2.2846
   47DOPE  H16S 6009   1.318   4.008  13.610 -2.2160 -3.9072  0.5544
   47DOPE  C217 6010   1.121   3.976  13.505  0.4300 -0.5454  0.0327
   47DOPE  H17R 6011   1.158   3.937  13.408 -0.4060 -4.6824  1.1830
   47DOPE  H17S 6012   1.034   4.044  13.497  0.1866 -1.0094 -1.7371
   47DOPE  C218 6013   1.072   3.863  13.580  0.0212 -0.6163 -0.0582
   47DOPE  H18R 6014   1.002   3.809  13.513 -1.5069  3.3958 -2.0157
   47DOPE  H18S 6015   1.012   3.902  13.666  1.2974  0.1916  0.4947
   47DOPE  H18T 6016   1.142   3.784  13.613 -0.0411  0.3646  2.6625
   47DOPE   C33 6017   2.033   5.473  13.304  0.3141  0.0892  0.4174
   47DOPE   H3X 6018   1.936   5.526  13.298 -0.9046 -1.9684  0.8626
   47DOPE   H3Y 6019   2.033   5.437  13.409 -0.1426 -0.7683  0.1355
   47DOPE   C34 6020   2.016   5.347  13.214 -0.3350 -0.3810 -0.6129
   47DOPE   H4X 6021   1.917   5.297  13.223 -2.1829  3.2353  1.1348
   47DOPE   H4Y 6022   2.031   5.375  13.107 -0.9630  0.3266 -0.5265
   47DOPE   C35 6023   2.121   5.250  13.254  0.7315  0.7478 -0.6971
   47DOPE   H5X 6024   2.221   5.296  13.242  0.7714  0.5647 -1.0834
   47DOPE   H5Y 6025   2.116   5.162  13.185  1.2662 -0.6636  0.9939
   47DOPE   C36 6026   2.104   5.193  13.399 -0.0857 -0.0515  0.3929
   47DOPE   H6X 6027   1.998   5.174  13.423 -0.0453 -1.0709 -0.1458
   47DOPE   H6Y 6028   2.142   5.275  13.463  0.2946 -0.3866  0.6034
   47DOPE   C37 6029   2.184   5.065  13.428 -0.3948 -0.4570 -0.2095
   47DOPE   H7X 6030   2.161   5.021  13.527 -0.7551  0.8379  0.3153
   47DOPE   H7Y 6031   2.155   4.999  13.345  0.0320  1.6353 -2.1303
   47DOPE   C38 6032   2.334   5.089  13.429 -0.4084  0.3193 -0.9241
   47DOPE   H8X 6033   2.355   5.119  13.534 -2.3335 -0.0138 -0.4029
   47DOPE   H8Y 6034   2.360   5.180  13.370 -1.0439  1.6929  0.8198
   47DOPE   C39 6035   2.421   4.975  13.368  0.3874  0.3989 -0.1098
   47DOPE   H9X 6036   2.414   4.964  13.258 -0.2955  0.8980 -0.1214
   47DOPE  C310 6037   2.480   4.883  13.444 -0.0157 -0.3952 -0.2663
   47DOPE  H10X 6038   2.534   4.801  13.393 -0.0351 -1.1139  0.8325
   47DOPE  C311 6039   2.463   4.881  13.596  0.0582  0.0659  0.5850
   47DOPE  H11X 6040   2.555   4.892  13.657  0.3079 -1.3891  0.5031
   47DOPE  H11Y 6041   2.394   4.959  13.633 -0.7990  0.9750 -2.5906
   47DOPE  C312 6042   2.396   4.755  13.636 -0.0046 -0.3062 -0.1103
   47DOPE  H12X 6043   2.475   4.684  13.602  1.8730  1.8635 -0.4818
   47DOPE  H12Y 6044   2.303   4.741  13.576  0.0789 -0.0301 -0.3017
   47DOPE  C313 6045   2.353   4.744  13.780  0.0771 -0.3724 -0.1396
   47DOPE  H13X 6046   2.439   4.755  13.850 -1.4213  2.2292  1.4657
   47DOPE  H13Y 6047   2.284   4.827  13.807  0.9975  0.2216  0.4663
   47DOPE  C314 6048   2.287   4.610  13.808  0.3300  0.2108 -0.1196
   47DOPE  H14X 6049   2.371   4.540  13.788  1.2151  0.5873  2.0885
   47DOPE  H14Y 6050   2.202   4.589  13.739  0.0565 -4.4657  1.3190
   47DOPE  C315 6051   2.250   4.596  13.962 -0.5200 -0.1074  0.0401
   47DOPE  H15X 6052   2.171   4.670  13.986 -2.7361 -2.2114 -0.4066
   47DOPE  H15Y 6053   2.340   4.633  14.015 -0.4006 -0.6072  0.1951
   47DOPE  C316 6054   2.194   4.459  13.989  0.1138  0.2534  0.3989
   47DOPE  H16X 6055   2.272   4.381  13.985  1.3152  1.4472 -0.2999
   47DOPE  H16Y 6056   2.122   4.448  13.905  1.0389 -2.0027 -0.1651
   47DOPE  C317 6057   2.121   4.447  14.123 -0.1587 -0.7022 -0.0210
   47DOPE  H17X 6058   2.181   4.459  14.216 -2.0838  1.4734  1.0443
   47DOPE  H17Y 6059   2.045   4.527  14.132  1.8878  1.3408  0.1302
   47DOPE  C318 6060   2.043   4.313  14.125 -0.4262  0.5016 -0.7148
   47DOPE  H18X 6061   1.989   4.312  14.029  1.1323  1.0956 -1.6484
   47DOPE  H18Y 6062   2.111   4.226  14.133 -1.2207 -0.0374  0.5173
   47DOPE  H18Z 6063   1.977   4.301  14.213  0.0620 -0.1152 -0.4215
   48DOPE     N 6064   6.632   3.189  12.412 -0.1742  0.4108  0.0629
   48DOPE   HN1 6065   6.679   3.199  12.504 -0.7002 -1.4901  0.5797
   48DOPE   HN2 6066   6.702   3.151  12.345 -0.6199 -0.7467  0.2332
   48DOPE   HN3 6067   6.595   3.284  12.391  0.4408  0.3049 -1.6630
   48DOPE   C12 6068   6.517   3.091  12.418 -0.3838  0.5050 -0.1889
   48DOPE  H12A 6069   6.505   3.056  12.313  2.5356  0.2882 -0.5172
   48DOPE  H12B 6070   6.423   3.139  12.452  0.2175 -0.0078  2.3958
   48DOPE   C11 6071   6.550   2.963  12.502 -0.7349 -0.0411 -0.4580
   48DOPE  H11A 6072   6.464   2.894  12.514  0.8461 -1.7201  2.3071
   48DOPE  H11B 6073   6.578   2.995  12.605  3.0079  0.2447 -1.4419
   48DOPE     P 6074   6.659   2.765  12.384  0.1739  0.0485 -0.1361
   48DOPE   O13 6075   6.797   2.726  12.346 -0.0455 -1.0424 -0.7164
   48DOPE   O14 6076   6.554   2.788  12.281 -0.0190 -0.3016  0.1111
   48DOPE   O11 6077   6.603   2.661  12.494 -0.2194  0.6629  1.0514
   48DOPE   O12 6078   6.673   2.899  12.467  0.6794 -0.1983 -0.3389
   48DOPE    C1 6079   6.685   2.648  12.613 -0.1287  0.1811  0.3024
   48DOPE    HA 6080   6.716   2.751  12.642  0.5030  0.9274 -2.6441
   48DOPE    HB 6081   6.778   2.588  12.599 -1.1452 -2.2864  3.1278
   48DOPE    C2 6082   6.612   2.586  12.735 -0.7072 -1.3267  0.1342
   48DOPE    HS 6083   6.681   2.574  12.822  1.3536 -0.0477 -1.2461
   48DOPE   O21 6084   6.556   2.454  12.707  0.0504 -0.6845 -0.0876
   48DOPE   C21 6085   6.641   2.355  12.696  0.2321 -0.5593  0.4460
   48DOPE   O22 6086   6.766   2.354  12.698  0.3438 -0.4508  0.3949
   48DOPE   C22 6087   6.561   2.224  12.691 -0.0809 -0.4501 -0.0624
   48DOPE   H2R 6088   6.455   2.244  12.664  0.8102  3.3088 -1.3783
   48DOPE   H2S 6089   6.563   2.185  12.795 -1.3112 -2.1963 -0.6467
   48DOPE    C3 6090   6.483   2.680  12.772 -0.7895 -0.0387 -0.0450
   48DOPE    HX 6091   6.416   2.693  12.685  2.5411  2.1261 -2.5518
   48DOPE    HY 6092   6.532   2.779  12.777 -0.7981 -0.0407  0.0742
   48DOPE   O31 6093   6.418   2.636  12.889  0.0461 -0.3699 -0.3500
   48DOPE   C31 6094   6.303   2.573  12.887 -0.3386 -0.4600 -0.0246
   48DOPE   O32 6095   6.238   2.550  12.786  0.4806  0.1192 -0.2295
   48DOPE   C32 6096   6.259   2.533  13.031  0.0089 -0.0065 -0.0035
   48DOPE   H2X 6097   6.185   2.451  13.020 -0.1112 -0.1357  1.5263
   48DOPE   H2Y 6098   6.353   2.495  13.075 -1.0691 -0.4083  2.0510
   48DOPE   C23 6099   6.620   2.121  12.590 -0.3082 -0.8352  0.3070
   48DOPE   H3R 6100   6.614   2.176  12.494 -1.1191  2.7723  2.2615
   48DOPE   H3S 6101   6.544   2.040  12.582 -0.4546 -0.5562 -1.8404
   48DOPE   C24 6102   6.757   2.061  12.618 -0.2214 -0.2070  0.3180
   48DOPE   H4R 6103   6.834   2.134  12.651 -2.0359  1.3209  1.3497
   48DOPE   H4S 6104   6.791   2.022  12.520  0.0195 -0.8919  0.6673
   48DOPE   C25 6105   6.752   1.938  12.717 -0.2482 -0.2510  1.0350
   48DOPE   H5R 6106   6.664   1.873  12.699  1.1915 -2.2451  0.8187
   48DOPE   H5S 6107   6.738   1.957  12.825  0.3959 -3.5870  1.8069
   48DOPE   C26 6108   6.876   1.851  12.702 -0.4254  0.4435  0.3897
   48DOPE   H6R 6109   6.888   1.815  12.598 -0.3555  1.9913 -0.1700
   48DOPE   H6S 6110   6.849   1.760  12.760 -3.2705  1.1707  0.3613
   48DOPE   C27 6111   7.005   1.910  12.753 -0.5077 -0.4861 -0.3622
   48DOPE   H7R 6112   6.988   1.996  12.821 -2.4472  1.3307 -2.9331
   48DOPE   H7S 6113   7.059   1.956  12.667  2.8333 -1.4428  1.0749
   48DOPE   C28 6114   7.103   1.807  12.807 -0.9227 -0.1800  0.1167
   48DOPE   H8R 6115   7.119   1.727  12.731 -0.1271  1.5114 -1.5818
   48DOPE   H8S 6116   7.067   1.780  12.909 -0.3069  0.6540  0.5603
   48DOPE   C29 6117   7.241   1.864  12.831 -0.0743  0.0827  1.0016
   48DOPE   H9R 6118   7.293   1.881  12.735 -1.4319 -1.3936 -0.0480
   48DOPE  C210 6119   7.295   1.895  12.951  0.0935  0.2915  0.4562
   48DOPE  H10R 6120   7.398   1.935  12.953  0.7725 -1.3901  1.2445
   48DOPE  C211 6121   7.236   1.886  13.090  0.7897 -0.3043 -0.5379
   48DOPE  H11R 6122   7.125   1.895  13.090  0.8890  1.3164 -0.2437
   48DOPE  H11S 6123   7.256   1.981  13.145  1.0916  0.4998 -1.9666
   48DOPE  C212 6124   7.288   1.763  13.174  0.5399  0.0217  0.1646
   48DOPE  H12R 6125   7.399   1.757  13.175  0.6466  0.8356 -2.0086
   48DOPE  H12S 6126   7.243   1.674  13.124 -0.1919  0.0641  0.7262
   48DOPE  C213 6127   7.226   1.766  13.316 -0.3407 -0.1012 -0.3535
   48DOPE  H13R 6128   7.116   1.773  13.314 -0.5713 -2.1892  1.2422
   48DOPE  H13S 6129   7.272   1.841  13.385  2.8968 -1.4982 -0.7975
   48DOPE  C214 6130   7.245   1.628  13.370  0.1303  0.4016 -0.4510
   48DOPE  H14R 6131   7.352   1.598  13.363 -0.1571 -0.7453 -0.1985
   48DOPE  H14S 6132   7.187   1.552  13.313  0.5809 -0.9678  0.8503
   48DOPE  C215 6133   7.192   1.619  13.516 -0.6684  0.1438  0.0850
   48DOPE  H15R 6134   7.084   1.648  13.516 -0.8164 -0.3622 -0.4007
   48DOPE  H15S 6135   7.250   1.690  13.577 -0.0819 -0.8919  0.7619
   48DOPE  C216 6136   7.229   1.483  13.574  0.6257  0.3282  0.2126
   48DOPE  H16R 6137   7.338   1.470  13.560  0.3474  0.6677 -3.1725
   48DOPE  H16S 6138   7.186   1.398  13.516 -1.1730 -0.4228  2.4774
   48DOPE  C217 6139   7.204   1.471  13.726 -0.6073 -0.4967 -0.2040
   48DOPE  H17R 6140   7.095   1.476  13.747 -0.2424 -0.4623  1.9672
   48DOPE  H17S 6141   7.256   1.557  13.775  0.5819 -1.8484  1.0213
   48DOPE  C218 6142   7.264   1.347  13.790  0.5830 -0.0316 -0.9938
   48DOPE  H18R 6143   7.189   1.324  13.869 -0.4038  0.3635 -1.7955
   48DOPE  H18S 6144   7.365   1.368  13.831  0.5485  0.8298 -1.3485
   48DOPE  H18T 6145   7.263   1.267  13.713  1.5608  0.5460 -1.6188
   48DOPE   C33 6146   6.210   2.648  13.126  0.6173 -0.2966 -0.3339
   48DOPE   H3X 6147   6.183   2.602  13.223 -0.6263 -0.2642 -0.6539
   48DOPE   H3Y 6148   6.124   2.701  13.081  0.7827 -0.7345 -1.1944
   48DOPE   C34 6149   6.318   2.755  13.162  0.2974  0.3519 -0.3540
   48DOPE   H4X 6150   6.383   2.784  13.077 -0.2407  0.7859 -0.6269
   48DOPE   H4Y 6151   6.283   2.854  13.196  0.5184 -0.0318  1.0280
   48DOPE   C35 6152   6.399   2.697  13.281 -0.8464 -0.0184 -0.0363
   48DOPE   H5X 6153   6.400   2.587  13.291  0.2896  0.0191  0.4260
   48DOPE   H5Y 6154   6.352   2.721  13.378 -2.0084 -1.4553 -0.2100
   48DOPE   C36 6155   6.549   2.739  13.276  0.5303  0.3386  0.2132
   48DOPE   H6X 6156   6.598   2.701  13.368 -0.4275 -0.2458  0.4969
   48DOPE   H6Y 6157   6.553   2.850  13.270  0.1085  0.4316  1.3283
   48DOPE   C37 6158   6.613   2.678  13.154 -0.1599  0.2359 -0.5073
   48DOPE   H7X 6159   6.595   2.568  13.151  1.1529 -0.0066 -3.2478
   48DOPE   H7Y 6160   6.575   2.732  13.064 -1.0225  1.2078  0.4160
   48DOPE   C38 6161   6.768   2.690  13.154  0.1327 -1.0519 -0.5299
   48DOPE   H8X 6162   6.807   2.638  13.244  0.0437  0.4859  0.4442
   48DOPE   H8Y 6163   6.789   2.798  13.171 -0.6402 -1.2761  2.4121
   48DOPE   C39 6164   6.829   2.642  13.029  0.4533 -0.6142  1.0066
   48DOPE   H9X 6165   6.829   2.724  12.956  1.2351  0.0324  1.7077
   48DOPE  C310 6166   6.866   2.517  13.006 -0.5509  0.1378  0.2792
   48DOPE  H10X 6167   6.916   2.487  12.913  0.5897 -0.3737  1.0354
   48DOPE  C311 6168   6.857   2.393  13.090 -0.4279 -0.4955  0.0602
   48DOPE  H11X 6169   6.950   2.332  13.098 -0.1489 -0.1533 -0.5410
   48DOPE  H11Y 6170   6.827   2.425  13.192  1.5012  1.5071  0.0545
   48DOPE  C312 6171   6.741   2.300  13.040 -0.2201 -0.6898  0.2340
   48DOPE  H12X 6172   6.755   2.274  12.933 -0.7989 -0.2310  0.0411
   48DOPE  H12Y 6173   6.644   2.353  13.036 -0.3743 -0.9456  0.5640
   48DOPE  C313 6174   6.725   2.171  13.120 -0.1325  0.4554  0.0998
   48DOPE  H13X 6175   6.640   2.105  13.094 -0.1687  0.6945 -0.4081
   48DOPE  H13Y 6176   6.817   2.110  13.107 -0.6852 -0.0348 -1.9725
   48DOPE  C314 6177   6.724   2.188  13.269 -0.0625 -0.2304 -0.1497
   48DOPE  H14X 6178   6.821   2.239  13.289 -1.1260  1.9946 -0.4487
   48DOPE  H14Y 6179   6.730   2.088  13.316 -1.3684  0.1782  0.9345
   48DOPE  C315 6180   6.607   2.273  13.329 -0.0990  0.4744  0.9445
   48DOPE  H15X 6181   6.509   2.231  13.297 -0.2660  0.3514  1.6040
   48DOPE  H15Y 6182   6.606   2.373  13.282 -2.2664  0.3874  0.7040
   48DOPE  C316 6183   6.604   2.277  13.484  0.6221  0.4930 -0.1453
   48DOPE  H16X 6184   6.534   2.355  13.522  1.8423  0.6940  1.8559
   48DOPE  H16Y 6185   6.709   2.298  13.514  0.0135  1.2533  1.6049
   48DOPE  C317 6186   6.537   2.150  13.542  0.7635  0.2810  0.1173
   48DOPE  H17X 6187   6.432   2.180  13.523  0.3666 -0.6275  0.7900
   48DOPE  H17Y 6188   6.551   2.054  13.489  1.2291  0.4998 -0.1641
   48DOPE  C318 6189   6.570   2.123  13.693 -0.1260 -0.0697 -0.2286
   48DOPE  H18X 6190   6.547   2.213  13.753  2.4578  0.3789  0.2052
   48DOPE  H18Y 6191   6.514   2.041  13.744 -0.6742 -0.4719 -1.4220
   48DOPE  H18Z 6192   6.679   2.101  13.696 -0.6909 -3.4737  0.2223
   49DOPE     N 6193   1.720   5.785  12.314 -0.7099  0.0842  0.2024
   49DOPE   HN1 6194   1.763   5.730  12.391  0.4801 -0.1918 -0.6307
   49DOPE   HN2 6195   1.700   5.725  12.231 -0.5422  0.2199  0.0629
   49DOPE   HN3 6196   1.801   5.843  12.285 -0.1384 -1.8204 -2.3832
   49DOPE   C12 6197   1.618   5.885  12.357 -0.0762 -0.2059  0.0373
   49DOPE  H12A 6198   1.550   5.828  12.424  0.6863 -2.3745 -0.9422
   49DOPE  H12B 6199   1.557   5.923  12.272 -0.3097 -0.9602 -0.1397
   49DOPE   C11 6200   1.679   6.002  12.436  0.4914 -0.0543 -0.1049
   49DOPE  H11A 6201   1.721   5.956  12.528  0.0858 -4.0149 -1.6721
   49DOPE  H11B 6202   1.594   6.068  12.463  0.3253 -0.1425 -0.4014
   49DOPE     P 6203   1.930   6.053  12.362  0.1372 -0.2353 -0.1511
   49DOPE   O13 6204   2.001   6.148  12.277  0.5863  0.4239 -0.0122
   49DOPE   O14 6205   1.955   5.916  12.326  0.4657  0.7121 -0.0829
   49DOPE   O11 6206   1.960   6.073  12.517  0.4849 -0.1750 -0.6564
   49DOPE   O12 6207   1.776   6.077  12.361  0.5766 -0.2604  0.8349
   49DOPE    C1 6208   1.958   6.196  12.599  0.0319 -0.0490  0.5827
   49DOPE    HA 6209   1.874   6.190  12.671 -0.3516 -3.1028  0.0175
   49DOPE    HB 6210   1.931   6.285  12.539  0.3161 -0.5969 -0.3889
   49DOPE    C2 6211   2.100   6.205  12.660 -0.3113  0.1818 -0.5073
   49DOPE    HS 6212   2.176   6.196  12.579  1.6344  0.6826  1.1810
   49DOPE   O21 6213   2.112   6.101  12.762  0.0751  0.3477 -0.5308
   49DOPE   C21 6214   2.239   6.052  12.768 -0.0545 -0.3631 -1.0347
   49DOPE   O22 6215   2.328   6.087  12.694  1.1786 -0.2591 -0.5632
   49DOPE   C22 6216   2.235   5.936  12.873 -0.0290  0.2969  0.2341
   49DOPE   H2R 6217   2.212   5.851  12.805  0.5354 -0.0892  0.5123
   49DOPE   H2S 6218   2.154   5.958  12.945  2.1614  4.1779  1.7918
   49DOPE    C3 6219   2.118   6.345  12.714  0.3721  0.0714 -0.0763
   49DOPE    HX 6220   2.031   6.368  12.779  0.4917  0.9858 -0.2184
   49DOPE    HY 6221   2.113   6.414  12.627  1.8845  1.0404  0.5715
   49DOPE   O31 6222   2.235   6.370  12.794  0.1026  0.2143  0.4513
   49DOPE   C31 6223   2.283   6.492  12.773  0.2452 -0.1762  0.3127
   49DOPE   O32 6224   2.226   6.586  12.726  0.4905 -0.3175  0.5191
   49DOPE   C32 6225   2.427   6.497  12.819  0.7436  0.1851 -0.1841
   49DOPE   H2X 6226   2.458   6.391  12.813  1.4313  0.2529  1.4945
   49DOPE   H2Y 6227   2.484   6.574  12.761 -0.0346 -0.1337 -1.4012
   49DOPE   C23 6228   2.365   5.900  12.950  0.1528  0.5738  0.4272
   49DOPE   H3R 6229   2.459   5.916  12.892  1.3751 -2.5793  1.3225
   49DOPE   H3S 6230   2.373   5.790  12.966  1.5037  0.4438 -0.8545
   49DOPE   C24 6231   2.391   5.966  13.084  0.7743  0.2119  1.2621
   49DOPE   H4R 6232   2.374   6.076  13.089 -1.0110  0.0793 -0.6635
   49DOPE   H4S 6233   2.499   5.950  13.107  0.9878 -0.9748 -0.4089
   49DOPE   C25 6234   2.306   5.906  13.194 -0.4442 -0.3083 -0.4399
   49DOPE   H5R 6235   2.332   5.798  13.201 -2.7559 -0.8478  0.5490
   49DOPE   H5S 6236   2.199   5.917  13.168 -0.5764 -2.2609 -0.9110
   49DOPE   C26 6237   2.342   5.976  13.330 -0.3758 -0.2833  0.0190
   49DOPE   H6R 6238   2.296   6.077  13.324 -1.7991 -0.9704 -1.2338
   49DOPE   H6S 6239   2.450   5.991  13.352  0.5996 -1.8627 -3.1864
   49DOPE   C27 6240   2.272   5.903  13.447 -0.3646 -0.6513  0.1342
   49DOPE   H7R 6241   2.184   5.858  13.397  0.7831  1.5766 -4.5012
   49DOPE   H7S 6242   2.244   5.980  13.521  0.5761 -1.5812  1.4950
   49DOPE   C28 6243   2.351   5.796  13.526 -0.0412  0.5074 -0.4005
   49DOPE   H8R 6244   2.439   5.851  13.564 -0.4430 -0.1621  1.6472
   49DOPE   H8S 6245   2.391   5.716  13.460 -0.5390  0.4802 -0.6763
   49DOPE   C29 6246   2.273   5.739  13.645 -0.3682 -0.5313 -0.0683
   49DOPE   H9R 6247   2.234   5.812  13.716  1.2413 -1.0899  1.4823
   49DOPE  C210 6248   2.276   5.608  13.683  0.2101  0.1420  0.4648
   49DOPE  H10R 6249   2.216   5.577  13.770  0.9102  0.5713  1.1220
   49DOPE  C211 6250   2.343   5.492  13.635 -0.7107  0.2794  0.3609
   49DOPE  H11R 6251   2.391   5.513  13.537  2.7118 -0.9986  1.6001
   49DOPE  H11S 6252   2.261   5.419  13.618 -0.0326  0.0915 -2.6681
   49DOPE  C212 6253   2.463   5.439  13.726  0.8931  0.4558  0.3093
   49DOPE  H12R 6254   2.427   5.431  13.831  0.1964 -1.1133 -0.0206
   49DOPE  H12S 6255   2.543   5.515  13.739 -0.1234  1.0497  4.1752
   49DOPE  C213 6256   2.527   5.306  13.679  0.3590  0.2704 -0.5550
   49DOPE  H13R 6257   2.570   5.322  13.578 -0.1329  1.6820 -0.5624
   49DOPE  H13S 6258   2.442   5.234  13.674  0.0372  0.5973  0.0474
   49DOPE  C214 6259   2.644   5.251  13.764  0.2883  0.4971 -0.8728
   49DOPE  H14R 6260   2.687   5.169  13.702  0.4374  0.4391 -0.6956
   49DOPE  H14S 6261   2.610   5.202  13.858 -0.0460 -0.3327 -1.4144
   49DOPE  C215 6262   2.770   5.329  13.795 -0.0051 -0.4103 -0.7098
   49DOPE  H15R 6263   2.746   5.388  13.886 -0.5680 -1.2871 -0.2782
   49DOPE  H15S 6264   2.782   5.399  13.709  0.8820  0.7838  0.3348
   49DOPE  C216 6265   2.898   5.241  13.808  0.0467  0.2669  0.0304
   49DOPE  H16R 6266   2.990   5.302  13.793  0.7728 -1.3741 -2.7535
   49DOPE  H16S 6267   2.898   5.162  13.730  0.8863  1.1229 -0.8720
   49DOPE  C217 6268   2.915   5.160  13.941 -0.0184 -0.0127  0.0061
   49DOPE  H17R 6269   2.906   5.236  14.021 -0.9130  1.4521 -1.4254
   49DOPE  H17S 6270   3.020   5.124  13.949  0.6519  1.9051  0.2122
   49DOPE  C218 6271   2.820   5.042  13.959  0.0729 -0.2771  0.2523
   49DOPE  H18R 6272   2.801   4.990  13.863 -0.0764 -0.2006  0.2380
   49DOPE  H18S 6273   2.717   5.070  13.992 -0.7583 -2.3142 -0.4334
   49DOPE  H18T 6274   2.864   4.968  14.029 -0.4295 -0.0394  0.8406
   49DOPE   C33 6275   2.441   6.537  12.974 -0.4510 -0.4948 -0.0073
   49DOPE   H3X 6276   2.400   6.640  12.980  2.8839  0.9085  1.3346
   49DOPE   H3Y 6277   2.551   6.539  12.989 -0.4884 -0.1150  0.2383
   49DOPE   C34 6278   2.378   6.443  13.069  0.3944 -0.2509  0.1263
   49DOPE   H4X 6279   2.271   6.468  13.053  0.7100  0.2213 -1.4401
   49DOPE   H4Y 6280   2.401   6.335  13.057 -0.6127 -0.4253 -0.3737
   49DOPE   C35 6281   2.408   6.477  13.213 -0.4884  0.6858  0.0282
   49DOPE   H5X 6282   2.357   6.574  13.230 -1.5267  0.4447 -1.5121
   49DOPE   H5Y 6283   2.516   6.496  13.228 -0.7289  2.7415 -0.5788
   49DOPE   C36 6284   2.346   6.381  13.318 -0.5689  0.1691 -0.4213
   49DOPE   H6X 6285   2.376   6.275  13.305 -1.0748 -0.0982  0.5317
   49DOPE   H6Y 6286   2.235   6.381  13.322 -0.5938 -1.8553  4.0754
   49DOPE   C37 6287   2.385   6.424  13.456 -0.0841  0.0144  0.3144
   49DOPE   H7X 6288   2.496   6.426  13.453 -0.1017  1.1305 -2.2127
   49DOPE   H7Y 6289   2.368   6.533  13.460  2.3059  0.5044 -0.8803
   49DOPE   C38 6290   2.313   6.343  13.561  0.1977 -0.0632 -0.5361
   49DOPE   H8X 6291   2.353   6.240  13.548  1.4858  0.1580  1.3010
   49DOPE   H8Y 6292   2.205   6.333  13.536  0.4697 -2.5554 -0.9793
   49DOPE   C39 6293   2.344   6.388  13.705  0.2724  0.4435  0.3437
   49DOPE   H9X 6294   2.338   6.497  13.719 -2.8190  0.7194 -2.0220
   49DOPE  C310 6295   2.387   6.306  13.803  0.7834  0.7187 -0.0178
   49DOPE  H10X 6296   2.414   6.346  13.902  2.2865 -1.7193  0.6380
   49DOPE  C311 6297   2.398   6.152  13.775 -0.4113 -0.1384 -0.6510
   49DOPE  H11X 6298   2.313   6.106  13.720 -0.3298 -1.7425  0.5046
   49DOPE  H11Y 6299   2.478   6.125  13.702  1.3149  1.7659  0.4312
   49DOPE  C312 6300   2.428   6.069  13.903 -0.2397 -0.3626  0.1444
   49DOPE  H12X 6301   2.495   6.120  13.975  0.9227 -1.8318  0.1549
   49DOPE  H12Y 6302   2.476   5.973  13.875  2.1942  1.3600 -2.1009
   49DOPE  C313 6303   2.301   6.047  13.999 -0.8499  0.0665  0.1013
   49DOPE  H13X 6304   2.240   6.138  14.016  0.4762  1.1982 -0.9413
   49DOPE  H13Y 6305   2.245   5.967  13.946 -0.5060 -0.3914  0.4222
   49DOPE  C314 6306   2.349   5.987  14.130 -0.3422 -0.7270 -0.7454
   49DOPE  H14X 6307   2.417   6.059  14.181 -0.5778 -1.3756  0.5296
   49DOPE  H14Y 6308   2.398   5.891  14.102 -0.4693 -0.9754 -0.1371
   49DOPE  C315 6309   2.232   5.946  14.218 -0.1550 -0.2749  1.0940
   49DOPE  H15X 6310   2.155   5.883  14.167 -0.0132 -0.9096  1.6457
   49DOPE  H15Y 6311   2.170   6.037  14.230  1.0855  0.6877  0.3541
   49DOPE  C316 6312   2.283   5.876  14.346 -0.0941  0.4039 -0.1919
   49DOPE  H16X 6313   2.375   5.928  14.382  0.1606  0.6829 -1.2169
   49DOPE  H16Y 6314   2.318   5.774  14.319 -0.0065  0.7144 -1.2709
   49DOPE  C317 6315   2.177   5.865  14.453  0.4035 -0.4544  0.6217
   49DOPE  H17X 6316   2.124   5.958  14.482  1.4179 -0.4613  2.6922
   49DOPE  H17Y 6317   2.088   5.810  14.413 -2.0636  2.6994  1.4105
   49DOPE  C318 6318   2.223   5.798  14.585  0.3580  0.0509  0.0717
   49DOPE  H18X 6319   2.309   5.853  14.631  0.3855 -0.8726  1.1623
   49DOPE  H18Y 6320   2.144   5.796  14.663 -0.3548 -1.4698 -0.6557
   49DOPE  H18Z 6321   2.255   5.692  14.572  0.1187 -0.1858  1.2932
   50DOPE     N 6322   7.448   4.587  11.936  0.4262  0.4012  0.1080
   50DOPE   HN1 6323   7.532   4.618  11.883 -1.0559  0.9467 -2.0638
   50DOPE   HN2 6324   7.461   4.497  11.988 -0.3088 -1.1002 -2.1657
   50DOPE   HN3 6325   7.376   4.555  11.868  0.2992 -0.2142  0.5255
   50DOPE   C12 6326   7.411   4.700  12.028  0.7335 -0.0712  0.2213
   50DOPE  H12A 6327   7.316   4.679  12.081  0.9784  1.9799  1.5714
   50DOPE  H12B 6328   7.411   4.792  11.965 -2.2941  0.8680  1.4385
   50DOPE   C11 6329   7.523   4.713  12.137  0.7601 -0.1109  0.5872
   50DOPE  H11A 6330   7.508   4.628  12.208  1.3772 -0.9765 -0.2980
   50DOPE  H11B 6331   7.509   4.810  12.190 -0.3061 -0.7050  1.4373
   50DOPE     P 6332   7.769   4.600  12.080 -0.1699 -0.3793  0.4059
   50DOPE   O13 6333   7.896   4.667  12.045 -0.0360  0.6268  0.3028
   50DOPE   O14 6334   7.733   4.484  11.998  0.0951 -0.2615  0.4570
   50DOPE   O11 6335   7.775   4.571  12.229  0.3498  0.0934 -0.6089
   50DOPE   O12 6336   7.650   4.710  12.072  0.0684 -0.5845  0.2706
   50DOPE    C1 6337   7.825   4.666  12.324 -0.4858 -0.3126 -0.6676
   50DOPE    HA 6338   7.800   4.771  12.300 -3.8355 -0.7885  0.2057
   50DOPE    HB 6339   7.935   4.653  12.324 -0.5268 -0.7335 -1.9052
   50DOPE    C2 6340   7.768   4.643  12.465 -0.2957  0.2573 -0.5711
   50DOPE    HS 6341   7.798   4.542  12.501 -1.4195  0.0361 -0.2015
   50DOPE   O21 6342   7.629   4.651  12.450 -0.5663  0.0188  0.4415
   50DOPE   C21 6343   7.560   4.562  12.519 -0.0228  1.3430 -0.1148
   50DOPE   O22 6344   7.606   4.470  12.590 -0.4719  0.1907  0.6008
   50DOPE   C22 6345   7.413   4.597  12.500 -0.0636 -0.2351  0.5565
   50DOPE   H2R 6346   7.361   4.551  12.414 -0.6456  1.5254 -0.0696
   50DOPE   H2S 6347   7.397   4.707  12.500 -2.6550 -0.4682  3.4098
   50DOPE    C3 6348   7.806   4.752  12.567 -0.9978 -0.5325 -0.4253
   50DOPE    HX 6349   7.781   4.854  12.532  0.8130 -0.3664 -1.3299
   50DOPE    HY 6350   7.916   4.754  12.575 -1.0399 -0.7576  0.3389
   50DOPE   O31 6351   7.749   4.726  12.697  0.0042 -0.2061  0.1448
   50DOPE   C31 6352   7.818   4.651  12.784 -0.6966  0.0247  0.6201
   50DOPE   O32 6353   7.937   4.619  12.777  0.5103  0.2632  0.2322
   50DOPE   C32 6354   7.722   4.620  12.896  0.1483 -1.1617 -0.0008
   50DOPE   H2X 6355   7.654   4.707  12.911  0.3684 -1.2056  1.4762
   50DOPE   H2Y 6356   7.659   4.530  12.879 -0.6595 -0.8778  1.3438
   50DOPE   C23 6357   7.321   4.546  12.612 -0.1310 -0.2577 -0.3596
   50DOPE   H3R 6358   7.315   4.435  12.612  0.1625 -0.2822  0.7394
   50DOPE   H3S 6359   7.221   4.587  12.587 -0.1464  0.9167  1.4599
   50DOPE   C24 6360   7.356   4.600  12.754 -0.0137 -0.4289 -0.2601
   50DOPE   H4R 6361   7.442   4.545  12.799 -0.5949 -2.4529 -1.4683
   50DOPE   H4S 6362   7.264   4.582  12.814 -0.0469  2.1224  0.5441
   50DOPE   C25 6363   7.366   4.754  12.769 -0.6723 -0.5636  0.7058
   50DOPE   H5R 6364   7.272   4.796  12.727 -0.7813 -2.3077 -0.9175
   50DOPE   H5S 6365   7.453   4.794  12.712 -1.6411  0.0045 -0.4344
   50DOPE   C26 6366   7.363   4.811  12.916  0.4464  0.1346 -0.1200
   50DOPE   H6R 6367   7.346   4.921  12.912  0.4911  0.2065  1.1213
   50DOPE   H6S 6368   7.455   4.797  12.976  0.1970  0.3934  0.3332
   50DOPE   C27 6369   7.250   4.756  13.003 -0.0305 -0.2451 -0.0986
   50DOPE   H7R 6370   7.265   4.646  13.009  0.4378 -0.1249  1.3923
   50DOPE   H7S 6371   7.149   4.786  12.968 -0.9427  1.3658  3.4680
   50DOPE   C28 6372   7.268   4.808  13.147  0.3791  0.3240  0.1180
   50DOPE   H8R 6373   7.264   4.919  13.150 -2.1476  0.2810  0.6358
   50DOPE   H8S 6374   7.365   4.773  13.188 -0.4060 -0.3657  1.4391
   50DOPE   C29 6375   7.160   4.758  13.241 -0.1564  0.6352  0.5905
   50DOPE   H9R 6376   7.059   4.747  13.198  0.9996 -1.5130 -1.8641
   50DOPE  C210 6377   7.161   4.748  13.375  0.2229  0.0682  0.5965
   50DOPE  H10R 6378   7.069   4.708  13.421  0.3506 -0.5968  0.2726
   50DOPE  C211 6379   7.273   4.789  13.461  0.1925 -0.0825  0.0307
   50DOPE  H11R 6380   7.343   4.863  13.415  1.7910 -0.0604  2.2997
   50DOPE  H11S 6381   7.335   4.700  13.484 -0.0662 -0.5325 -0.9872
   50DOPE  C212 6382   7.222   4.845  13.597 -0.3946 -1.0199 -0.0374
   50DOPE  H12R 6383   7.158   4.932  13.569 -3.0586 -2.6735  0.5455
   50DOPE  H12S 6384   7.306   4.889  13.654 -1.1402  0.2738  0.0936
   50DOPE  C213 6385   7.149   4.751  13.691 -0.5097 -0.4426 -0.0582
   50DOPE  H13R 6386   7.085   4.679  13.637  0.1491 -1.2925  0.2783
   50DOPE  H13S 6387   7.094   4.814  13.765 -1.5844  0.8703 -1.9020
   50DOPE  C214 6388   7.253   4.676  13.779  0.1152 -0.3726  0.2445
   50DOPE  H14R 6389   7.295   4.762  13.835 -3.6604  1.5466  0.4325
   50DOPE  H14S 6390   7.324   4.634  13.704 -0.8941 -2.0716  0.1860
   50DOPE  C215 6391   7.209   4.563  13.872 -0.1525  0.4672  0.2820
   50DOPE  H15R 6392   7.287   4.541  13.947 -0.6417 -0.9369  0.4047
   50DOPE  H15S 6393   7.193   4.474  13.808 -0.9830  1.7875 -1.4436
   50DOPE  C216 6394   7.083   4.586  13.957  0.3359  0.0125  0.5973
   50DOPE  H16R 6395   7.002   4.587  13.880  2.0648 -0.8941 -1.3312
   50DOPE  H16S 6396   7.085   4.678  14.019  3.5083 -0.9220  2.1004
   50DOPE  C217 6397   7.046   4.469  14.051  0.3507 -0.4551  0.0061
   50DOPE  H17R 6398   7.036   4.378  13.988  2.3710 -0.6780 -0.0691
   50DOPE  H17S 6399   6.948   4.496  14.096  0.9156  2.1993 -0.2084
   50DOPE  C218 6400   7.144   4.445  14.167  0.1522  0.7085  0.1766
   50DOPE  H18R 6401   7.235   4.403  14.120 -0.7714  0.8739 -1.8799
   50DOPE  H18S 6402   7.105   4.368  14.238  1.5329 -0.5980 -0.4399
   50DOPE  H18T 6403   7.167   4.524  14.241  2.1270  0.9965 -0.6857
   50DOPE   C33 6404   7.791   4.612  13.031  0.2752 -0.9058  0.2380
   50DOPE   H3X 6405   7.844   4.703  13.067  2.0532 -1.6878 -0.3053
   50DOPE   H3Y 6406   7.867   4.531  13.029  0.5494 -0.6502 -1.2503
   50DOPE   C34 6407   7.697   4.580  13.144 -0.1117 -0.3899  0.0022
   50DOPE   H4X 6408   7.605   4.642  13.136 -0.5511 -0.8331  1.2951
   50DOPE   H4Y 6409   7.664   4.474  13.143 -2.0812  0.1671  0.1001
   50DOPE   C35 6410   7.752   4.617  13.280 -0.4718  0.0693  0.3828
   50DOPE   H5X 6411   7.769   4.727  13.283 -1.4083  0.2132  2.6444
   50DOPE   H5Y 6412   7.848   4.563  13.295 -1.0078 -0.7175  1.0273
   50DOPE   C36 6413   7.640   4.592  13.385  0.2236  0.2607  0.2912
   50DOPE   H6X 6414   7.626   4.482  13.377  0.3377  0.2811 -0.2639
   50DOPE   H6Y 6415   7.550   4.647  13.352  0.7943  2.2173  1.8001
   50DOPE   C37 6416   7.667   4.623  13.538 -0.0034 -0.1982 -0.1738
   50DOPE   H7X 6417   7.675   4.730  13.567  0.9688 -0.2385 -0.2586
   50DOPE   H7Y 6418   7.577   4.585  13.591 -0.7986  0.9077 -0.6937
   50DOPE   C38 6419   7.786   4.546  13.599 -0.1497  0.1978  0.1099
   50DOPE   H8X 6420   7.836   4.603  13.680 -2.4490 -0.3046  1.9636
   50DOPE   H8Y 6421   7.862   4.541  13.517  1.9398 -0.8297  1.9762
   50DOPE   C39 6422   7.744   4.408  13.633  0.7006  1.2184 -0.3270
   50DOPE   H9X 6423   7.685   4.354  13.557  0.1508  2.5652 -0.8808
   50DOPE  C310 6424   7.772   4.343  13.744 -0.9059  0.7092  0.7072
   50DOPE  H10X 6425   7.729   4.244  13.765  1.2700 -0.3045  0.6626
   50DOPE  C311 6426   7.866   4.401  13.849  0.8341  0.4355 -0.2932
   50DOPE  H11X 6427   7.952   4.332  13.841  0.8072  0.4188 -0.4363
   50DOPE  H11Y 6428   7.893   4.504  13.819  0.8168  0.0304 -1.7701
   50DOPE  C312 6429   7.791   4.422  13.983  0.0693 -0.4000 -0.3212
   50DOPE  H12X 6430   7.866   4.453  14.058 -1.2684  0.0610  0.8667
   50DOPE  H12Y 6431   7.741   4.328  14.015  0.0074 -0.5248 -0.7809
   50DOPE  C313 6432   7.682   4.530  13.971 -0.3068 -0.5036 -0.2134
   50DOPE  H13X 6433   7.736   4.620  13.937  1.2576 -2.2817 -2.7388
   50DOPE  H13Y 6434   7.609   4.498  13.893 -2.1227 -1.2297  1.6638
   50DOPE  C314 6435   7.585   4.550  14.087 -0.1661  0.5655 -0.4328
   50DOPE  H14X 6436   7.521   4.462  14.109 -1.2229  1.4801  0.2568
   50DOPE  H14Y 6437   7.513   4.631  14.061  0.2464  0.5764 -1.5854
   50DOPE  C315 6438   7.649   4.575  14.224  0.3378  0.0876 -0.6854
   50DOPE  H15X 6439   7.713   4.665  14.221  0.1988  0.1642 -1.7817
   50DOPE  H15Y 6440   7.705   4.485  14.257 -0.2912 -0.4178 -0.9628
   50DOPE  C316 6441   7.546   4.590  14.333  0.3929 -0.5047  0.1491
   50DOPE  H16X 6442   7.595   4.593  14.433  0.4291  2.0308  0.1262
   50DOPE  H16Y 6443   7.489   4.495  14.342 -0.4385 -0.2862 -2.0519
   50DOPE  C317 6444   7.452   4.713  14.324 -1.1738 -0.1558  0.0991
   50DOPE  H17X 6445   7.511   4.807  14.328  0.4052 -1.1348  2.6156
   50DOPE  H17Y 6446   7.392   4.716  14.231 -1.6682  0.6099  0.4303
   50DOPE  C318 6447   7.360   4.721  14.449  0.5216 -0.5126 -0.1824
   50DOPE  H18X 6448   7.419   4.695  14.540  1.3845 -0.7888 -0.8030
   50DOPE  H18Y 6449   7.307   4.818  14.456  1.9846  0.4015 -1.0960
   50DOPE  H18Z 6450   7.279   4.646  14.448  1.4875 -1.5940 -1.7956
   51DOPE     N 6451   4.224   6.758  12.618  0.7229 -0.0381  0.2753
   51DOPE   HN1 6452   4.258   6.767  12.715  0.6310 -0.1058  0.3145
   51DOPE   HN2 6453   4.253   6.661  12.594  0.7687  0.5465 -2.4047
   51DOPE   HN3 6454   4.290   6.812  12.558  1.2496  0.6093  1.4066
   51DOPE   C12 6455   4.077   6.790  12.596  0.3759 -0.4606 -0.4332
   51DOPE  H12A 6456   4.077   6.804  12.486 -3.2440 -3.0570 -0.9518
   51DOPE  H12B 6457   4.065   6.893  12.635 -0.2038 -0.3705 -0.8277
   51DOPE   C11 6458   3.975   6.693  12.665 -0.3812 -0.2056  0.0952
   51DOPE  H11A 6459   3.874   6.723  12.629  0.0502 -1.1527 -2.0704
   51DOPE  H11B 6460   3.992   6.707  12.774 -2.0078  2.6226  0.0858
   51DOPE     P 6461   3.901   6.460  12.561 -0.7501  0.0398 -0.3519
   51DOPE   O13 6462   3.947   6.318  12.542  0.0655 -0.1035 -0.4739
   51DOPE   O14 6463   3.864   6.526  12.435 -0.3157 -0.2510  0.0571
   51DOPE   O11 6464   3.775   6.463  12.663 -0.2620 -0.4754 -0.5429
   51DOPE   O12 6465   4.005   6.559  12.629  0.1436  0.2270  0.2581
   51DOPE    C1 6466   3.668   6.372  12.639 -0.3859  0.4779  0.0671
   51DOPE    HA 6467   3.630   6.334  12.737  1.9827 -0.8861  0.5353
   51DOPE    HB 6468   3.688   6.280  12.580 -1.5047  0.1990  0.0999
   51DOPE    C2 6469   3.554   6.442  12.564  0.5153 -0.3346  0.0091
   51DOPE    HS 6470   3.596   6.481  12.469  0.3170 -2.5739 -1.0568
   51DOPE   O21 6471   3.497   6.536  12.654 -0.4421 -0.2900 -0.0621
   51DOPE   C21 6472   3.440   6.646  12.598 -0.4708  0.0244  0.3894
   51DOPE   O22 6473   3.442   6.669  12.475  0.4272 -0.1391  0.0330
   51DOPE   C22 6474   3.394   6.732  12.712  0.2971 -0.1338  0.4512
   51DOPE   H2R 6475   3.313   6.683  12.770 -0.2858 -0.9523 -1.0152
   51DOPE   H2S 6476   3.345   6.820  12.665 -0.6951 -1.4882 -1.1276
   51DOPE    C3 6477   3.445   6.337  12.530 -0.0732 -0.2390  1.2863
   51DOPE    HX 6478   3.501   6.260  12.472  0.6344  0.6579  0.7629
   51DOPE    HY 6479   3.372   6.382  12.459  1.5660  0.5153  0.0236
   51DOPE   O31 6480   3.388   6.262  12.642 -0.1211 -0.0627 -0.0082
   51DOPE   C31 6481   3.277   6.303  12.685  0.4305  0.4711  0.1662
   51DOPE   O32 6482   3.203   6.402  12.648 -0.3295  0.9181  0.2569
   51DOPE   C32 6483   3.245   6.222  12.812  0.5056 -0.2103  0.3600
   51DOPE   H2X 6484   3.147   6.258  12.850 -0.5391 -1.7000 -0.7838
   51DOPE   H2Y 6485   3.221   6.122  12.770 -0.8109 -0.4455  1.5678
   51DOPE   C23 6486   3.506   6.791  12.799  0.8691 -0.6028 -0.4199
   51DOPE   H3R 6487   3.557   6.713  12.859  1.8386  1.5848  1.8151
   51DOPE   H3S 6488   3.464   6.845  12.887  2.4464 -0.0606  0.0471
   51DOPE   C24 6489   3.605   6.890  12.730  0.1849 -0.4839 -0.6831
   51DOPE   H4R 6490   3.538   6.964  12.679 -1.7695 -1.1749  0.7434
   51DOPE   H4S 6491   3.657   6.848  12.641 -0.7911 -1.9583 -0.5925
   51DOPE   C25 6492   3.710   6.951  12.821 -0.5433  0.1498 -0.5072
   51DOPE   H5R 6493   3.781   7.018  12.768  1.4209 -0.7317  0.8913
   51DOPE   H5S 6494   3.777   6.881  12.875 -0.4696  1.3605  1.0432
   51DOPE   C26 6495   3.652   7.038  12.936  0.0098  0.2584 -0.3705
   51DOPE   H6R 6496   3.561   6.996  12.983 -1.9311  4.4621  0.1407
   51DOPE   H6S 6497   3.614   7.126  12.879 -0.3421  0.4400  0.1307
   51DOPE   C27 6498   3.742   7.072  13.052 -0.3561 -1.0090 -0.1735
   51DOPE   H7R 6499   3.831   7.132  13.021 -0.6842  0.4140  1.4882
   51DOPE   H7S 6500   3.776   6.972  13.085  2.5447 -0.6659 -1.7547
   51DOPE   C28 6501   3.663   7.149  13.161  0.0861  0.4825  0.5925
   51DOPE   H8R 6502   3.706   7.132  13.262 -1.1495 -2.6387  0.6702
   51DOPE   H8S 6503   3.559   7.110  13.156  0.2314  0.1271  0.2549
   51DOPE   C29 6504   3.647   7.300  13.141 -0.8351  0.0947  0.4175
   51DOPE   H9R 6505   3.551   7.332  13.097 -0.6486  2.1422  1.4029
   51DOPE  C210 6506   3.729   7.399  13.183  0.2039 -0.1760 -0.9776
   51DOPE  H10R 6507   3.715   7.498  13.138 -0.3008  0.2028 -0.0125
   51DOPE  C211 6508   3.858   7.379  13.260  0.6874  0.9406 -0.1553
   51DOPE  H11R 6509   3.934   7.423  13.193  0.3179 -1.1333 -2.0764
   51DOPE  H11S 6510   3.875   7.270  13.272 -0.3787  0.7434 -0.2953
   51DOPE  C212 6511   3.849   7.435  13.402  0.1810  0.0638  0.0463
   51DOPE  H12R 6512   3.775   7.378  13.462 -1.8188  0.6966 -1.7092
   51DOPE  H12S 6513   3.815   7.540  13.410 -2.4318 -0.7494  0.5223
   51DOPE  C213 6514   3.986   7.404  13.468 -0.3241  0.1583 -0.0836
   51DOPE  H13R 6515   4.066   7.452  13.408 -1.2293  0.4014 -1.1253
   51DOPE  H13S 6516   4.002   7.294  13.459 -1.5355  0.0254 -0.8038
   51DOPE  C214 6517   3.989   7.447  13.615 -0.0369 -0.1118 -0.3232
   51DOPE  H14R 6518   3.942   7.547  13.613 -0.0945 -0.1209  0.3293
   51DOPE  H14S 6519   4.092   7.461  13.654  0.0869  0.9919 -1.0128
   51DOPE  C215 6520   3.916   7.352  13.706 -0.8093 -0.4122 -0.2783
   51DOPE  H15R 6521   3.935   7.242  13.703 -2.8283 -0.7932 -0.3518
   51DOPE  H15S 6522   3.810   7.368  13.678 -0.8089  0.1202  0.0031
   51DOPE  C216 6523   3.924   7.397  13.856  0.7394 -0.1623  0.2013
   51DOPE  H16R 6524   3.840   7.356  13.916  0.0806 -0.7268 -1.0681
   51DOPE  H16S 6525   3.912   7.508  13.860 -3.0309 -0.4289 -0.4124
   51DOPE  C217 6526   4.056   7.371  13.924  0.5303 -0.3374 -0.2749
   51DOPE  H17R 6527   4.143   7.394  13.859  0.9093  0.9487  0.6519
   51DOPE  H17S 6528   4.061   7.263  13.949  0.5915 -0.6669 -1.6418
   51DOPE  C218 6529   4.066   7.451  14.056  0.9634 -0.2068  0.2140
   51DOPE  H18R 6530   4.067   7.559  14.033  2.1798 -0.1043  0.6534
   51DOPE  H18S 6531   4.156   7.423  14.115  0.5594  0.4666  1.1695
   51DOPE  H18T 6532   3.974   7.429  14.115  0.2869 -0.0110 -0.7470
   51DOPE   C33 6533   3.358   6.217  12.916  0.2596 -0.1440 -0.0577
   51DOPE   H3X 6534   3.446   6.170  12.869 -0.4951 -1.0789 -0.5828
   51DOPE   H3Y 6535   3.335   6.139  12.992  1.8604 -0.0565  0.5378
   51DOPE   C34 6536   3.407   6.345  12.978  0.7825 -0.2654  0.5468
   51DOPE   H4X 6537   3.482   6.314  13.055 -1.0187 -2.2413  1.6188
   51DOPE   H4Y 6538   3.450   6.420  12.909 -0.4410  1.0990  1.2131
   51DOPE   C35 6539   3.289   6.419  13.048  0.4659 -0.1856  0.6063
   51DOPE   H5X 6540   3.255   6.345  13.125 -1.2643 -0.9934 -0.8730
   51DOPE   H5Y 6541   3.198   6.426  12.984 -0.2221  1.8239  1.7008
   51DOPE   C36 6542   3.316   6.561  13.094 -0.3363  1.2590 -0.2469
   51DOPE   H6X 6543   3.375   6.606  13.012 -0.9994 -1.4339 -2.3682
   51DOPE   H6Y 6544   3.386   6.548  13.179 -0.9848  2.3509  0.4800
   51DOPE   C37 6545   3.205   6.651  13.129 -0.2115 -0.4672  0.3676
   51DOPE   H7X 6546   3.115   6.633  13.066 -0.2277  0.9882 -0.0662
   51DOPE   H7Y 6547   3.175   6.643  13.236  0.3274  0.9697  0.6491
   51DOPE   C38 6548   3.257   6.794  13.104  0.1981  0.0695 -0.1805
   51DOPE   H8X 6549   3.177   6.869  13.115  1.6027  1.9655 -1.9634
   51DOPE   H8Y 6550   3.277   6.796  12.994 -3.2910 -1.0048 -0.9517
   51DOPE   C39 6551   3.377   6.834  13.189 -0.3252  0.3895  0.8132
   51DOPE   H9X 6552   3.471   6.833  13.132 -0.4144 -0.2856  0.6630
   51DOPE  C310 6553   3.369   6.880  13.315 -0.3070  0.1137  1.0411
   51DOPE  H10X 6554   3.459   6.914  13.368 -1.2769  3.4323  0.8083
   51DOPE  C311 6555   3.244   6.908  13.387  0.7712  0.4204 -0.2675
   51DOPE  H11X 6556   3.211   7.014  13.382 -0.3177  0.1947  1.4632
   51DOPE  H11Y 6557   3.166   6.853  13.331  0.9016  0.4584 -0.4898
   51DOPE  C312 6558   3.227   6.836  13.525 -0.6050 -0.1972  0.1441
   51DOPE  H12X 6559   3.292   6.890  13.597  1.6427 -1.7481 -0.6230
   51DOPE  H12Y 6560   3.259   6.730  13.516 -2.5566 -0.7412 -1.1567
   51DOPE  C313 6561   3.076   6.837  13.572 -0.0476 -0.1017 -0.2653
   51DOPE  H13X 6562   3.016   6.928  13.550  0.6664  0.1597 -1.2218
   51DOPE  H13Y 6563   3.034   6.755  13.510  0.1362  0.5573 -1.2999
   51DOPE  C314 6564   3.059   6.800  13.722  0.2918 -0.6927 -0.0580
   51DOPE  H14X 6565   3.122   6.708  13.728 -0.0273 -0.8754  0.5830
   51DOPE  H14Y 6566   2.957   6.770  13.753  0.6851 -0.1118  1.9415
   51DOPE  C315 6567   3.101   6.907  13.818 -0.7897  0.1755  0.2774
   51DOPE  H15X 6568   3.193   6.957  13.781 -1.4592  1.0478 -0.2380
   51DOPE  H15Y 6569   3.126   6.853  13.912  1.5994 -0.2856 -0.5410
   51DOPE  C316 6570   3.005   7.020  13.830  0.2098  0.4159  0.3878
   51DOPE  H16X 6571   2.914   6.973  13.875  0.3026 -0.7094 -0.5403
   51DOPE  H16Y 6572   2.978   7.059  13.730 -1.2280  1.7157  1.2419
   51DOPE  C317 6573   3.039   7.131  13.919 -0.2875  0.0152 -0.4573
   51DOPE  H17X 6574   3.131   7.177  13.876 -0.5102  0.4463 -0.4750
   51DOPE  H17Y 6575   2.956   7.204  13.914  0.5974  1.1919  1.1874
   51DOPE  C318 6576   3.067   7.078  14.062 -0.0264  0.0916 -0.4542
   51DOPE  H18X 6577   3.071   7.162  14.135 -0.0630  0.7153 -1.1520
   51DOPE  H18Y 6578   2.990   7.002  14.087 -0.7283  0.3635 -1.6791
   51DOPE  H18Z 6579   3.166   7.027  14.065 -1.1192 -2.1441  0.0308
   52DOPE     N 6580   7.068   6.035  12.428 -0.1758 -0.2207  0.3115
   52DOPE   HN1 6581   7.163   6.075  12.424  0.3841 -1.5625 -0.6394
   52DOPE   HN2 6582   7.021   6.065  12.340  0.9347 -0.7805 -0.4941
   52DOPE   HN3 6583   7.022   6.080  12.509  0.7818  0.5561  0.4314
   52DOPE   C12 6584   7.084   5.892  12.447 -0.1178 -0.4931  0.3962
   52DOPE  H12A 6585   6.981   5.851  12.456 -0.9713  1.6631  1.1912
   52DOPE  H12B 6586   7.155   5.873  12.531  1.4885  2.1389 -0.2463
   52DOPE   C11 6587   7.159   5.827  12.328  0.5786  0.1781 -0.0897
   52DOPE  H11A 6588   7.156   5.716  12.333 -1.1096  0.2132  0.1827
   52DOPE  H11B 6589   7.268   5.849  12.331  0.4490  1.2684 -2.0622
   52DOPE     P 6590   6.965   5.800  12.154 -0.4224 -0.3756  0.2498
   52DOPE   O13 6591   6.950   5.802  12.004  0.3526  0.7643 -0.0217
   52DOPE   O14 6592   6.870   5.877  12.237  0.0230 -0.1367  0.2689
   52DOPE   O11 6593   6.995   5.658  12.215  0.1900  0.4033  0.1419
   52DOPE   O12 6594   7.108   5.864  12.201 -0.1381 -0.1421 -0.0443
   52DOPE    C1 6595   6.885   5.569  12.228 -0.4145 -0.7426 -0.0956
   52DOPE    HA 6596   6.885   5.500  12.140  0.1190 -1.3265  0.3522
   52DOPE    HB 6597   6.785   5.616  12.237 -0.1702 -0.0693 -0.8068
   52DOPE    C2 6598   6.898   5.493  12.354  0.4085  0.6298 -0.7490
   52DOPE    HS 6599   6.889   5.560  12.442  0.7910 -2.2957  1.6673
   52DOPE   O21 6600   7.029   5.424  12.348 -0.3274 -0.3615 -0.0393
   52DOPE   C21 6601   7.091   5.441  12.469  0.0126 -0.0916  0.0294
   52DOPE   O22 6602   7.043   5.487  12.569 -0.1372  0.0652 -0.5586
   52DOPE   C22 6603   7.222   5.367  12.455 -0.3457  0.4069 -0.9609
   52DOPE   H2R 6604   7.285   5.417  12.379  2.4860 -1.6593 -0.1127
   52DOPE   H2S 6605   7.204   5.263  12.419 -2.0688  0.1228  0.5304
   52DOPE    C3 6606   6.786   5.388  12.358  0.0749 -0.5346 -0.0356
   52DOPE    HX 6607   6.804   5.323  12.269 -0.6870 -1.7906  0.6800
   52DOPE    HY 6608   6.686   5.437  12.353  0.0938 -0.3885  0.9524
   52DOPE   O31 6609   6.801   5.305  12.476  1.1619 -1.1229 -0.0063
   52DOPE   C31 6610   6.749   5.360  12.578  0.0645  0.3677  0.6503
   52DOPE   O32 6611   6.680   5.458  12.590 -0.3393 -0.3802 -0.9565
   52DOPE   C32 6612   6.790   5.274  12.702  0.3626  0.1432  0.3645
   52DOPE   H2X 6613   6.691   5.224  12.717 -0.4319  1.2782 -0.8753
   52DOPE   H2Y 6614   6.881   5.215  12.681  0.4585  0.8077 -1.2172
   52DOPE   C23 6615   7.304   5.370  12.594  0.3788  0.4080 -0.2122
   52DOPE   H3R 6616   7.301   5.476  12.628  1.2846  0.0973  0.9049
   52DOPE   H3S 6617   7.411   5.343  12.580  0.4538  0.8767 -0.5542
   52DOPE   C24 6618   7.249   5.279  12.700 -0.6054  0.1349 -0.4329
   52DOPE   H4R 6619   7.254   5.173  12.668  2.4624  0.2041 -0.4994
   52DOPE   H4S 6620   7.139   5.287  12.714 -0.2200  1.3436  2.9407
   52DOPE   C25 6621   7.315   5.304  12.834 -0.1705  0.0695 -0.0111
   52DOPE   H5R 6622   7.322   5.414  12.842 -0.1983 -0.0219  1.4464
   52DOPE   H5S 6623   7.420   5.270  12.849  0.2914  0.6423 -1.7255
   52DOPE   C26 6624   7.222   5.276  12.955 -0.0676  0.0855  0.9737
   52DOPE   H6R 6625   7.197   5.168  12.962  0.8464 -0.3649 -1.4524
   52DOPE   H6S 6626   7.127   5.327  12.929  1.3184  2.4834  0.2149
   52DOPE   C27 6627   7.271   5.339  13.078  0.5270  0.4094  0.4472
   52DOPE   H7R 6628   7.295   5.445  13.054  0.6938  0.3408  0.3096
   52DOPE   H7S 6629   7.360   5.290  13.122  0.6548  0.6919  0.5095
   52DOPE   C28 6630   7.159   5.330  13.187  0.2600  0.4702 -0.1050
   52DOPE   H8R 6631   7.059   5.345  13.141  0.5534 -0.0740 -0.9422
   52DOPE   H8S 6632   7.183   5.418  13.251  0.4325  1.2928 -1.2518
   52DOPE   C29 6633   7.157   5.201  13.259  0.1804  0.1261  0.6540
   52DOPE   H9R 6634   7.206   5.117  13.207 -1.0100 -0.7042  0.8246
   52DOPE  C210 6635   7.121   5.180  13.390  0.3115  0.3334  0.3438
   52DOPE  H10R 6636   7.106   5.075  13.421  0.4970 -0.2427 -1.4221
   52DOPE  C211 6637   7.081   5.286  13.489 -0.3368 -0.2039  0.7296
   52DOPE  H11R 6638   6.972   5.298  13.470 -0.1615  0.6255  0.1971
   52DOPE  H11S 6639   7.126   5.385  13.465 -1.1844  0.5056  1.9863
   52DOPE  C212 6640   7.117   5.268  13.637 -0.0612  0.4367 -0.6047
   52DOPE  H12R 6641   7.081   5.363  13.682  1.2119  0.4648  0.4105
   52DOPE  H12S 6642   7.224   5.244  13.657 -0.1974 -0.4644 -0.8807
   52DOPE  C213 6643   7.020   5.167  13.708  0.2090  0.2674 -0.0506
   52DOPE  H13R 6644   7.061   5.064  13.694  0.3326  0.2975  0.0764
   52DOPE  H13S 6645   6.925   5.175  13.653  0.2280  2.3831  0.1687
   52DOPE  C214 6646   6.996   5.197  13.856  0.8814  0.1993 -0.4967
   52DOPE  H14R 6647   6.926   5.125  13.904  3.3868 -0.6372  2.2515
   52DOPE  H14S 6648   6.965   5.304  13.847 -1.8389 -0.5831 -1.1018
   52DOPE  C215 6649   7.119   5.192  13.947 -0.7678 -0.1103  0.9884
   52DOPE  H15R 6650   7.093   5.236  14.046 -0.7889  0.6038  0.6688
   52DOPE  H15S 6651   7.193   5.261  13.902  0.1924 -0.9714  1.2173
   52DOPE  C216 6652   7.178   5.052  13.966  0.0379 -0.1222 -0.0377
   52DOPE  H16R 6653   7.187   4.999  13.868 -1.0308  2.0573 -1.3928
   52DOPE  H16S 6654   7.105   4.994  14.026 -0.9647  0.6866 -0.4597
   52DOPE  C217 6655   7.320   5.063  14.025  0.8323 -0.4368  0.1983
   52DOPE  H17R 6656   7.318   5.130  14.113  2.0644 -1.0223  0.6928
   52DOPE  H17S 6657   7.381   5.119  13.951 -1.3784 -1.6504 -2.7811
   52DOPE  C218 6658   7.381   4.932  14.061 -0.2957  0.2291  0.2962
   52DOPE  H18R 6659   7.471   4.942  14.126 -0.2971 -2.5023  0.8305
   52DOPE  H18S 6660   7.304   4.869  14.110  1.5065 -1.5114  1.0173
   52DOPE  H18T 6661   7.419   4.880  13.970  2.1503  2.4962 -0.1049
   52DOPE   C33 6662   6.819   5.360  12.827 -0.3336  0.4807  0.0782
   52DOPE   H3X 6663   6.730   5.424  12.847 -0.5625 -0.1507  1.1312
   52DOPE   H3Y 6664   6.906   5.426  12.806  0.0005 -0.0252 -0.1344
   52DOPE   C34 6665   6.844   5.270  12.950  0.3973 -0.4756  1.0790
   52DOPE   H4X 6666   6.927   5.201  12.922  0.5886  0.3909 -0.6064
   52DOPE   H4Y 6667   6.879   5.339  13.030  1.1915  0.6848 -0.2185
   52DOPE   C35 6668   6.728   5.183  12.993  0.5476 -0.8938  0.0714
   52DOPE   H5X 6669   6.694   5.117  12.910  2.3356 -1.3943 -0.3055
   52DOPE   H5Y 6670   6.643   5.252  13.013 -1.2992 -2.7969 -0.7777
   52DOPE   C36 6671   6.767   5.091  13.114 -0.5414 -0.0119 -0.5672
   52DOPE   H6X 6672   6.828   5.158  13.178  0.2703 -1.3313  0.0705
   52DOPE   H6Y 6673   6.836   5.011  13.079  0.7840  1.2593 -0.9503
   52DOPE   C37 6674   6.651   5.024  13.191  0.3481 -0.2091  0.8807
   52DOPE   H7X 6675   6.572   5.098  13.215  0.3907  1.0397 -2.3043
   52DOPE   H7Y 6676   6.601   4.961  13.114  2.6041  0.1559 -1.0089
   52DOPE   C38 6677   6.704   4.942  13.310 -0.7809 -0.3001  0.5191
   52DOPE   H8X 6678   6.757   4.997  13.391 -1.0606  1.5940 -0.5339
   52DOPE   H8Y 6679   6.784   4.879  13.265 -0.5340  0.8448 -0.6896
   52DOPE   C39 6680   6.606   4.845  13.365  0.1612  0.3577 -0.1775
   52DOPE   H9X 6681   6.515   4.853  13.304  0.0673  1.3520  0.0733
   52DOPE  C310 6682   6.626   4.755  13.464  0.0713 -0.0897  0.2242
   52DOPE  H10X 6683   6.545   4.685  13.490 -1.0773  0.6575 -1.2138
   52DOPE  C311 6684   6.757   4.726  13.536  0.4470 -0.2590  0.2562
   52DOPE  H11X 6685   6.781   4.617  13.540  1.2239 -0.0982  0.1651
   52DOPE  H11Y 6686   6.840   4.757  13.468  0.1498 -0.4326 -0.1939
   52DOPE  C312 6687   6.781   4.797  13.670  0.1009 -0.1853 -0.1959
   52DOPE  H12X 6688   6.743   4.901  13.661 -0.8946 -0.6183 -1.3231
   52DOPE  H12Y 6689   6.889   4.793  13.694  0.0521  0.5502  0.1703
   52DOPE  C313 6690   6.700   4.726  13.789  0.0433  0.3881  0.7770
   52DOPE  H13X 6691   6.593   4.756  13.778 -0.4908 -1.7960 -0.6195
   52DOPE  H13Y 6692   6.707   4.617  13.770 -1.0190  0.5465 -0.6785
   52DOPE  C314 6693   6.752   4.760  13.929 -0.0635 -0.1036 -0.1998
   52DOPE  H14X 6694   6.788   4.865  13.930 -0.5732  0.1044  2.0500
   52DOPE  H14Y 6695   6.846   4.708  13.958 -0.0292  0.2990  0.4306
   52DOPE  C315 6696   6.647   4.728  14.042 -0.6038 -0.8366 -0.0557
   52DOPE  H15X 6697   6.615   4.625  14.014 -0.7366 -0.6249 -0.7097
   52DOPE  H15Y 6698   6.558   4.791  14.022 -0.3117 -0.6865 -0.9501
   52DOPE  C316 6699   6.709   4.736  14.180  0.1182 -0.0490 -0.3597
   52DOPE  H16X 6700   6.762   4.828  14.213  0.2229 -0.8852  1.9960
   52DOPE  H16Y 6701   6.792   4.663  14.172  2.4268  2.1842  1.5447
   52DOPE  C317 6702   6.613   4.684  14.289 -0.3349 -0.0494 -0.0869
   52DOPE  H17X 6703   6.548   4.606  14.244  0.2290  0.0187 -1.0527
   52DOPE  H17Y 6704   6.683   4.624  14.352 -0.0245  0.2123 -0.1794
   52DOPE  C318 6705   6.534   4.783  14.367 -0.0648  0.1347  0.0618
   52DOPE  H18X 6706   6.579   4.884  14.377 -0.4784  0.4970 -1.4690
   52DOPE  H18Y 6707   6.441   4.814  14.315  1.2318  1.0692 -1.8196
   52DOPE  H18Z 6708   6.508   4.739  14.466  0.5432 -2.2764 -0.7894
   53DOPE     N 6709   5.568   7.092  12.239  0.5535  0.0923 -0.0298
   53DOPE   HN1 6710   5.560   7.004  12.184  1.9285  1.3895 -2.4404
   53DOPE   HN2 6711   5.518   7.165  12.185 -0.6785  0.0327  0.9737
   53DOPE   HN3 6712   5.669   7.115  12.243  1.0645 -1.7218 -1.1520
   53DOPE   C12 6713   5.496   7.069  12.367  0.0692 -0.0387 -0.8815
   53DOPE  H12A 6714   5.409   7.005  12.342 -0.2748 -0.2317  0.6988
   53DOPE  H12B 6715   5.458   7.166  12.404 -2.4041 -1.3801  0.3150
   53DOPE   C11 6716   5.569   6.991  12.477  0.2548  0.0806  0.3145
   53DOPE  H11A 6717   5.498   6.980  12.562 -0.0836  2.2818  0.3644
   53DOPE  H11B 6718   5.673   7.020  12.504  0.5655 -1.7642  1.2951
   53DOPE     P 6719   5.526   6.725  12.443  0.2116  0.3918 -0.0984
   53DOPE   O13 6720   5.605   6.625  12.370  0.3215  0.2539  0.1062
   53DOPE   O14 6721   5.382   6.738  12.408 -0.2334 -0.0384 -0.8603
   53DOPE   O11 6722   5.535   6.712  12.601  0.3249  0.3629 -0.2123
   53DOPE   O12 6723   5.597   6.866  12.421  0.2507 -0.4152  0.7502
   53DOPE    C1 6724   5.662   6.693  12.659 -0.0678  0.8820 -0.4134
   53DOPE    HA 6725   5.728   6.779  12.637  1.7237 -0.1020  0.9002
   53DOPE    HB 6726   5.718   6.606  12.619  4.2593  2.7031  1.0936
   53DOPE    C2 6727   5.649   6.681  12.811 -0.1416  0.0655 -0.5216
   53DOPE    HS 6728   5.751   6.686  12.854  0.5472  1.8911 -2.2007
   53DOPE   O21 6729   5.578   6.567  12.844 -0.2942  0.3891 -0.1154
   53DOPE   C21 6730   5.625   6.495  12.947  0.2556 -0.1508  0.5241
   53DOPE   O22 6731   5.704   6.540  13.028 -0.3777  0.4530  0.0368
   53DOPE   C22 6732   5.557   6.363  12.939 -0.0106  0.5849 -0.0865
   53DOPE   H2R 6733   5.609   6.301  12.863  1.4963  2.9255 -1.0680
   53DOPE   H2S 6734   5.449   6.363  12.911  0.1257 -1.4545 -0.7730
   53DOPE    C3 6735   5.575   6.801  12.873  0.1795  0.1726 -0.2144
   53DOPE    HX 6736   5.472   6.801  12.831 -0.2738  2.2231  0.7425
   53DOPE    HY 6737   5.620   6.900  12.852  1.1992 -0.0416  0.8861
   53DOPE   O31 6738   5.561   6.780  13.015 -0.5863  0.3565  0.2605
   53DOPE   C31 6739   5.660   6.829  13.097  0.1201 -0.2640  0.0348
   53DOPE   O32 6740   5.752   6.901  13.062  0.5616  0.4059  0.0684
   53DOPE   C32 6741   5.648   6.773  13.235 -0.1715 -0.3375  0.2882
   53DOPE   H2X 6742   5.574   6.837  13.286 -1.5051  1.4428 -3.5349
   53DOPE   H2Y 6743   5.615   6.667  13.234  0.0405 -0.5143  3.0238
   53DOPE   C23 6744   5.557   6.288  13.068  0.2176  0.2442 -0.2159
   53DOPE   H3R 6745   5.497   6.343  13.145  1.0349 -0.5412  1.0176
   53DOPE   H3S 6746   5.658   6.280  13.114 -0.3282  1.9454  1.4308
   53DOPE   C24 6747   5.495   6.149  13.067 -0.1387  0.2110 -0.2804
   53DOPE   H4R 6748   5.554   6.065  13.024 -1.6195 -1.3042  0.5132
   53DOPE   H4S 6749   5.395   6.147  13.019 -0.1787 -1.0072 -0.1788
   53DOPE   C25 6750   5.452   6.105  13.210 -0.7482  0.7487  0.1918
   53DOPE   H5R 6751   5.414   6.002  13.202 -0.1259  0.5308 -0.0347
   53DOPE   H5S 6752   5.370   6.171  13.246  0.0710  1.1947  1.3120
   53DOPE   C26 6753   5.566   6.106  13.316  0.0749 -0.6637 -0.3314
   53DOPE   H6R 6754   5.598   6.212  13.330 -1.8067 -0.2692  1.4497
   53DOPE   H6S 6755   5.656   6.058  13.273 -1.1483 -1.6161 -2.0052
   53DOPE   C27 6756   5.508   6.057  13.453 -0.3074 -0.0678 -0.0012
   53DOPE   H7R 6757   5.445   5.968  13.433 -0.0111 -0.3875  0.4697
   53DOPE   H7S 6758   5.445   6.134  13.501 -1.8150 -2.4256  2.0461
   53DOPE   C28 6759   5.620   6.018  13.550  0.5153  0.1101 -0.2051
   53DOPE   H8R 6760   5.678   6.112  13.559  1.2277 -0.3806  0.4727
   53DOPE   H8S 6761   5.694   5.950  13.503  1.0150  1.1105 -0.9010
   53DOPE   C29 6762   5.571   5.972  13.689  0.0423 -0.0543 -0.3125
   53DOPE   H9R 6763   5.463   5.970  13.711  0.0352  0.3998 -0.2851
   53DOPE  C210 6764   5.649   5.924  13.787  0.7255  0.0675  0.8484
   53DOPE  H10R 6765   5.606   5.888  13.881  1.2453 -1.3706  0.5648
   53DOPE  C211 6766   5.797   5.899  13.784 -0.0545 -0.2735 -0.1053
   53DOPE  H11R 6767   5.853   5.964  13.855  1.9717 -1.2138 -0.7741
   53DOPE  H11S 6768   5.840   5.914  13.683 -0.8620 -1.6808 -0.6807
   53DOPE  C212 6769   5.832   5.751  13.824  0.6926 -0.0917 -0.0235
   53DOPE  H12R 6770   5.915   5.717  13.759  0.5809 -0.9672  0.2776
   53DOPE  H12S 6771   5.741   5.690  13.805  0.2902  1.1037 -2.2581
   53DOPE  C213 6772   5.860   5.733  13.974  0.0704 -0.4193  0.2948
   53DOPE  H13R 6773   5.765   5.753  14.027 -0.4657  1.6130 -1.3180
   53DOPE  H13S 6774   5.935   5.810  14.002  0.4414 -1.2625  1.8069
   53DOPE  C214 6775   5.922   5.595  14.014  0.3846  0.4714  0.9022
   53DOPE  H14R 6776   5.954   5.602  14.120  0.5415 -0.8427  0.9619
   53DOPE  H14S 6777   6.013   5.574  13.954  1.9138 -1.7712  3.7795
   53DOPE  C215 6778   5.819   5.481  13.996 -1.3727  0.1788  0.3365
   53DOPE  H15R 6779   5.770   5.479  13.896 -1.3146 -2.2463  0.2833
   53DOPE  H15S 6780   5.736   5.494  14.068  1.0296  1.3195  3.0495
   53DOPE  C216 6781   5.878   5.342  14.031 -1.1238 -0.0636  0.3210
   53DOPE  H16R 6782   5.929   5.352  14.129 -1.1349 -0.0268  0.3238
   53DOPE  H16S 6783   5.953   5.316  13.953 -0.5086 -0.9192  1.1714
   53DOPE  C217 6784   5.778   5.225  14.042 -0.2536  0.5194  0.0254
   53DOPE  H17R 6785   5.821   5.131  14.082 -0.6600  0.1973 -0.2849
   53DOPE  H17S 6786   5.760   5.202  13.934  0.0161 -1.7533  0.4195
   53DOPE  C218 6787   5.646   5.264  14.108 -0.5926  0.2503  0.4350
   53DOPE  H18R 6788   5.603   5.168  14.143  2.0796 -1.8663 -1.6964
   53DOPE  H18S 6789   5.572   5.326  14.051 -0.9316 -0.2219  0.3567
   53DOPE  H18T 6790   5.663   5.318  14.204 -0.8706  0.4848  0.3565
   53DOPE   C33 6791   5.784   6.776  13.316 -0.3631  0.5724 -0.1274
   53DOPE   H3X 6792   5.816   6.873  13.359  1.7141  0.2127 -0.7317
   53DOPE   H3Y 6793   5.870   6.747  13.251  0.3770  1.5561  0.3938
   53DOPE   C34 6794   5.774   6.669  13.427  0.6261 -0.0974  0.0917
   53DOPE   H4X 6795   5.687   6.699  13.490  0.7084  0.0113  0.1529
   53DOPE   H4Y 6796   5.752   6.568  13.386  2.1188  0.2253 -1.6146
   53DOPE   C35 6797   5.898   6.661  13.509  0.1887 -0.3161  0.4982
   53DOPE   H5X 6798   5.891   6.760  13.560  0.4386 -0.2643  0.4298
   53DOPE   H5Y 6799   5.987   6.668  13.444  0.4067 -0.2519  0.8009
   53DOPE   C36 6800   5.913   6.553  13.614  0.1963 -0.3531  0.1853
   53DOPE   H6X 6801   5.813   6.540  13.660  1.6836  1.2484  4.3123
   53DOPE   H6Y 6802   5.984   6.593  13.689 -0.0287  3.1322 -1.3012
   53DOPE   C37 6803   5.972   6.423  13.557 -0.3969  0.4195  0.2127
   53DOPE   H7X 6804   5.905   6.375  13.482  2.3739 -1.0239 -1.4948
   53DOPE   H7Y 6805   6.061   6.447  13.495 -1.0286  2.6703  0.0576
   53DOPE   C38 6806   6.016   6.319  13.665 -0.0260  0.2766 -0.3243
   53DOPE   H8X 6807   6.048   6.236  13.599 -2.4657 -0.8298 -0.2001
   53DOPE   H8Y 6808   5.926   6.281  13.718  0.4027 -1.0538 -0.5090
   53DOPE   C39 6809   6.132   6.346  13.758 -0.9849  0.8932  0.3646
   53DOPE   H9X 6810   6.218   6.392  13.707 -0.3788 -1.9311 -1.3682
   53DOPE  C310 6811   6.140   6.326  13.890 -0.4423 -0.3343  0.2925
   53DOPE  H10X 6812   6.229   6.351  13.949 -0.2377 -0.8821  0.2129
   53DOPE  C311 6813   6.026   6.273  13.975 -0.2872 -0.3913  1.0813
   53DOPE  H11X 6814   6.012   6.343  14.060 -0.3333  0.4658  0.3822
   53DOPE  H11Y 6815   5.931   6.266  13.919 -0.8824  1.5507  1.7425
   53DOPE  C312 6816   6.050   6.135  14.037 -0.7287  0.2254 -0.8349
   53DOPE  H12X 6817   6.153   6.129  14.079 -1.0237 -0.5228 -0.1863
   53DOPE  H12Y 6818   6.040   6.059  13.956 -0.5394 -0.2536 -0.4188
   53DOPE  C313 6819   5.955   6.098  14.146  0.4524 -0.5624 -1.0428
   53DOPE  H13X 6820   5.852   6.105  14.104  0.3689  2.5305 -0.5362
   53DOPE  H13Y 6821   5.984   6.000  14.190  0.9859  0.0940  0.0930
   53DOPE  C314 6822   5.946   6.201  14.263 -0.1899  0.3902  0.1441
   53DOPE  H14X 6823   5.900   6.295  14.225 -1.1897 -0.3176 -0.4668
   53DOPE  H14Y 6824   6.048   6.223  14.300 -0.6272 -0.5288  2.0763
   53DOPE  C315 6825   5.870   6.147  14.389 -1.1719  0.0272  0.5851
   53DOPE  H15X 6826   5.907   6.045  14.413  0.9673  0.4174 -0.7403
   53DOPE  H15Y 6827   5.762   6.146  14.364 -0.8192 -0.9577 -1.0611
   53DOPE  C316 6828   5.891   6.246  14.512 -0.2250 -0.6616 -0.2021
   53DOPE  H16X 6829   5.805   6.227  14.579  0.3163 -0.3895  0.5777
   53DOPE  H16Y 6830   5.883   6.355  14.492  0.4511 -0.7840 -1.2446
   53DOPE  C317 6831   6.021   6.221  14.585 -0.3046 -0.2644  0.1128
   53DOPE  H17X 6832   6.005   6.114  14.610 -2.1056 -0.8380 -2.9305
   53DOPE  H17Y 6833   6.112   6.218  14.521  0.4114 -1.1541  1.1400
   53DOPE  C318 6834   6.055   6.313  14.700  0.6379 -0.2450 -0.1427
   53DOPE  H18X 6835   5.964   6.371  14.727  0.5964  1.2609 -3.0929
   53DOPE  H18Y 6836   6.090   6.265  14.794 -1.4996  1.5244  1.6708
   53DOPE  H18Z 6837   6.125   6.390  14.662  0.3094  0.8613  1.4158
   54DOPE     N 6838   6.878   4.074  12.067 -0.1465  0.0992 -0.3207
   54DOPE   HN1 6839   6.906   4.069  11.967 -0.6097  0.6037 -0.4771
   54DOPE   HN2 6840   6.779   4.046  12.083 -0.2412  0.0484 -0.9664
   54DOPE   HN3 6841   6.888   4.171  12.101 -0.2202  0.9135 -2.4857
   54DOPE   C12 6842   6.969   3.991  12.152 -0.3001  0.4970 -0.4126
   54DOPE  H12A 6843   7.067   3.979  12.102 -0.6536  1.1677 -1.2982
   54DOPE  H12B 6844   6.944   3.883  12.161  0.5794  0.2604 -0.7687
   54DOPE   C11 6845   6.989   4.061  12.294 -0.5153  0.3048  0.4413
   54DOPE  H11A 6846   7.037   3.992  12.366 -1.2394  0.0575  0.6978
   54DOPE  H11B 6847   6.896   4.100  12.339 -0.4386  0.5377  0.3998
   54DOPE     P 6848   7.179   4.234  12.363  0.0725  0.3561  0.4064
   54DOPE   O13 6849   7.223   4.366  12.310  0.6324  0.5032  0.1858
   54DOPE   O14 6850   7.284   4.128  12.382 -0.4041  0.5474 -0.2487
   54DOPE   O11 6851   7.091   4.257  12.496 -0.2148 -0.2337 -0.4512
   54DOPE   O12 6852   7.070   4.170  12.266 -0.5592  0.2238 -0.2048
   54DOPE    C1 6853   7.004   4.375  12.497 -0.5079  0.3121  0.3416
   54DOPE    HA 6854   6.968   4.401  12.395  0.1405  1.9802  0.4992
   54DOPE    HB 6855   7.062   4.459  12.542 -0.2929  0.4791 -0.2391
   54DOPE    C2 6856   6.878   4.352  12.586  0.1057  0.2397 -0.3204
   54DOPE    HS 6857   6.819   4.445  12.605  0.7607  0.6306 -0.1779
   54DOPE   O21 6858   6.913   4.291  12.707 -0.4533 -0.0838  0.4252
   54DOPE   C21 6859   6.985   4.373  12.786 -0.8095 -0.3029 -0.0780
   54DOPE   O22 6860   7.003   4.490  12.772  0.3156  0.1285  0.0275
   54DOPE   C22 6861   7.027   4.288  12.906 -0.5399  0.3261 -0.7068
   54DOPE   H2R 6862   7.103   4.215  12.868 -0.6490  0.7689 -1.8054
   54DOPE   H2S 6863   6.943   4.227  12.947 -0.1765  0.7404  0.7063
   54DOPE    C3 6864   6.781   4.257  12.511  0.5381 -0.3642 -0.2649
   54DOPE    HX 6865   6.824   4.155  12.513 -1.3095 -1.2322 -1.9128
   54DOPE    HY 6866   6.782   4.290  12.405  1.1629 -2.1948 -0.8603
   54DOPE   O31 6867   6.658   4.271  12.575 -0.3412  0.0230 -0.4739
   54DOPE   C31 6868   6.617   4.163  12.645 -0.2499 -0.0677  0.0861
   54DOPE   O32 6869   6.690   4.075  12.683 -0.7113 -0.1234  0.1411
   54DOPE   C32 6870   6.465   4.167  12.673  0.0383 -0.1203 -0.2016
   54DOPE   H2X 6871   6.429   4.267  12.707 -3.0854 -1.6573  1.4820
   54DOPE   H2Y 6872   6.415   4.142  12.577 -0.4550 -1.1291  0.3030
   54DOPE   C23 6873   7.089   4.363  13.019 -0.5065  0.7584 -1.1330
   54DOPE   H3R 6874   7.023   4.429  13.079 -0.2846 -1.4204  1.7542
   54DOPE   H3S 6875   7.175   4.425  12.986 -0.1490 -0.0354 -1.7211
   54DOPE   C24 6876   7.152   4.266  13.112 -0.3086 -0.0242 -0.1655
   54DOPE   H4R 6877   7.234   4.204  13.072  3.4368  3.5231  1.2435
   54DOPE   H4S 6878   7.077   4.207  13.170  1.3445 -0.9380  1.1127
   54DOPE   C25 6879   7.236   4.356  13.216  0.7847  0.2725  0.2230
   54DOPE   H5R 6880   7.169   4.440  13.245 -0.4025 -0.1381 -1.2162
   54DOPE   H5S 6881   7.325   4.403  13.170 -0.4966  3.2592  0.5789
   54DOPE   C26 6882   7.277   4.271  13.337  0.8832 -0.1584 -0.4716
   54DOPE   H6R 6883   7.343   4.194  13.291 -0.6084 -1.2393 -0.8646
   54DOPE   H6S 6884   7.187   4.218  13.372  0.9292  0.8887  1.3307
   54DOPE   C27 6885   7.348   4.357  13.451 -0.0761 -0.5542 -0.3040
   54DOPE   H7R 6886   7.279   4.435  13.490  0.4961  0.7415 -1.8025
   54DOPE   H7S 6887   7.428   4.420  13.408 -0.8020  0.6990  0.1334
   54DOPE   C28 6888   7.402   4.262  13.565  0.1905 -0.2389  0.8636
   54DOPE   H8R 6889   7.478   4.317  13.625  2.2340 -1.8631 -0.0849
   54DOPE   H8S 6890   7.457   4.177  13.518 -0.6018 -1.1486  1.5658
   54DOPE   C29 6891   7.294   4.205  13.648 -0.0671  0.4397 -0.3236
   54DOPE   H9R 6892   7.209   4.163  13.593 -0.9409 -0.5810  1.6660
   54DOPE  C210 6893   7.291   4.197  13.781  0.1508 -1.0213  0.0256
   54DOPE  H10R 6894   7.216   4.138  13.835 -0.9027  1.0593  0.9574
   54DOPE  C211 6895   7.398   4.253  13.879  0.1960  0.4045 -0.5209
   54DOPE  H11R 6896   7.333   4.311  13.949  0.4760  4.0062 -2.9776
   54DOPE  H11S 6897   7.464   4.330  13.834 -0.8946  0.6745 -1.6881
   54DOPE  C212 6898   7.468   4.141  13.963  0.9157  0.4332 -0.0479
   54DOPE  H12R 6899   7.562   4.110  13.912  1.8202  0.0152  1.7868
   54DOPE  H12S 6900   7.413   4.045  13.971  0.8690  0.5218  0.7904
   54DOPE  C213 6901   7.486   4.172  14.114 -0.6436 -0.0195  0.5954
   54DOPE  H13R 6902   7.389   4.205  14.156 -0.9137 -0.8384  0.6474
   54DOPE  H13S 6903   7.562   4.253  14.117 -0.0551 -0.2828 -2.7675
   54DOPE  C214 6904   7.547   4.055  14.207  0.2670 -0.5507  0.1239
   54DOPE  H14R 6905   7.658   4.057  14.208  0.2482  0.7311  0.8463
   54DOPE  H14S 6906   7.520   3.957  14.163  1.0715 -1.1892  0.9952
   54DOPE  C215 6907   7.503   4.071  14.354  0.3585  0.5510  0.1802
   54DOPE  H15R 6908   7.397   4.035  14.357  0.3461  0.3293 -1.6216
   54DOPE  H15S 6909   7.508   4.172  14.399  3.5692 -0.0977  1.5064
   54DOPE  C216 6910   7.590   3.978  14.441 -0.4118  0.1150  0.2495
   54DOPE  H16R 6911   7.692   4.016  14.419 -1.2611  2.0443 -0.5944
   54DOPE  H16S 6912   7.575   3.879  14.393  0.1320  0.0509  0.2029
   54DOPE  C217 6913   7.568   3.985  14.591 -0.2874  0.1530 -0.5327
   54DOPE  H17R 6914   7.460   3.961  14.600 -0.5039  1.1172 -0.4751
   54DOPE  H17S 6915   7.590   4.088  14.627  0.9840 -0.1963 -0.2645
   54DOPE  C218 6916   7.659   3.881  14.662 -0.1999 -0.5515 -1.2526
   54DOPE  H18R 6917   7.758   3.870  14.612  0.5709  0.1438  0.0623
   54DOPE  H18S 6918   7.618   3.778  14.669  0.2646 -0.6826 -0.2057
   54DOPE  H18T 6919   7.665   3.924  14.764 -2.2031 -1.6985 -0.6018
   54DOPE   C33 6920   6.413   4.068  12.776 -0.0004 -0.0051 -0.1315
   54DOPE   H3X 6921   6.418   3.970  12.723  1.8452  0.1392 -0.2900
   54DOPE   H3Y 6922   6.304   4.083  12.784  0.1407  0.3287  1.5269
   54DOPE   C34 6923   6.486   4.073  12.912 -0.0894 -1.0219  0.1731
   54DOPE   H4X 6924   6.588   4.114  12.893 -0.3489 -0.9447 -1.1104
   54DOPE   H4Y 6925   6.441   4.151  12.977  1.7320  2.6624 -2.6061
   54DOPE   C35 6926   6.502   3.946  13.004 -0.4811 -0.1134 -0.4957
   54DOPE   H5X 6927   6.586   3.890  12.959 -0.4400  0.1543 -0.7538
   54DOPE   H5Y 6928   6.407   3.888  13.003  0.1551 -1.2719  1.4009
   54DOPE   C36 6929   6.541   3.979  13.142  1.0613  0.4022 -0.5272
   54DOPE   H6X 6930   6.461   4.046  13.179 -1.7214 -1.7364 -2.2396
   54DOPE   H6Y 6931   6.637   4.034  13.132 -0.6844  3.5861 -1.1277
   54DOPE   C37 6932   6.568   3.854  13.232 -0.2455  0.1012 -0.1527
   54DOPE   H7X 6933   6.472   3.803  13.250 -0.2645  0.6986  1.6314
   54DOPE   H7Y 6934   6.622   3.782  13.167  0.0458 -0.6603  0.9027
   54DOPE   C38 6935   6.648   3.873  13.364  0.4112  0.0929  0.0799
   54DOPE   H8X 6936   6.601   3.959  13.417 -0.2778  0.5224 -1.2018
   54DOPE   H8Y 6937   6.744   3.908  13.321 -1.1040  0.7926 -2.9709
   54DOPE   C39 6938   6.669   3.756  13.452  0.5414 -0.2281 -0.3902
   54DOPE   H9X 6939   6.635   3.662  13.406  1.6595 -0.3171 -1.0827
   54DOPE  C310 6940   6.703   3.755  13.579  0.0656  0.0410 -0.8255
   54DOPE  H10X 6941   6.710   3.660  13.634  0.5406  0.8534  0.5588
   54DOPE  C311 6942   6.734   3.877  13.660 -0.1521 -0.1163  0.4124
   54DOPE  H11X 6943   6.828   3.923  13.623  0.9215 -0.1903  2.8338
   54DOPE  H11Y 6944   6.656   3.953  13.637  1.8742  1.1983 -2.7408
   54DOPE  C312 6945   6.747   3.874  13.807  0.5247 -0.2055 -0.0429
   54DOPE  H12X 6946   6.652   3.841  13.854  0.5188  1.4589  1.2028
   54DOPE  H12Y 6947   6.750   3.979  13.845 -0.3550  1.0943 -3.2425
   54DOPE  C313 6948   6.870   3.804  13.845 -0.5434 -0.3890 -0.6285
   54DOPE  H13X 6949   6.862   3.694  13.832  1.7844 -0.9723  1.9107
   54DOPE  H13Y 6950   6.961   3.837  13.792 -0.4050  0.5624  0.1624
   54DOPE  C314 6951   6.908   3.832  13.996  0.4333  0.2787 -0.2907
   54DOPE  H14X 6952   6.929   3.939  14.017  2.6225 -0.6343  3.0908
   54DOPE  H14Y 6953   7.007   3.783  14.016  0.9938  1.2996 -0.5066
   54DOPE  C315 6954   6.800   3.778  14.090  0.0446 -0.0654 -0.4010
   54DOPE  H15X 6955   6.700   3.811  14.052  0.6376  0.3591 -1.6543
   54DOPE  H15Y 6956   6.814   3.813  14.195  0.6453  0.1877 -0.5666
   54DOPE  C316 6957   6.809   3.627  14.109  0.2024  0.1858 -0.8211
   54DOPE  H16X 6958   6.816   3.579  14.009  0.9049  1.4191 -1.3900
   54DOPE  H16Y 6959   6.716   3.588  14.157  0.1595  3.3525  2.0320
   54DOPE  C317 6960   6.920   3.590  14.205 -0.8663 -0.3645  0.2830
   54DOPE  H17X 6961   7.014   3.641  14.176 -0.5312 -1.4283 -0.5313
   54DOPE  H17Y 6962   6.893   3.636  14.303 -0.4987 -0.2189  0.3177
   54DOPE  C318 6963   6.928   3.438  14.203 -0.5287 -0.4281 -0.6358
   54DOPE  H18X 6964   7.004   3.407  14.278 -1.2903 -0.1753  0.2447
   54DOPE  H18Y 6965   6.834   3.395  14.242 -0.2050 -0.4992  0.0905
   54DOPE  H18Z 6966   6.962   3.396  14.106 -0.1148 -0.2647 -0.5667
   55DOPE     N 6967   1.106   6.293  12.640  0.4635  0.3030 -0.4973
   55DOPE   HN1 6968   1.085   6.238  12.554  0.5295  2.4152 -1.9262
   55DOPE   HN2 6969   1.066   6.248  12.725  0.4030 -1.0118 -1.1986
   55DOPE   HN3 6970   1.057   6.384  12.629 -0.0454 -0.0403 -1.0973
   55DOPE   C12 6971   1.256   6.312  12.648  0.4582  0.1361  0.6793
   55DOPE  H12A 6972   1.287   6.358  12.745  0.6018 -1.7630  1.5794
   55DOPE  H12B 6973   1.283   6.376  12.561 -0.6076 -0.7346 -0.3064
   55DOPE   C11 6974   1.340   6.185  12.624  0.6182 -0.3416 -0.3421
   55DOPE  H11A 6975   1.333   6.108  12.704  1.6247 -0.2558 -0.1560
   55DOPE  H11B 6976   1.441   6.230  12.619 -0.9089  3.6283  0.4951
   55DOPE     P 6977   1.202   6.040  12.447 -0.3460 -0.2050  0.6342
   55DOPE   O13 6978   1.251   5.955  12.336 -0.6935 -0.1697 -0.1297
   55DOPE   O14 6979   1.086   6.126  12.408 -0.2250 -0.1212  0.0639
   55DOPE   O11 6980   1.165   5.952  12.576 -0.7828 -0.1001  0.4375
   55DOPE   O12 6981   1.319   6.132  12.494 -0.2812  0.0053  0.3355
   55DOPE    C1 6982   1.270   5.859  12.620 -0.3304  0.1895 -0.0397
   55DOPE    HA 6983   1.369   5.907  12.635  0.4709 -1.6385  0.8491
   55DOPE    HB 6984   1.280   5.770  12.554 -0.7252  0.2969 -0.2508
   55DOPE    C2 6985   1.224   5.793  12.756 -0.1668  1.2129 -0.3965
   55DOPE    HS 6986   1.124   5.748  12.736 -0.5746  2.4031 -1.1024
   55DOPE   O21 6987   1.226   5.895  12.854  0.7081 -0.3585  0.4407
   55DOPE   C21 6988   1.132   5.893  12.948 -0.0427 -0.1696  0.1192
   55DOPE   O22 6989   1.029   5.824  12.937 -0.1246  0.2896 -0.0993
   55DOPE   C22 6990   1.187   5.980  13.058 -0.2662 -0.3030 -0.9417
   55DOPE   H2R 6991   1.219   6.077  13.013  2.0045 -1.3997 -1.8206
   55DOPE   H2S 6992   1.277   5.929  13.098  0.2986  1.8442  0.7166
   55DOPE    C3 6993   1.314   5.675  12.818  0.4078 -0.5055  0.5838
   55DOPE    HX 6994   1.409   5.727  12.840  0.3119  0.3334 -0.8752
   55DOPE    HY 6995   1.334   5.599  12.740  2.2646 -0.0965  0.6309
   55DOPE   O31 6996   1.259   5.614  12.937 -0.5367 -0.1950 -0.0880
   55DOPE   C31 6997   1.164   5.526  12.925  0.5921 -0.2900  0.1398
   55DOPE   O32 6998   1.122   5.491  12.813  0.5231 -0.0688 -0.2660
   55DOPE   C32 6999   1.110   5.473  13.059  0.4790 -0.3461 -0.2851
   55DOPE   H2X 7000   1.094   5.566  13.119  3.5528  0.4098 -0.4427
   55DOPE   H2Y 7001   1.020   5.417  13.025 -0.2043  0.7934 -0.4011
   55DOPE   C23 7002   1.091   5.993  13.179  0.0071  0.4927  0.4784
   55DOPE   H3R 7003   0.994   6.028  13.137  0.5922  0.3438 -1.0754
   55DOPE   H3S 7004   1.113   6.079  13.246 -0.8072  0.6366  0.5667
   55DOPE   C24 7005   1.079   5.869  13.263 -0.2744  0.2565  0.3308
   55DOPE   H4R 7006   1.038   5.780  13.210  2.5359 -0.7277 -0.3839
   55DOPE   H4S 7007   1.012   5.890  13.348 -2.4757  2.1379 -1.7086
   55DOPE   C25 7008   1.208   5.806  13.321  0.2419  0.2364  0.2310
   55DOPE   H5R 7009   1.272   5.890  13.356  1.7665 -0.7721 -0.0221
   55DOPE   H5S 7010   1.270   5.768  13.236  0.1740  0.2298  0.1848
   55DOPE   C26 7011   1.187   5.695  13.420 -0.1786  0.3411 -0.8518
   55DOPE   H6R 7012   1.124   5.617  13.371 -1.3850 -0.9873  2.4916
   55DOPE   H6S 7013   1.121   5.722  13.505  1.5751 -0.1236  0.7433
   55DOPE   C27 7014   1.309   5.614  13.462  0.1594  0.4751 -0.8156
   55DOPE   H7R 7015   1.389   5.681  13.500  1.1682 -0.2372 -1.6443
   55DOPE   H7S 7016   1.345   5.549  13.380 -1.5778  1.1105 -2.1502
   55DOPE   C28 7017   1.269   5.510  13.580 -0.4523 -0.3634 -0.0182
   55DOPE   H8R 7018   1.350   5.434  13.579  0.6620  0.8039  0.3553
   55DOPE   H8S 7019   1.180   5.448  13.556 -0.2880 -0.9888  0.9399
   55DOPE   C29 7020   1.263   5.583  13.712 -0.1448  0.4077  0.2070
   55DOPE   H9R 7021   1.173   5.645  13.721 -2.4202 -2.7084  0.5731
   55DOPE  C210 7022   1.346   5.573  13.817 -0.6041  1.0582  0.2050
   55DOPE  H10R 7023   1.326   5.640  13.901 -0.6467  1.6331 -0.2568
   55DOPE  C211 7024   1.471   5.490  13.826 -0.4626 -0.1975  0.2312
   55DOPE  H11R 7025   1.560   5.531  13.880  0.9678 -2.5303 -0.2157
   55DOPE  H11S 7026   1.503   5.479  13.720 -0.4863 -0.2336  0.2284
   55DOPE  C212 7027   1.466   5.355  13.900 -0.4856  0.1674  0.2946
   55DOPE  H12R 7028   1.414   5.271  13.849  2.0479 -2.3346  1.5465
   55DOPE  H12S 7029   1.419   5.377  13.998  0.7947  0.4377  0.8700
   55DOPE  C213 7030   1.608   5.307  13.937  0.7208 -0.2804 -0.2740
   55DOPE  H13R 7031   1.589   5.212  13.992  0.2115 -1.7510 -2.8121
   55DOPE  H13S 7032   1.644   5.373  14.018 -0.2137  1.7684 -1.4363
   55DOPE  C214 7033   1.697   5.270  13.822 -0.8026 -0.3762 -0.7150
   55DOPE  H14R 7034   1.699   5.364  13.763 -1.8808  0.8438  1.0991
   55DOPE  H14S 7035   1.645   5.196  13.757 -2.1576 -0.3683  0.3170
   55DOPE  C215 7036   1.836   5.225  13.880  0.8709 -0.0826 -0.2646
   55DOPE  H15R 7037   1.813   5.129  13.930 -3.0351  0.3651 -0.8956
   55DOPE  H15S 7038   1.870   5.293  13.961 -0.6673 -0.4960  0.7617
   55DOPE  C216 7039   1.953   5.196  13.780 -0.2771  0.5237 -0.2877
   55DOPE  H16R 7040   1.959   5.278  13.706 -0.3766  0.6581 -0.1458
   55DOPE  H16S 7041   1.937   5.099  13.728 -4.3008 -0.1170  1.7598
   55DOPE  C217 7042   2.083   5.184  13.856 -0.6952 -0.4697 -0.0993
   55DOPE  H17R 7043   2.066   5.112  13.939 -0.1108 -0.3350  0.1456
   55DOPE  H17S 7044   2.095   5.278  13.914  1.0356 -1.3201  1.0396
   55DOPE  C218 7045   2.209   5.142  13.789 -0.2786 -0.3427  0.9074
   55DOPE  H18R 7046   2.304   5.131  13.847 -0.1865 -0.0160  0.8251
   55DOPE  H18S 7047   2.235   5.213  13.707  0.5517 -3.1846 -1.4806
   55DOPE  H18T 7048   2.193   5.042  13.745 -2.7588 -0.0542  1.0488
   55DOPE   C33 7049   1.208   5.370  13.130 -0.2225 -0.0864  0.4328
   55DOPE   H3X 7050   1.311   5.398  13.162  0.5066 -0.9386 -1.0093
   55DOPE   H3Y 7051   1.231   5.297  13.049  1.1481  1.7992 -0.9690
   55DOPE   C34 7052   1.138   5.292  13.243 -0.0229  0.5291 -1.0054
   55DOPE   H4X 7053   1.091   5.368  13.310  0.1893 -0.7265  0.6203
   55DOPE   H4Y 7054   1.058   5.230  13.199  1.3561 -0.6147 -1.9741
   55DOPE   C35 7055   1.209   5.181  13.322  0.7509 -0.0062 -0.1016
   55DOPE   H5X 7056   1.281   5.227  13.393 -0.6960  1.5735  0.4168
   55DOPE   H5Y 7057   1.261   5.111  13.253  1.7343 -1.7889  2.3262
   55DOPE   C36 7058   1.106   5.107  13.413 -0.5982 -0.4201 -0.1202
   55DOPE   H6X 7059   1.026   5.064  13.349  0.0877  1.3475 -2.2599
   55DOPE   H6Y 7060   1.054   5.179  13.479  1.4320  1.1398 -0.1325
   55DOPE   C37 7061   1.171   4.980  13.471  0.2371  0.3174 -1.2167
   55DOPE   H7X 7062   1.096   4.914  13.519 -0.2928  0.2900 -2.0665
   55DOPE   H7Y 7063   1.210   4.932  13.378  0.1992  0.6236 -1.3957
   55DOPE   C38 7064   1.285   5.004  13.572 -0.3208 -0.2424  0.1830
   55DOPE   H8X 7065   1.354   5.080  13.530  0.5615 -0.2344  1.5696
   55DOPE   H8Y 7066   1.344   4.910  13.577 -2.6956 -1.7814  1.0539
   55DOPE   C39 7067   1.247   5.054  13.709  0.2085  0.1260  0.5086
   55DOPE   H9X 7068   1.188   5.147  13.711 -1.2583 -0.5676 -2.9357
   55DOPE  C310 7069   1.273   4.993  13.825 -0.0416 -0.2735  0.7051
   55DOPE  H10X 7070   1.234   5.038  13.917  0.2230 -1.2690  1.3164
   55DOPE  C311 7071   1.346   4.864  13.851  0.5012  0.0058  0.2570
   55DOPE  H11X 7072   1.291   4.815  13.933 -0.4378  0.3635 -0.1366
   55DOPE  H11Y 7073   1.338   4.792  13.767 -1.1374 -0.4340  0.7600
   55DOPE  C312 7074   1.494   4.887  13.884 -0.1362 -0.0988 -0.6554
   55DOPE  H12X 7075   1.507   4.922  13.988  0.1485  0.5406 -0.8991
   55DOPE  H12Y 7076   1.534   4.972  13.824 -1.4458  0.6906 -0.4363
   55DOPE  C313 7077   1.573   4.748  13.890  0.1534 -0.2497  0.2449
   55DOPE  H13X 7078   1.514   4.682  13.957  1.1737  0.8313  2.3163
   55DOPE  H13Y 7079   1.572   4.717  13.783 -0.5357  0.3019  0.0839
   55DOPE  C314 7080   1.718   4.745  13.947  0.2272 -0.0723  0.5219
   55DOPE  H14X 7081   1.710   4.754  14.057 -2.1035 -1.8931  0.5781
   55DOPE  H14Y 7082   1.770   4.839  13.919 -2.2480  0.5847 -2.5027
   55DOPE  C315 7083   1.819   4.636  13.905  0.3048 -0.0802 -0.3587
   55DOPE  H15X 7084   1.762   4.550  13.862 -1.3222  0.4492  0.6650
   55DOPE  H15Y 7085   1.858   4.582  13.994 -1.6790 -0.8417  0.1101
   55DOPE  C316 7086   1.930   4.678  13.816 -0.0037 -0.0051  0.6167
   55DOPE  H16X 7087   1.993   4.590  13.791 -2.4774 -1.4870 -0.7735
   55DOPE  H16Y 7088   1.989   4.758  13.866 -0.7873 -0.1761  1.8541
   55DOPE  C317 7089   1.885   4.736  13.675  0.1972  0.4127 -0.1296
   55DOPE  H17X 7090   1.834   4.662  13.609  1.0490  0.4645 -0.8632
   55DOPE  H17Y 7091   1.802   4.803  13.707 -1.1137 -0.7868 -0.8914
   55DOPE  C318 7092   1.994   4.815  13.599  0.3338  0.1615 -0.2280
   55DOPE  H18X 7093   1.950   4.869  13.512  1.5753 -0.0452 -0.9998
   55DOPE  H18Y 7094   2.028   4.885  13.678  1.5008  0.7390 -1.2145
   55DOPE  H18Z 7095   2.087   4.759  13.579  0.6758 -0.0253  1.6715
   56DOPE     N 7096   0.798   6.640  12.116  0.9368 -0.5110  0.1422
   56DOPE   HN1 7097   0.760   6.654  12.020  0.5431  1.6664  0.5587
   56DOPE   HN2 7098   0.892   6.686  12.118  0.5554  0.3459 -0.7026
   56DOPE   HN3 7099   0.793   6.540  12.143 -0.3196 -0.3825  0.4112
   56DOPE   C12 7100   0.721   6.725  12.217  0.6404 -0.1336 -0.7337
   56DOPE  H12A 7101   0.651   6.653  12.266  0.2219 -1.2108 -2.8194
   56DOPE  H12B 7102   0.656   6.793  12.158  1.5350  2.5641  1.1860
   56DOPE   C11 7103   0.813   6.802  12.310  0.4284  0.0139 -0.2851
   56DOPE  H11A 7104   0.870   6.730  12.373 -0.1495  0.3048  0.5967
   56DOPE  H11B 7105   0.748   6.849  12.387  0.2604 -1.6074  0.6103
   56DOPE     P 7106   1.032   6.948  12.297  0.1804 -0.1873 -0.3873
   56DOPE   O13 7107   1.101   6.994  12.177  0.2855 -0.0493  0.1130
   56DOPE   O14 7108   1.098   6.845  12.380  0.2401  0.3324  0.2647
   56DOPE   O11 7109   0.998   7.086  12.370  0.4854  0.8051 -0.1589
   56DOPE   O12 7110   0.885   6.904  12.242 -0.2162  0.9954  0.3211
   56DOPE    C1 7111   0.907   7.091  12.477 -0.6654 -0.1415 -0.5241
   56DOPE    HA 7112   0.926   7.007  12.547 -0.3377 -2.4294 -3.2322
   56DOPE    HB 7113   0.802   7.071  12.447 -0.5657  0.0908 -1.0389
   56DOPE    C2 7114   0.922   7.223  12.560  0.0930 -0.1591  0.3229
   56DOPE    HS 7115   0.905   7.315  12.501 -1.0509 -0.2326  0.5174
   56DOPE   O21 7116   1.053   7.231  12.612 -0.3810 -0.3126 -0.3195
   56DOPE   C21 7117   1.083   7.349  12.666 -0.3183  0.5298 -1.2459
   56DOPE   O22 7118   1.032   7.452  12.634  0.6407  0.6339 -0.3326
   56DOPE   C22 7119   1.183   7.322  12.778 -0.1257 -0.1809 -0.2886
   56DOPE   H2R 7120   1.264   7.260  12.733 -0.4174  1.0275 -2.5922
   56DOPE   H2S 7121   1.138   7.263  12.860  1.5931  0.7337  1.3973
   56DOPE    C3 7122   0.804   7.218  12.662 -0.3096  0.4432  0.0930
   56DOPE    HX 7123   0.715   7.162  12.627  0.5546 -1.6327  1.0313
   56DOPE    HY 7124   0.773   7.321  12.690  1.2641  1.0986 -0.4464
   56DOPE   O31 7125   0.853   7.161  12.779  0.6001 -0.3413 -0.8920
   56DOPE   C31 7126   0.793   7.055  12.833  0.4677  0.3173  0.1174
   56DOPE   O32 7127   0.689   7.000  12.793  0.0112  0.0416  0.3526
   56DOPE   C32 7128   0.879   7.012  12.951  1.0675  0.3366  0.4211
   56DOPE   H2X 7129   0.893   6.905  12.928  0.4123  0.6778 -1.8933
   56DOPE   H2Y 7130   0.982   7.052  12.959  1.2616 -0.3260  1.3180
   56DOPE   C23 7131   1.245   7.460  12.828  0.5641  0.7237 -0.6703
   56DOPE   H3R 7132   1.267   7.539  12.753 -1.6973  1.4945 -0.6021
   56DOPE   H3S 7133   1.343   7.438  12.875  0.3791  1.0902 -0.1046
   56DOPE   C24 7134   1.149   7.521  12.929 -0.4567  0.1989  0.0743
   56DOPE   H4R 7135   1.137   7.451  13.015 -1.5551  0.7713  0.4166
   56DOPE   H4S 7136   1.049   7.544  12.885 -0.7395  0.7475  0.9644
   56DOPE   C25 7137   1.197   7.659  12.985  0.3441  1.1040 -0.0772
   56DOPE   H5R 7138   1.217   7.734  12.905 -0.4089  0.7139 -0.6491
   56DOPE   H5S 7139   1.294   7.642  13.036  0.0846 -2.8963 -0.6040
   56DOPE   C26 7140   1.096   7.734  13.081 -0.1825 -0.7064 -0.3699
   56DOPE   H6R 7141   1.007   7.753  13.017 -1.4306 -1.0293  1.2156
   56DOPE   H6S 7142   1.128   7.832  13.123 -3.1793  0.8915 -1.5295
   56DOPE   C27 7143   1.060   7.660  13.214  0.3037  0.1950 -0.3847
   56DOPE   H7R 7144   1.037   7.554  13.188 -2.1525  0.3331  0.9707
   56DOPE   H7S 7145   0.977   7.712  13.266  0.9119 -0.2389  1.0690
   56DOPE   C28 7146   1.185   7.665  13.300  0.4203 -0.2467 -0.4226
   56DOPE   H8R 7147   1.209   7.768  13.334 -0.5678 -0.1562  0.0207
   56DOPE   H8S 7148   1.265   7.616  13.241  0.5188  0.9119 -1.3042
   56DOPE   C29 7149   1.157   7.581  13.424  0.0845  0.3263 -0.2653
   56DOPE   H9R 7150   1.168   7.472  13.415  1.5137  0.5502 -1.6108
   56DOPE  C210 7151   1.081   7.618  13.524 -0.3958  0.4347 -0.3476
   56DOPE  H10R 7152   1.061   7.541  13.600  1.3893 -1.2112 -1.4615
   56DOPE  C211 7153   1.017   7.751  13.538 -0.3753 -0.1181 -0.1810
   56DOPE  H11R 7154   0.906   7.756  13.545 -0.4459 -1.1790 -0.4569
   56DOPE  H11S 7155   1.041   7.817  13.452 -1.6052  1.3001  0.5107
   56DOPE  C212 7156   1.078   7.833  13.653  0.7649 -0.1905  0.3457
   56DOPE  H12R 7157   1.056   7.941  13.641  0.8169 -0.2262 -0.1040
   56DOPE  H12S 7158   1.187   7.829  13.636  0.6313  1.0121 -1.0817
   56DOPE  C213 7159   1.052   7.769  13.798  0.1760  0.0718  0.0822
   56DOPE  H13R 7160   1.072   7.841  13.880 -0.8708 -0.2672  0.6603
   56DOPE  H13S 7161   1.128   7.688  13.805  0.7888  0.5132 -1.1711
   56DOPE  C214 7162   0.909   7.712  13.812 -0.3334 -0.2302 -0.0976
   56DOPE  H14R 7163   0.895   7.619  13.753 -0.6362 -1.7236  2.1841
   56DOPE  H14S 7164   0.848   7.794  13.770 -1.8526 -2.2920 -2.1366
   56DOPE  C215 7165   0.867   7.684  13.953  0.6272  0.1192  0.5882
   56DOPE  H15R 7166   0.852   7.773  14.018 -0.9976  0.3623 -0.0570
   56DOPE  H15S 7167   0.942   7.626  14.011  0.0771  1.4562  2.7169
   56DOPE  C216 7168   0.738   7.600  13.966 -0.0299 -0.7270  0.2954
   56DOPE  H16R 7169   0.754   7.491  13.956 -2.9080 -1.6708  3.6549
   56DOPE  H16S 7170   0.663   7.631  13.890  0.1319  2.0408  1.1575
   56DOPE  C217 7171   0.684   7.607  14.109 -0.0706  0.0055  0.1213
   56DOPE  H17R 7172   0.672   7.705  14.159 -0.4801 -0.3064  0.6476
   56DOPE  H17S 7173   0.761   7.554  14.170 -0.0494 -0.9877 -0.7562
   56DOPE  C218 7174   0.565   7.514  14.124  1.0947  0.2730  0.1017
   56DOPE  H18R 7175   0.473   7.558  14.079 -0.6719  2.1597  4.8829
   56DOPE  H18S 7176   0.538   7.499  14.231 -0.4471  0.3582 -0.2466
   56DOPE  H18T 7177   0.573   7.421  14.063 -4.3066  0.7843 -1.9802
   56DOPE   C33 7178   0.806   7.030  13.090 -0.3166  0.1845 -0.2663
   56DOPE   H3X 7179   0.881   6.964  13.138  0.3783  0.8132 -0.4651
   56DOPE   H3Y 7180   0.703   6.987  13.088 -0.3151  0.0403  1.6512
   56DOPE   C34 7181   0.819   7.171  13.136 -0.8228  0.4693 -0.3062
   56DOPE   H4X 7182   0.751   7.233  13.073 -0.4838  1.8156  0.6054
   56DOPE   H4Y 7183   0.789   7.178  13.243 -0.2802 -1.2580 -0.0081
   56DOPE   C35 7184   0.962   7.234  13.134  0.6272  0.0099  0.9404
   56DOPE   H5X 7185   0.944   7.341  13.155 -3.5298 -0.2615 -0.2571
   56DOPE   H5Y 7186   1.014   7.234  13.036 -0.6521  0.5439  0.2307
   56DOPE   C36 7187   1.049   7.169  13.252  0.0908 -0.0900 -0.8391
   56DOPE   H6X 7188   1.035   7.061  13.231  1.8553 -0.1901 -1.6451
   56DOPE   H6Y 7189   0.993   7.203  13.342  2.6723 -0.6593  1.1106
   56DOPE   C37 7190   1.193   7.212  13.273 -0.0631 -0.0929 -0.0480
   56DOPE   H7X 7191   1.262   7.179  13.193  1.5942  0.4933  1.0958
   56DOPE   H7Y 7192   1.189   7.321  13.255  0.1329  0.1878  1.4741
   56DOPE   C38 7193   1.249   7.159  13.403  0.2458  0.0649  0.1170
   56DOPE   H8X 7194   1.180   7.188  13.486  0.5420  0.4662  0.2306
   56DOPE   H8Y 7195   1.350   7.205  13.412  0.1694  0.3315 -0.3254
   56DOPE   C39 7196   1.268   7.009  13.410 -0.0881 -0.1856  0.4872
   56DOPE   H9X 7197   1.308   6.964  13.318 -2.7798  2.5788 -2.2515
   56DOPE  C310 7198   1.233   6.929  13.514 -0.4549  0.8274 -0.2232
   56DOPE  H10X 7199   1.249   6.821  13.509 -0.1554  0.7896  1.0806
   56DOPE  C311 7200   1.168   6.974  13.643 -0.6873  0.9393 -0.6815
   56DOPE  H11X 7201   1.171   7.082  13.666 -0.4327  0.4916  1.6593
   56DOPE  H11Y 7202   1.061   6.942  13.652  0.3699 -3.3722 -0.9647
   56DOPE  C312 7203   1.234   6.903  13.764 -0.2086  0.2146 -0.3414
   56DOPE  H12X 7204   1.206   6.964  13.852  0.9520  0.4372 -0.1029
   56DOPE  H12Y 7205   1.343   6.912  13.745  0.1131 -1.1278  0.7082
   56DOPE  C313 7206   1.198   6.758  13.784  0.4166  0.4069 -0.0774
   56DOPE  H13X 7207   1.087   6.752  13.774  0.3869  2.0005 -1.2332
   56DOPE  H13Y 7208   1.223   6.681  13.708 -1.4344 -3.2241  2.6490
   56DOPE  C314 7209   1.250   6.699  13.922 -0.2455 -0.5304  0.2471
   56DOPE  H14X 7210   1.195   6.602  13.921 -0.9849 -0.1334 -1.6160
   56DOPE  H14Y 7211   1.211   6.760  14.006  1.1171  0.3563  0.2522
   56DOPE  C315 7212   1.400   6.676  13.926  0.1667 -0.2987 -0.1579
   56DOPE  H15X 7213   1.454   6.772  13.907  0.4740 -0.9883 -3.3892
   56DOPE  H15Y 7214   1.422   6.619  13.833 -1.1145 -0.0786 -0.6080
   56DOPE  C316 7215   1.441   6.600  14.052 -0.6638 -0.5250 -0.0078
   56DOPE  H16X 7216   1.426   6.495  14.018  0.4273 -0.0202 -2.1923
   56DOPE  H16Y 7217   1.385   6.629  14.143  1.5420  0.4464  1.1084
   56DOPE  C317 7218   1.595   6.617  14.079 -0.1972 -0.9115 -0.0343
   56DOPE  H17X 7219   1.645   6.560  13.998  1.6584 -1.0882  1.1549
   56DOPE  H17Y 7220   1.632   6.721  14.075  0.5789 -1.1445  0.7481
   56DOPE  C318 7221   1.638   6.569  14.216 -0.3801 -0.1618  0.3145
   56DOPE  H18X 7222   1.583   6.477  14.243  2.1199 -2.1410 -0.8383
   56DOPE  H18Y 7223   1.748   6.553  14.207 -0.0244  2.4824 -1.3244
   56DOPE  H18Z 7224   1.623   6.648  14.293 -3.5940  1.1040 -1.3964
   57DOPE     N 7225   0.124   2.873  12.150  0.2951 -0.1788  0.2043
   57DOPE   HN1 7226   0.176   2.845  12.236  0.2738 -0.4490  0.1290
   57DOPE   HN2 7227   0.184   2.947  12.110 -0.9082  1.7458  1.7624
   57DOPE   HN3 7228   0.040   2.919  12.191  0.0555  1.3298 -1.8178
   57DOPE   C12 7229   0.107   2.749  12.062 -0.4131  0.6918  0.3573
   57DOPE  H12A 7230   0.206   2.717  12.024 -1.3106  0.1118 -1.6107
   57DOPE  H12B 7231   0.044   2.777  11.975 -0.0152  2.5956  0.6467
   57DOPE   C11 7232   0.049   2.626  12.134  0.8018  0.4533 -0.7743
   57DOPE  H11A 7233   0.039   2.540  12.064 -2.1031  1.6825 -2.0094
   57DOPE  H11B 7234  -0.053   2.662  12.159 -0.2932 -2.1725 -1.0504
   57DOPE     P 7235   0.060   2.464  12.331 -0.0077  0.1513 -0.1591
   57DOPE   O13 7236   0.162   2.413  12.417 -0.5595 -0.0734 -0.0094
   57DOPE   O14 7237   0.010   2.365  12.232 -0.0847 -0.3716  0.4300
   57DOPE   O11 7238  -0.066   2.507  12.413 -0.1278 -0.4403  0.5705
   57DOPE   O12 7239   0.123   2.595  12.255 -0.1851  0.4468  0.0880
   57DOPE    C1 7240  -0.049   2.621  12.494 -0.4167  0.6164 -0.4174
   57DOPE    HA 7241  -0.149   2.665  12.511 -0.1411  1.4923 -0.9695
   57DOPE    HB 7242   0.012   2.706  12.456  0.5458 -0.0099 -0.2991
   57DOPE    C2 7243   0.006   2.582  12.636  0.2688 -0.3370 -0.4134
   57DOPE    HS 7244   0.077   2.500  12.614  0.9388  0.5700 -1.8265
   57DOPE   O21 7245  -0.103   2.526  12.710 -0.1545 -0.5049  0.1339
   57DOPE   C21 7246  -0.087   2.422  12.779 -0.9527 -0.3014 -0.6564
   57DOPE   O22 7247   0.012   2.347  12.796  0.1776 -0.4686 -0.3772
   57DOPE   C22 7248  -0.219   2.410  12.868 -0.3799  0.5090  0.2182
   57DOPE   H2R 7249  -0.285   2.369  12.789  1.2429  3.8879 -3.1923
   57DOPE   H2S 7250  -0.239   2.506  12.920 -0.2831 -0.7378  2.7495
   57DOPE    C3 7251   0.068   2.700  12.721 -0.5656 -0.9296 -0.9434
   57DOPE    HX 7252  -0.004   2.784  12.715  0.0206 -0.4574 -1.5642
   57DOPE    HY 7253   0.161   2.739  12.674  1.2260 -0.1597  2.8743
   57DOPE   O31 7254   0.089   2.665  12.859 -0.0982  0.7356  0.1015
   57DOPE   C31 7255   0.189   2.581  12.878 -0.2890 -0.3036  0.6401
   57DOPE   O32 7256   0.264   2.546  12.788 -0.1851  0.9220  0.3612
   57DOPE   C32 7257   0.188   2.536  13.021 -0.2233  0.8153 -0.0332
   57DOPE   H2X 7258   0.102   2.468  13.038 -1.0089  1.9877  0.8782
   57DOPE   H2Y 7259   0.281   2.478  13.035 -0.6223 -0.1367 -1.1903
   57DOPE   C23 7260  -0.212   2.302  12.983 -0.1142 -0.3076  0.4094
   57DOPE   H3R 7261  -0.133   2.230  12.953  0.4881  0.3360  0.4252
   57DOPE   H3S 7262  -0.307   2.243  12.980  0.8604 -1.9079 -0.1862
   57DOPE   C24 7263  -0.186   2.364  13.118  0.5669  0.6552 -0.0517
   57DOPE   H4R 7264  -0.273   2.431  13.128 -0.3100 -0.3553 -0.6413
   57DOPE   H4S 7265  -0.091   2.422  13.116  0.7620  0.3253 -1.2420
   57DOPE   C25 7266  -0.184   2.270  13.232 -0.5260 -0.1463  0.6353
   57DOPE   H5R 7267  -0.117   2.316  13.308  1.0862 -1.9734  0.4004
   57DOPE   H5S 7268  -0.123   2.182  13.204  1.5731  1.6077 -0.6443
   57DOPE   C26 7269  -0.323   2.236  13.299  0.2831  0.2775 -0.1743
   57DOPE   H6R 7270  -0.376   2.181  13.218 -1.2397  0.3529  0.7107
   57DOPE   H6S 7271  -0.387   2.326  13.314 -0.5263 -0.1446 -0.9546
   57DOPE   C27 7272  -0.304   2.159  13.426  0.3094  0.1025  0.0394
   57DOPE   H7R 7273  -0.253   2.233  13.491  0.0379 -1.3006  1.9104
   57DOPE   H7S 7274  -0.246   2.068  13.399 -0.3382  0.3686 -2.5475
   57DOPE   C28 7275  -0.440   2.117  13.492 -0.1069 -0.8108  0.8405
   57DOPE   H8R 7276  -0.509   2.052  13.434  1.1382 -0.1201 -1.5825
   57DOPE   H8S 7277  -0.493   2.214  13.483 -0.3060 -0.8617  1.4174
   57DOPE   C29 7278  -0.422   2.064  13.627  0.1396  0.2971 -0.6011
   57DOPE   H9R 7279  -0.409   1.955  13.633  0.0846  0.3380  0.4880
   57DOPE  C210 7280  -0.411   2.139  13.737  0.1758 -0.0902 -0.9866
   57DOPE  H10R 7281  -0.371   2.088  13.826 -0.9248  0.4405 -0.1728
   57DOPE  C211 7282  -0.428   2.292  13.732 -0.2692 -0.3407 -0.3107
   57DOPE  H11R 7283  -0.533   2.307  13.701 -0.1749 -0.0545 -0.4975
   57DOPE  H11S 7284  -0.359   2.331  13.654 -0.9070  0.5318 -0.4572
   57DOPE  C212 7285  -0.387   2.376  13.857 -0.6317 -0.6317  0.4329
   57DOPE  H12R 7286  -0.385   2.486  13.847 -0.6375 -0.6614  0.0852
   57DOPE  H12S 7287  -0.283   2.344  13.876 -0.2492  0.5503  0.3977
   57DOPE  C213 7288  -0.482   2.335  13.968 -0.0503  0.6936 -0.4357
   57DOPE  H13R 7289  -0.433   2.364  14.063  1.3413 -0.2648 -0.8429
   57DOPE  H13S 7290  -0.475   2.225  13.980  0.8548  0.9913  2.5369
   57DOPE  C214 7291  -0.625   2.387  13.952 -0.3454  0.1627 -0.5446
   57DOPE  H14R 7292  -0.678   2.346  13.863  1.0908 -0.7951 -0.9864
   57DOPE  H14S 7293  -0.614   2.498  13.947  2.5658 -0.0886 -2.2616
   57DOPE  C215 7294  -0.709   2.343  14.066  0.5357 -0.0595 -0.3578
   57DOPE  H15R 7295  -0.656   2.357  14.163 -2.0547  4.3547  0.7468
   57DOPE  H15S 7296  -0.738   2.240  14.036  0.4493  0.5028 -2.3388
   57DOPE  C216 7297  -0.828   2.430  14.088 -0.1265 -0.0704 -0.0754
   57DOPE  H16R 7298  -0.918   2.373  14.056 -0.4211  1.0528 -1.3423
   57DOPE  H16S 7299  -0.817   2.527  14.035 -1.6800  1.0838  1.5745
   57DOPE  C217 7300  -0.865   2.451  14.238  0.1568 -0.9880  0.7980
   57DOPE  H17R 7301  -0.784   2.511  14.284  0.3537 -1.2565  0.8053
   57DOPE  H17S 7302  -0.873   2.361  14.303 -0.2265  0.7186  3.2900
   57DOPE  C218 7303  -1.000   2.528  14.249  0.0654 -0.2580  0.2757
   57DOPE  H18R 7304  -1.026   2.567  14.350  1.3550  0.5431  0.3166
   57DOPE  H18S 7305  -1.089   2.477  14.205  0.3968  0.1678 -0.9412
   57DOPE  H18T 7306  -1.000   2.627  14.198 -2.7124 -0.9422 -1.2756
   57DOPE   C33 7307   0.170   2.654  13.124  0.6384  0.2495 -0.5158
   57DOPE   H3X 7308   0.071   2.699  13.102 -0.2347 -0.7920  1.1180
   57DOPE   H3Y 7309   0.252   2.726  13.103 -0.7883  1.6812 -1.4314
   57DOPE   C34 7310   0.198   2.627  13.269 -0.0774 -0.6008 -0.1298
   57DOPE   H4X 7311   0.289   2.564  13.267 -0.8717 -1.7470 -1.1677
   57DOPE   H4Y 7312   0.215   2.719  13.330 -0.1186 -1.1247  0.6905
   57DOPE   C35 7313   0.100   2.541  13.342 -0.2974  0.8428 -0.6628
   57DOPE   H5X 7314   0.122   2.443  13.293 -1.9466 -0.5717  1.2186
   57DOPE   H5Y 7315  -0.008   2.568  13.333 -0.7704 -0.0635  1.5038
   57DOPE   C36 7316   0.122   2.530  13.487  0.1598  0.3787 -0.5617
   57DOPE   H6X 7317   0.119   2.630  13.534  0.1619 -0.5167  1.4549
   57DOPE   H6Y 7318   0.226   2.492  13.497 -0.0510 -0.1016 -0.0744
   57DOPE   C37 7319   0.043   2.418  13.556 -0.0739  0.1200  0.5208
   57DOPE   H7X 7320  -0.063   2.451  13.559 -0.4965 -0.7129 -2.4051
   57DOPE   H7Y 7321   0.054   2.341  13.477  0.4788 -0.1024  0.8079
   57DOPE   C38 7322   0.110   2.372  13.683  0.0925  0.5775 -0.2246
   57DOPE   H8X 7323   0.140   2.464  13.737 -2.6661  0.2988  2.0537
   57DOPE   H8Y 7324   0.205   2.318  13.667 -0.1571  0.3934 -1.1007
   57DOPE   C39 7325   0.021   2.304  13.780 -0.3619 -0.0522  0.2003
   57DOPE   H9X 7326  -0.083   2.338  13.788 -1.0463 -2.3132  1.7739
   57DOPE  C310 7327   0.053   2.201  13.851 -0.5052 -0.1684 -0.4210
   57DOPE  H10X 7328  -0.027   2.169  13.920 -0.7246  1.6445  0.2254
   57DOPE  C311 7329   0.178   2.123  13.865  0.3306  0.5676  0.4591
   57DOPE  H11X 7330   0.197   2.056  13.777  0.5329  1.7933 -0.4538
   57DOPE  H11Y 7331   0.264   2.193  13.865 -1.5586  3.0496 -0.5941
   57DOPE  C312 7332   0.176   2.031  13.991 -0.0441  0.6355  0.3437
   57DOPE  H12X 7333   0.086   1.965  13.984 -0.4243  1.3367 -2.0567
   57DOPE  H12Y 7334   0.168   2.093  14.083  1.0454 -1.4886  1.9745
   57DOPE  C313 7335   0.298   1.934  13.987 -0.0750  0.5219  0.7568
   57DOPE  H13X 7336   0.293   1.875  13.893  0.4122  0.1840  0.9420
   57DOPE  H13Y 7337   0.394   1.990  13.985  0.2090  0.0788  1.6931
   57DOPE  C314 7338   0.301   1.840  14.110  0.7734  0.0591  0.2676
   57DOPE  H14X 7339   0.354   1.745  14.089  0.0365 -0.2795 -0.1236
   57DOPE  H14Y 7340   0.199   1.806  14.140  0.6382 -1.1870 -1.4751
   57DOPE  C315 7341   0.354   1.904  14.234 -0.0165 -0.4898 -0.3811
   57DOPE  H15X 7342   0.308   2.002  14.259  1.3223 -0.0610  0.4453
   57DOPE  H15Y 7343   0.460   1.919  14.206 -0.3918  2.6351 -0.5004
   57DOPE  C316 7344   0.326   1.816  14.356  0.5676  0.5490  0.2953
   57DOPE  H16X 7345   0.338   1.713  14.316 -1.1958  0.5530 -0.3267
   57DOPE  H16Y 7346   0.218   1.815  14.383  0.8451 -1.1017  1.4564
   57DOPE  C317 7347   0.424   1.833  14.477  0.6646 -0.3887 -0.0428
   57DOPE  H17X 7348   0.405   1.747  14.544 -0.1087  0.0359  0.3063
   57DOPE  H17Y 7349   0.529   1.840  14.441  0.1267 -0.5885 -1.7790
   57DOPE  C318 7350   0.401   1.950  14.575  0.8223 -0.6587 -0.4811
   57DOPE  H18X 7351   0.430   2.050  14.535  0.2000  1.0451  2.9013
   57DOPE  H18Y 7352   0.302   1.946  14.626  0.1605  0.8249 -1.5795
   57DOPE  H18Z 7353   0.474   1.932  14.657  1.3430  0.3385 -0.7015
   58DOPE     N 7354   0.812   5.668  12.403  0.3241  0.0010 -0.1208
   58DOPE   HN1 7355   0.852   5.646  12.310 -1.5192  2.1579 -1.5218
   58DOPE   HN2 7356   0.804   5.586  12.467 -1.1147 -1.1631 -1.7297
   58DOPE   HN3 7357   0.716   5.703  12.388 -0.3596 -1.4645  0.6000
   58DOPE   C12 7358   0.903   5.775  12.481  0.0158 -0.3623  0.0367
   58DOPE  H12A 7359   0.923   5.858  12.409 -0.2621 -1.4713 -1.3656
   58DOPE  H12B 7360   0.996   5.716  12.500 -0.9323 -1.2678  2.2112
   58DOPE   C11 7361   0.844   5.820  12.611 -0.2182  0.2398  0.2855
   58DOPE  H11A 7362   0.919   5.881  12.667  0.5081 -1.7931  1.6462
   58DOPE  H11B 7363   0.818   5.735  12.677 -1.0762  1.1000  1.1042
   58DOPE     P 7364   0.681   6.012  12.667 -0.4151 -0.5197 -0.4875
   58DOPE   O13 7365   0.553   6.076  12.624 -0.1968  0.6851 -0.0486
   58DOPE   O14 7366   0.794   6.105  12.654 -0.2442 -0.2801  0.7475
   58DOPE   O11 7367   0.678   5.966  12.818 -0.4561 -0.1987  0.3790
   58DOPE   O12 7368   0.717   5.881  12.590 -0.1761 -0.5692  0.1723
   58DOPE    C1 7369   0.575   5.882  12.866 -0.3976  0.0009  0.9088
   58DOPE    HA 7370   0.603   5.775  12.851  1.1563  0.0837  2.8224
   58DOPE    HB 7371   0.482   5.894  12.807  0.8960 -1.0422 -1.4755
   58DOPE    C2 7372   0.561   5.887  13.016  0.3328  0.8567  0.3311
   58DOPE    HS 7373   0.499   5.805  13.059  0.6937 -0.0925 -0.9282
   58DOPE   O21 7374   0.501   6.012  13.056 -0.3171  0.3097 -0.6321
   58DOPE   C21 7375   0.369   6.019  13.034 -0.0826  0.1098  0.9398
   58DOPE   O22 7376   0.305   5.928  12.991 -0.0380  0.5570  0.6053
   58DOPE   C22 7377   0.315   6.154  13.080 -0.8749 -0.1939 -0.5278
   58DOPE   H2R 7378   0.360   6.233  13.016 -1.3054  1.5348  1.1979
   58DOPE   H2S 7379   0.353   6.172  13.183 -1.2288  0.9339 -0.5772
   58DOPE    C3 7380   0.698   5.877  13.089  0.3794  0.1382 -0.9216
   58DOPE    HX 7381   0.763   5.967  13.083  0.5805  0.2391  1.6182
   58DOPE    HY 7382   0.759   5.789  13.062  0.3639  0.5763 -2.4537
   58DOPE   O31 7383   0.665   5.862  13.231 -0.2841  0.0783  0.8861
   58DOPE   C31 7384   0.682   5.746  13.288  0.1609 -1.0413 -0.4056
   58DOPE   O32 7385   0.702   5.642  13.233 -0.0164  0.0459 -0.3773
   58DOPE   C32 7386   0.682   5.769  13.441  1.0888  0.2051 -0.0179
   58DOPE   H2X 7387   0.697   5.878  13.455  1.1499  0.5813 -2.4705
   58DOPE   H2Y 7388   0.577   5.753  13.473  0.8547 -0.6240 -1.1257
   58DOPE   C23 7389   0.163   6.158  13.059 -0.2433 -0.2324 -0.3668
   58DOPE   H3R 7390   0.114   6.106  13.144  0.8285 -0.2219  0.2738
   58DOPE   H3S 7391   0.129   6.104  12.968 -3.4985 -0.0839  0.6344
   58DOPE   C24 7392   0.109   6.299  13.056  0.2734 -0.2345 -0.8958
   58DOPE   H4R 7393   0.146   6.358  13.143 -1.8184 -0.0325 -0.0838
   58DOPE   H4S 7394   0.003   6.273  13.079 -0.4834  0.8530 -2.9195
   58DOPE   C25 7395   0.122   6.379  12.925 -0.3069  0.9513  0.7483
   58DOPE   H5R 7396   0.073   6.322  12.843 -1.6700 -3.7873  4.4454
   58DOPE   H5S 7397   0.227   6.399  12.895 -0.5630  0.8647 -0.2475
   58DOPE   C26 7398   0.054   6.512  12.935  0.3101  0.7437 -0.0689
   58DOPE   H6R 7399   0.115   6.572  13.005  0.6240 -0.8648  1.1106
   58DOPE   H6S 7400  -0.051   6.493  12.968  0.1504 -0.0254 -0.9734
   58DOPE   C27 7401   0.047   6.589  12.806  0.0342 -0.8133  0.4992
   58DOPE   H7R 7402  -0.009   6.531  12.729  0.6971 -0.0457 -0.5857
   58DOPE   H7S 7403   0.148   6.615  12.768 -0.6540 -1.2776 -1.7868
   58DOPE   C28 7404  -0.030   6.724  12.819 -0.2403 -0.1487  0.1241
   58DOPE   H8R 7405  -0.130   6.706  12.865  0.3728 -0.7149  1.2750
   58DOPE   H8S 7406  -0.047   6.764  12.717 -2.1139 -0.7609  0.1629
   58DOPE   C29 7407   0.048   6.839  12.884 -0.2576  0.2852  0.3305
   58DOPE   H9R 7408   0.135   6.872  12.825 -0.6550  1.9436  0.6074
   58DOPE  C210 7409   0.025   6.896  13.005 -0.1461 -0.3684  0.0420
   58DOPE  H10R 7410   0.099   6.967  13.043  1.1046 -0.6930 -1.6359
   58DOPE  C211 7411  -0.085   6.863  13.099  0.3770 -0.0906 -0.6782
   58DOPE  H11R 7412  -0.165   6.799  13.055 -1.6955  2.2123 -0.4468
   58DOPE  H11S 7413  -0.133   6.962  13.114  0.0449 -0.1817 -1.1104
   58DOPE  C212 7414  -0.027   6.804  13.227  0.0423 -0.3979  0.4183
   58DOPE  H12R 7415   0.061   6.861  13.260  0.7064 -1.4880  0.5853
   58DOPE  H12S 7416   0.009   6.701  13.206 -0.9589 -0.9124  1.1467
   58DOPE  C213 7417  -0.128   6.772  13.334  0.2364  0.1578  0.5517
   58DOPE  H13R 7418  -0.202   6.700  13.293  0.6439  0.8516 -1.4971
   58DOPE  H13S 7419  -0.178   6.867  13.360 -1.8109 -0.9587  0.8711
   58DOPE  C214 7420  -0.067   6.714  13.463  0.0760 -0.3534  0.0116
   58DOPE  H14R 7421   0.011   6.785  13.496  1.5873 -1.7099 -0.4555
   58DOPE  H14S 7422  -0.007   6.621  13.448  0.6365 -0.0196  0.1484
   58DOPE  C215 7423  -0.178   6.695  13.574  1.2862 -0.6285 -0.2501
   58DOPE  H15R 7424  -0.251   6.614  13.548  3.0071 -2.7016  1.0103
   58DOPE  H15S 7425  -0.236   6.789  13.580  0.9875 -0.7964 -0.4617
   58DOPE  C216 7426  -0.128   6.669  13.716 -0.3364  0.2130  0.2090
   58DOPE  H16R 7427  -0.210   6.626  13.776 -0.9188 -3.0010 -2.5694
   58DOPE  H16S 7428  -0.100   6.765  13.764 -0.7130  0.2241  0.4080
   58DOPE  C217 7429   0.005   6.584  13.724  0.1559 -0.1087 -0.4122
   58DOPE  H17R 7430   0.082   6.651  13.680 -0.1766  0.0710 -0.7317
   58DOPE  H17S 7431  -0.005   6.489  13.667 -0.0107 -1.1737  1.3140
   58DOPE  C218 7432   0.036   6.549  13.870  0.4518 -0.5259 -0.1312
   58DOPE  H18R 7433  -0.041   6.486  13.918  0.6360  0.2290  1.2031
   58DOPE  H18S 7434   0.054   6.643  13.926  0.8823 -1.2270  0.9416
   58DOPE  H18T 7435   0.131   6.491  13.878  0.2072 -0.7579  1.6339
   58DOPE   C33 7436   0.793   5.692  13.514 -0.1773  0.9196  0.0626
   58DOPE   H3X 7437   0.779   5.709  13.623 -1.2615 -1.5174  0.3802
   58DOPE   H3Y 7438   0.891   5.727  13.475  1.3205 -2.4065  0.4971
   58DOPE   C34 7439   0.807   5.539  13.495  0.1468  0.1569  0.1675
   58DOPE   H4X 7440   0.707   5.491  13.510  0.3937 -0.3036  0.3696
   58DOPE   H4Y 7441   0.840   5.513  13.393 -0.9790  0.5743 -0.3228
   58DOPE   C35 7442   0.897   5.469  13.598 -0.3838  0.2211  0.8764
   58DOPE   H5X 7443   0.989   5.530  13.613  0.3525 -0.7378  0.2870
   58DOPE   H5Y 7444   0.932   5.382  13.539  0.3470  2.4570 -2.2683
   58DOPE   C36 7445   0.835   5.440  13.730 -0.1185  0.5682 -0.1382
   58DOPE   H6X 7446   0.748   5.371  13.733 -0.2527  0.7655  0.4744
   58DOPE   H6Y 7447   0.809   5.524  13.797  0.7992  0.0832  0.8528
   58DOPE   C37 7448   0.934   5.357  13.817 -0.2647  0.0970 -0.4639
   58DOPE   H7X 7449   0.960   5.264  13.761 -0.2434  0.6076 -1.3142
   58DOPE   H7Y 7450   1.030   5.407  13.842 -0.4967  1.0957 -1.4806
   58DOPE   C38 7451   0.863   5.314  13.945  0.4747  0.6480 -1.0775
   58DOPE   H8X 7452   0.773   5.262  13.906  1.3846  0.1693 -2.6506
   58DOPE   H8Y 7453   0.822   5.399  14.004 -2.5867 -0.4010 -1.5279
   58DOPE   C39 7454   0.955   5.236  14.041  0.0152  0.2725  0.3097
   58DOPE   H9X 7455   0.933   5.129  14.041  0.1909  0.2365  0.5579
   58DOPE  C310 7456   1.060   5.280  14.118 -0.5657  0.1624  0.2718
   58DOPE  H10X 7457   1.131   5.211  14.165  1.8301  3.0895  1.2979
   58DOPE  C311 7458   1.107   5.424  14.130  0.1738  0.4235  0.0578
   58DOPE  H11X 7459   1.172   5.455  14.045 -1.4802  0.2487 -1.3140
   58DOPE  H11Y 7460   1.022   5.494  14.113  0.2855  0.1497 -1.8386
   58DOPE  C312 7461   1.188   5.461  14.260  0.2347  0.0995  0.1320
   58DOPE  H12X 7462   1.257   5.545  14.236  0.4505 -0.0424  0.2554
   58DOPE  H12Y 7463   1.252   5.377  14.294  1.6295  1.6107  1.4271
   58DOPE  C313 7464   1.098   5.514  14.371  0.1477 -0.2316  0.6263
   58DOPE  H13X 7465   1.023   5.584  14.329 -0.2366 -0.7511  0.4343
   58DOPE  H13Y 7466   1.035   5.440  14.426 -1.8595 -1.0524 -2.5424
   58DOPE  C314 7467   1.175   5.597  14.476 -0.4707 -0.0683  0.0359
   58DOPE  H14X 7468   1.249   5.670  14.436  1.0566 -1.1872  0.7319
   58DOPE  H14Y 7469   1.240   5.530  14.536  2.5653  1.5818 -1.1597
   58DOPE  C315 7470   1.093   5.685  14.566  0.1870 -0.2661  0.1710
   58DOPE  H15X 7471   1.015   5.746  14.515  0.9033 -0.6107 -1.3863
   58DOPE  H15Y 7472   1.157   5.757  14.621 -0.3573 -0.5907  1.2731
   58DOPE  C316 7473   1.016   5.621  14.678  1.4397  0.0643 -0.4335
   58DOPE  H16X 7474   1.072   5.541  14.731 -0.8206 -1.4129 -0.1734
   58DOPE  H16Y 7475   0.935   5.553  14.644  1.8069 -0.6869  0.1515
   58DOPE  C317 7476   0.957   5.720  14.781  0.1543 -0.7197  0.2523
   58DOPE  H17X 7477   0.910   5.666  14.866 -1.3835 -0.7215 -0.5573
   58DOPE  H17Y 7478   1.047   5.779  14.810 -0.0272  0.0643 -0.7096
   58DOPE  C318 7479   0.848   5.821  14.725  0.4892  0.7957 -0.5255
   58DOPE  H18X 7480   0.886   5.897  14.653 -0.2814  2.7805  1.0512
   58DOPE  H18Y 7481   0.769   5.767  14.669 -0.5058  0.9869  0.6701
   58DOPE  H18Z 7482   0.802   5.877  14.809 -1.5539 -0.5097 -0.7191
   59DOPE     N 7483   0.030   1.193  12.650  0.1978 -0.1065 -0.6973
   59DOPE   HN1 7484   0.126   1.229  12.632  0.1351  0.5222  0.1752
   59DOPE   HN2 7485  -0.047   1.262  12.643  1.8986  1.9040 -0.7479
   59DOPE   HN3 7486   0.025   1.145  12.742  2.6408 -0.6503 -0.7780
   59DOPE   C12 7487   0.012   1.080  12.544 -0.3018  0.1740 -0.5547
   59DOPE  H12A 7488   0.083   1.098  12.461  0.0905  0.0150 -0.2547
   59DOPE  H12B 7489  -0.094   1.090  12.511 -0.0402  0.6881 -1.2592
   59DOPE   C11 7490   0.050   0.947  12.617 -0.1541 -0.2945  0.1733
   59DOPE  H11A 7491   0.155   0.938  12.653  0.5795 -0.7823 -1.9293
   59DOPE  H11B 7492   0.035   0.861  12.549 -0.9647 -0.1662  0.1811
   59DOPE     P 7493  -0.170   0.854  12.711 -0.2887 -0.0578 -0.2820
   59DOPE   O13 7494  -0.138   0.709  12.698 -0.4083 -0.2038 -0.3177
   59DOPE   O14 7495  -0.255   0.917  12.606  0.1916 -0.6934  0.0471
   59DOPE   O11 7496  -0.246   0.883  12.847 -0.2602  0.0883 -0.4790
   59DOPE   O12 7497  -0.043   0.939  12.732 -0.0037  0.0632  0.3017
   59DOPE    C1 7498  -0.250   1.014  12.906 -0.3257  0.4936 -0.4897
   59DOPE    HA 7499  -0.356   1.040  12.927 -0.8501 -2.4899  1.1716
   59DOPE    HB 7500  -0.214   1.092  12.835 -0.4181  1.3774  0.4080
   59DOPE    C2 7501  -0.191   1.017  13.057  0.2110 -0.3950 -0.0606
   59DOPE    HS 7502  -0.193   1.126  13.080 -1.2042 -0.5615  0.7453
   59DOPE   O21 7503  -0.059   0.954  13.056  0.0812 -0.1205  0.2283
   59DOPE   C21 7504   0.035   1.012  12.986  0.3352 -0.6588  0.4374
   59DOPE   O22 7505   0.029   1.123  12.940  0.6862  0.1628  0.1053
   59DOPE   C22 7506   0.155   0.921  12.971 -0.3306  0.0462 -0.0897
   59DOPE   H2R 7507   0.149   0.867  12.874 -1.0055 -0.9496  0.4899
   59DOPE   H2S 7508   0.158   0.841  13.048 -0.2868 -0.4345 -0.5817
   59DOPE    C3 7509  -0.280   0.948  13.168 -0.5723 -0.1593 -0.6065
   59DOPE    HX 7510  -0.263   0.839  13.155  1.1886 -0.2169  1.6234
   59DOPE    HY 7511  -0.384   0.981  13.144 -1.6455 -1.8095  1.3659
   59DOPE   O31 7512  -0.241   0.996  13.299 -0.3730  0.2558 -0.2586
   59DOPE   C31 7513  -0.312   0.945  13.391  0.7785  0.0121 -0.3196
   59DOPE   O32 7514  -0.400   0.863  13.378  0.6705 -0.3401  0.5868
   59DOPE   C32 7515  -0.289   1.021  13.520  0.6296  0.4660  0.8878
   59DOPE   H2X 7516  -0.188   1.066  13.509  0.4295  0.5852 -0.7056
   59DOPE   H2Y 7517  -0.363   1.104  13.525  1.8900  1.6010  1.3058
   59DOPE   C23 7518   0.292   1.003  12.978 -0.5434 -0.0900  0.0441
   59DOPE   H3R 7519   0.289   1.075  12.894 -1.4655  1.2739  1.2021
   59DOPE   H3S 7520   0.372   0.930  12.951  1.0448  1.5882  0.0712
   59DOPE   C24 7521   0.329   1.081  13.107 -0.2918 -0.8950 -0.2355
   59DOPE   H4R 7522   0.316   1.016  13.196  0.5443  1.2454  1.5389
   59DOPE   H4S 7523   0.263   1.169  13.115  1.0125  0.0058  1.3279
   59DOPE   C25 7524   0.482   1.122  13.109  0.6010  0.4017 -0.2969
   59DOPE   H5R 7525   0.545   1.031  13.108 -1.2880 -1.0025  0.7240
   59DOPE   H5S 7526   0.505   1.172  13.205 -1.3975  2.2447 -0.6995
   59DOPE   C26 7527   0.521   1.230  13.005  0.0602  0.7286 -0.0298
   59DOPE   H6R 7528   0.532   1.179  12.906  0.8538 -3.0878  1.8322
   59DOPE   H6S 7529   0.618   1.273  13.036  0.6311 -1.0883  0.8283
   59DOPE   C27 7530   0.423   1.344  12.997 -0.2830  0.1369  0.0173
   59DOPE   H7R 7531   0.397   1.365  13.102  2.1912  1.1230  0.5096
   59DOPE   H7S 7532   0.325   1.324  12.948 -1.4318  3.0970  0.8929
   59DOPE   C28 7533   0.482   1.473  12.943  0.1179 -0.4094 -0.0654
   59DOPE   H8R 7534   0.478   1.471  12.832 -1.9417  3.7162 -0.2562
   59DOPE   H8S 7535   0.590   1.482  12.968  0.1261 -1.3102  0.2612
   59DOPE   C29 7536   0.415   1.602  12.986 -0.2975 -0.1121 -0.2815
   59DOPE   H9R 7537   0.348   1.646  12.910  1.4876  1.3187 -1.1164
   59DOPE  C210 7538   0.426   1.662  13.109  0.2677  0.5560  0.0187
   59DOPE  H10R 7539   0.372   1.757  13.118  0.8856  0.9475 -0.3366
   59DOPE  C211 7540   0.512   1.608  13.227 -0.0382  0.4767 -0.3511
   59DOPE  H11R 7541   0.574   1.696  13.252  0.4285  0.0808 -0.1044
   59DOPE  H11S 7542   0.587   1.536  13.187 -0.0559 -0.4570  1.2238
   59DOPE  C212 7543   0.436   1.566  13.352  0.1141  0.2476 -0.4020
   59DOPE  H12R 7544   0.362   1.485  13.336  0.1524 -0.2631  1.6747
   59DOPE  H12S 7545   0.388   1.648  13.410  0.0727  0.2822 -0.4855
   59DOPE  C213 7546   0.541   1.513  13.452  0.0534  0.6332  0.2166
   59DOPE  H13R 7547   0.618   1.588  13.480 -0.8147  1.5030  0.3543
   59DOPE  H13S 7548   0.602   1.430  13.411  0.9388  0.7341  1.3060
   59DOPE  C214 7549   0.469   1.458  13.575  0.5313 -0.3515 -0.0415
   59DOPE  H14R 7550   0.402   1.373  13.552 -1.1568  0.9145  0.0108
   59DOPE  H14S 7551   0.396   1.536  13.606 -0.5299 -1.9493  1.6323
   59DOPE  C215 7552   0.566   1.419  13.683 -0.1746 -0.3283 -0.8459
   59DOPE  H15R 7553   0.513   1.367  13.766 -0.4927  1.9510  0.4712
   59DOPE  H15S 7554   0.609   1.509  13.732 -0.4146 -0.9470  0.5496
   59DOPE  C216 7555   0.680   1.326  13.633  0.4963  0.2658 -0.8250
   59DOPE  H16R 7556   0.749   1.390  13.574 -0.0062  3.0200  1.3162
   59DOPE  H16S 7557   0.643   1.242  13.570 -0.2631  1.3017 -1.8166
   59DOPE  C217 7558   0.769   1.280  13.746  0.0644  0.4916  0.1564
   59DOPE  H17R 7559   0.703   1.217  13.811  0.3520  1.0648  1.0206
   59DOPE  H17S 7560   0.796   1.366  13.811  0.2816  0.0760  0.6270
   59DOPE  C218 7561   0.894   1.201  13.715 -0.3544 -0.0902 -0.0783
   59DOPE  H18R 7562   0.950   1.171  13.806 -0.0668  0.5707 -0.0325
   59DOPE  H18S 7563   0.955   1.258  13.642  0.4896  0.2111  0.8457
   59DOPE  H18T 7564   0.858   1.110  13.662 -0.8037 -0.2943  0.5673
   59DOPE   C33 7565  -0.303   0.931  13.648  0.1422 -0.1192  0.0829
   59DOPE   H3X 7566  -0.226   0.851  13.639  1.6132  1.1540  0.7335
   59DOPE   H3Y 7567  -0.398   0.874  13.645  1.0991 -2.1311  2.9344
   59DOPE   C34 7568  -0.287   0.996  13.783  0.1038  0.2880  0.3096
   59DOPE   H4X 7569  -0.177   1.003  13.798  0.7078 -2.0176 -2.2276
   59DOPE   H4Y 7570  -0.328   1.097  13.764  1.0679  0.5776 -0.3195
   59DOPE   C35 7571  -0.378   0.932  13.892 -0.0858  0.6371 -0.0220
   59DOPE   H5X 7572  -0.346   0.828  13.912  1.3628  1.1358  0.3449
   59DOPE   H5Y 7573  -0.482   0.942  13.854 -0.6744 -0.6846  1.1552
   59DOPE   C36 7574  -0.359   1.007  14.026  0.1151 -0.1778  0.4687
   59DOPE   H6X 7575  -0.427   0.965  14.104 -0.1786  0.7214  0.7102
   59DOPE   H6Y 7576  -0.398   1.110  14.012 -1.4703 -1.0882 -2.5880
   59DOPE   C37 7577  -0.221   0.995  14.084  0.1875  0.7759 -0.2137
   59DOPE   H7X 7578  -0.208   0.893  14.125  2.1143  1.4864  1.0546
   59DOPE   H7Y 7579  -0.135   1.007  14.016  2.4219 -1.6704  1.9772
   59DOPE   C38 7580  -0.201   1.093  14.204 -0.1893 -0.0348 -0.1956
   59DOPE   H8X 7581  -0.098   1.071  14.241 -0.4503 -0.7585  0.1105
   59DOPE   H8Y 7582  -0.277   1.084  14.283  0.9036 -0.8543  0.8018
   59DOPE   C39 7583  -0.198   1.238  14.151  0.6411 -0.6377 -0.0000
   59DOPE   H9X 7584  -0.268   1.253  14.068  1.4874  2.2154 -0.3187
   59DOPE  C310 7585  -0.120   1.340  14.199  0.0043 -0.3989  0.6109
   59DOPE  H10X 7586  -0.129   1.435  14.144 -0.9200 -1.2632 -0.7996
   59DOPE  C311 7587  -0.025   1.323  14.313 -0.4412 -0.4205 -0.7977
   59DOPE  H11X 7588  -0.064   1.252  14.389 -0.0395 -1.7051 -1.7552
   59DOPE  H11Y 7589   0.060   1.262  14.275 -0.6434 -0.3472 -1.3806
   59DOPE  C312 7590   0.008   1.462  14.378 -0.6932  0.1367  0.2748
   59DOPE  H12X 7591  -0.061   1.492  14.460 -0.1559  0.7989  0.4943
   59DOPE  H12Y 7592   0.020   1.539  14.299  2.6153 -1.3869 -0.9007
   59DOPE  C313 7593   0.154   1.485  14.434 -0.2848 -0.1949 -0.6535
   59DOPE  H13X 7594   0.232   1.494  14.355 -1.0583  0.5106 -1.3527
   59DOPE  H13Y 7595   0.167   1.588  14.474  1.1716 -0.6156  0.0456
   59DOPE  C314 7596   0.184   1.388  14.546  0.3990  0.2276 -0.0580
   59DOPE  H14X 7597   0.191   1.279  14.526  5.2384  0.1148  1.0532
   59DOPE  H14Y 7598   0.103   1.393  14.621  0.9758  0.5625  0.5530
   59DOPE  C315 7599   0.319   1.429  14.617  0.1590 -0.1875  0.6585
   59DOPE  H15X 7600   0.325   1.363  14.705 -0.0960 -0.5558  0.4043
   59DOPE  H15Y 7601   0.309   1.534  14.654  1.3270  0.2266 -0.1471
   59DOPE  C316 7602   0.436   1.400  14.522  0.1895  0.0108 -0.1436
   59DOPE  H16X 7603   0.439   1.432  14.416  0.9071  0.2447 -0.0568
   59DOPE  H16Y 7604   0.449   1.290  14.525  0.8281  0.0966  1.0951
   59DOPE  C317 7605   0.566   1.461  14.579  0.2560  0.4294  0.4992
   59DOPE  H17X 7606   0.557   1.572  14.572 -0.1440  0.3645 -0.1287
   59DOPE  H17Y 7607   0.576   1.425  14.684  0.2097  1.7177  0.9685
   59DOPE  C318 7608   0.685   1.398  14.509  0.0539  0.2129  0.6568
   59DOPE  H18X 7609   0.705   1.442  14.408  1.0107 -0.5896  0.4838
   59DOPE  H18Y 7610   0.775   1.416  14.572  1.6434  0.5832 -1.5916
   59DOPE  H18Z 7611   0.687   1.289  14.492  0.1771  0.1950  0.7885
   60DOPE     N 7612   1.244   6.896  12.590  0.2082 -0.1719  0.1123
   60DOPE   HN1 7613   1.167   6.876  12.523  1.1767  0.4622 -1.2388
   60DOPE   HN2 7614   1.282   6.989  12.563  0.0237 -0.4968 -1.3658
   60DOPE   HN3 7615   1.310   6.816  12.579 -1.7511 -2.0430  1.2864
   60DOPE   C12 7616   1.207   6.895  12.738  0.0031 -0.3412 -0.0318
   60DOPE  H12A 7617   1.163   6.995  12.756  3.4243  1.5838 -1.4991
   60DOPE  H12B 7618   1.299   6.870  12.794 -0.2235 -0.3479  0.3433
   60DOPE   C11 7619   1.121   6.766  12.766 -0.4793  0.8954  0.0684
   60DOPE  H11A 7620   1.098   6.762  12.875 -1.3693  0.6663 -0.1227
   60DOPE  H11B 7621   1.184   6.676  12.749 -1.4956 -0.4414  2.6996
   60DOPE     P 7622   0.909   6.643  12.679  0.1069  0.4003  0.0579
   60DOPE   O13 7623   0.970   6.526  12.620 -0.0785  0.6314  0.1234
   60DOPE   O14 7624   0.779   6.692  12.625 -0.0645 -0.6944 -0.4443
   60DOPE   O11 7625   0.885   6.609  12.833  0.0662  0.3163 -0.0029
   60DOPE   O12 7626   1.011   6.766  12.681 -0.3726 -0.5529 -0.0195
   60DOPE    C1 7627   0.819   6.487  12.874  0.4031  0.3349  0.0981
   60DOPE    HA 7628   0.835   6.476  12.983 -0.6318  4.1796  0.7788
   60DOPE    HB 7629   0.861   6.400  12.818 -0.5210 -0.8803  1.2278
   60DOPE    C2 7630   0.670   6.492  12.870  0.7851 -0.0470  0.2523
   60DOPE    HS 7631   0.641   6.503  12.763 -1.7817 -0.6837  0.8060
   60DOPE   O21 7632   0.629   6.609  12.942 -0.3599 -0.2926  0.2166
   60DOPE   C21 7633   0.499   6.633  12.940 -0.0768  0.9329  0.2212
   60DOPE   O22 7634   0.420   6.577  12.863  0.0071 -0.3913 -0.3453
   60DOPE   C22 7635   0.473   6.746  13.031 -0.4219 -0.3596  0.0609
   60DOPE   H2R 7636   0.454   6.829  12.959 -0.1383 -0.2478  0.1121
   60DOPE   H2S 7637   0.571   6.776  13.073  0.4977 -0.1540 -2.0868
   60DOPE    C3 7638   0.600   6.358  12.921  0.3237 -0.1286  0.3761
   60DOPE    HX 7639   0.646   6.278  12.859 -1.1932 -0.3988 -0.4382
   60DOPE    HY 7640   0.492   6.361  12.895  0.7269 -0.4938 -1.4778
   60DOPE   O31 7641   0.610   6.336  13.064  0.0912 -0.4788  0.1153
   60DOPE   C31 7642   0.716   6.279  13.113 -0.0567 -0.0794  0.0953
   60DOPE   O32 7643   0.800   6.216  13.048 -0.0811 -0.2872 -0.1793
   60DOPE   C32 7644   0.712   6.294  13.267 -0.3195 -0.2586 -0.1335
   60DOPE   H2X 7645   0.749   6.397  13.290  1.1789 -1.1160  1.5326
   60DOPE   H2Y 7646   0.605   6.281  13.296 -0.7627  0.4015 -1.4010
   60DOPE   C23 7647   0.349   6.728  13.112 -0.0353  0.9505 -0.0492
   60DOPE   H3R 7648   0.255   6.701  13.059  0.9959 -1.6640 -0.6844
   60DOPE   H3S 7649   0.322   6.822  13.166  1.4211  1.4393 -0.1395
   60DOPE   C24 7650   0.374   6.619  13.218 -0.0339  0.2066 -0.1233
   60DOPE   H4R 7651   0.472   6.635  13.267 -1.5450  0.3941  3.0618
   60DOPE   H4S 7652   0.372   6.522  13.164  1.2871 -1.5775  2.8108
   60DOPE   C25 7653   0.260   6.601  13.320  0.5412  0.0305  0.3453
   60DOPE   H5R 7654   0.175   6.540  13.282  0.6774 -0.3945  0.7202
   60DOPE   H5S 7655   0.213   6.700  13.342 -3.0514 -0.9844 -1.8357
   60DOPE   C26 7656   0.317   6.549  13.455 -0.6386  0.6767  0.0226
   60DOPE   H6R 7657   0.236   6.561  13.530  0.5756 -1.0378  1.6901
   60DOPE   H6S 7658   0.398   6.615  13.491 -3.2080  3.2836  1.4515
   60DOPE   C27 7659   0.353   6.398  13.449 -0.1644 -0.0653 -0.0080
   60DOPE   H7R 7660   0.427   6.385  13.367 -0.8779 -0.6974 -0.5711
   60DOPE   H7S 7661   0.263   6.339  13.421  1.5460 -1.4441 -3.0203
   60DOPE   C28 7662   0.408   6.346  13.590  0.6435 -0.5255 -0.1533
   60DOPE   H8R 7663   0.410   6.235  13.589  1.3504 -0.5226 -1.4481
   60DOPE   H8S 7664   0.332   6.357  13.670  1.1795 -0.5446  0.3656
   60DOPE   C29 7665   0.538   6.411  13.640 -0.3903 -1.0564 -0.5509
   60DOPE   H9R 7666   0.632   6.356  13.623  1.7205  2.3416 -0.7834
   60DOPE  C210 7667   0.544   6.528  13.711 -0.3864 -0.8728  0.6445
   60DOPE  H10R 7668   0.641   6.571  13.741 -0.3312 -0.3607 -0.2138
   60DOPE  C211 7669   0.433   6.615  13.755  0.1036  0.2091  0.4016
   60DOPE  H11R 7670   0.336   6.567  13.732 -0.2282  1.2213 -0.3765
   60DOPE  H11S 7671   0.425   6.711  13.700 -1.0802  0.0686  0.3005
   60DOPE  C212 7672   0.433   6.632  13.906 -0.3935 -0.4924 -0.3994
   60DOPE  H12R 7673   0.339   6.686  13.933  0.6494  0.6690  1.0639
   60DOPE  H12S 7674   0.521   6.692  13.935 -0.3629 -0.7149 -0.0179
   60DOPE  C213 7675   0.419   6.497  13.974  0.0403 -0.1096 -0.4478
   60DOPE  H13R 7676   0.511   6.435  13.982  0.6481  0.7953 -0.2996
   60DOPE  H13S 7677   0.338   6.439  13.924 -1.2654  2.4187 -1.4438
   60DOPE  C214 7678   0.382   6.519  14.120  0.3853 -0.5150 -0.2643
   60DOPE  H14R 7679   0.285   6.569  14.100  0.4293 -0.9667 -1.7285
   60DOPE  H14S 7680   0.451   6.595  14.164  0.1864 -0.1113 -0.6348
   60DOPE  C215 7681   0.347   6.391  14.194 -0.0909 -0.8447  0.0653
   60DOPE  H15R 7682   0.444   6.346  14.222  1.4181  1.1864 -1.5757
   60DOPE  H15S 7683   0.277   6.332  14.130 -1.3938  0.5544  0.1301
   60DOPE  C216 7684   0.259   6.428  14.322 -0.3946  0.4059 -0.1528
   60DOPE  H16R 7685   0.218   6.334  14.363 -1.3035  1.6687  2.0003
   60DOPE  H16S 7686   0.168   6.473  14.279 -0.9997 -0.4425  0.2207
   60DOPE  C217 7687   0.313   6.507  14.439  0.0644 -0.4614  0.0613
   60DOPE  H17R 7688   0.343   6.608  14.403 -4.3667  0.7258 -0.9222
   60DOPE  H17S 7689   0.397   6.451  14.486 -0.0242 -2.2806 -1.7678
   60DOPE  C218 7690   0.205   6.544  14.541 -0.5034  0.6145 -0.3970
   60DOPE  H18R 7691   0.132   6.609  14.490 -1.0575  1.5422  1.4959
   60DOPE  H18S 7692   0.260   6.591  14.626  1.6115 -2.7073  0.2841
   60DOPE  H18T 7693   0.163   6.447  14.575 -1.2763  0.3337 -2.0597
   60DOPE   C33 7694   0.808   6.186  13.325  0.9518  0.3995 -0.8220
   60DOPE   H3X 7695   0.913   6.182  13.291  1.3872 -0.2890  0.5460
   60DOPE   H3Y 7696   0.774   6.082  13.302  1.1345 -0.3816  2.0905
   60DOPE   C34 7697   0.801   6.176  13.474  0.2419  0.2426  0.0503
   60DOPE   H4X 7698   0.827   6.277  13.513  0.6647 -0.1630  0.8466
   60DOPE   H4Y 7699   0.701   6.151  13.514  0.1006 -0.2292 -0.5821
   60DOPE   C35 7700   0.899   6.073  13.532  0.2293 -0.3504 -0.3662
   60DOPE   H5X 7701   1.003   6.113  13.527 -0.1434  1.2061  2.3126
   60DOPE   H5Y 7702   0.903   5.987  13.462  0.3633 -0.0621 -0.7158
   60DOPE   C36 7703   0.851   6.033  13.672 -0.7113  0.3848 -0.3044
   60DOPE   H6X 7704   0.753   5.983  13.654 -2.1713  3.1315 -0.7555
   60DOPE   H6Y 7705   0.832   6.121  13.738  1.4305  0.3746  0.3851
   60DOPE   C37 7706   0.941   5.929  13.745 -0.3038  0.0548 -0.7058
   60DOPE   H7X 7707   0.965   5.843  13.679 -3.7306 -2.1323  0.6648
   60DOPE   H7Y 7708   1.039   5.971  13.775 -0.8312  0.8471 -0.0684
   60DOPE   C38 7709   0.882   5.865  13.877 -0.1317 -0.7872 -0.2033
   60DOPE   H8X 7710   0.805   5.795  13.839  1.3216 -1.7343 -1.5433
   60DOPE   H8Y 7711   0.839   5.948  13.937 -0.1761 -0.9612  0.0056
   60DOPE   C39 7712   0.987   5.787  13.960  0.4065 -0.2170  0.7778
   60DOPE   H9X 7713   1.065   5.737  13.900  0.2432  0.4626 -0.0161
   60DOPE  C310 7714   0.994   5.769  14.095 -0.3826  0.1064  0.1688
   60DOPE  H10X 7715   1.071   5.701  14.135  0.6787  0.6702 -0.8735
   60DOPE  C311 7716   0.893   5.830  14.190 -0.7802  0.1715  0.0831
   60DOPE  H11X 7717   0.803   5.861  14.134 -0.7475  0.8071  0.3780
   60DOPE  H11Y 7718   0.848   5.750  14.252 -0.8683  0.8255  0.8718
   60DOPE  C312 7719   0.963   5.946  14.264  0.0166 -0.1905  0.1259
   60DOPE  H12X 7720   1.003   6.025  14.197  1.7007 -0.4450  0.7755
   60DOPE  H12Y 7721   1.051   5.915  14.325 -1.8563 -0.3322  2.9157
   60DOPE  C313 7722   0.880   6.011  14.378 -0.2089  0.4237  0.1793
   60DOPE  H13X 7723   0.784   6.049  14.337  0.1955  0.5978 -0.6316
   60DOPE  H13Y 7724   0.846   5.939  14.455  4.1532 -0.8584  1.1965
   60DOPE  C314 7725   0.950   6.119  14.459 -0.0654 -0.6031 -0.0673
   60DOPE  H14X 7726   1.040   6.067  14.498  1.4033  1.7371 -0.1400
   60DOPE  H14Y 7727   0.875   6.143  14.538 -2.2008 -0.7227 -1.9345
   60DOPE  C315 7728   0.993   6.248  14.383  0.2529  0.2498  0.1881
   60DOPE  H15X 7729   0.892   6.286  14.354 -0.3714 -2.7293 -2.1457
   60DOPE  H15Y 7730   1.037   6.222  14.285  0.6117  1.5365 -0.0109
   60DOPE  C316 7731   1.057   6.353  14.469 -0.0157 -0.1028 -0.3088
   60DOPE  H16X 7732   1.122   6.313  14.550 -0.9995 -0.1306  0.4772
   60DOPE  H16Y 7733   0.982   6.407  14.530  0.2720  0.9388 -0.8564
   60DOPE  C317 7734   1.152   6.450  14.397 -0.1022  0.7469  0.1598
   60DOPE  H17X 7735   1.094   6.502  14.318  0.8792 -0.2086 -1.2352
   60DOPE  H17Y 7736   1.192   6.531  14.462 -0.9718  1.6335 -0.3845
   60DOPE  C318 7737   1.272   6.387  14.323 -0.3898  0.1751  0.1774
   60DOPE  H18X 7738   1.342   6.332  14.391 -0.6567 -1.5738 -0.8991
   60DOPE  H18Y 7739   1.240   6.300  14.262 -0.1500 -1.1611  1.8489
   60DOPE  H18Z 7740   1.329   6.454  14.256 -0.0611  0.7242  0.9814
   6123SM     N 7741   2.721   4.733  16.390 -0.5230  0.2950 -0.1501
   6123SM   C15 7742   2.719   4.589  16.443  0.1942 -0.0172 -0.3118
   6123SM  H15A 7743   2.687   4.518  16.369 -2.4884  1.7116 -0.9387
   6123SM  H15B 7744   2.653   4.577  16.527  0.6612 -3.5671 -0.3306
   6123SM  H15C 7745   2.820   4.564  16.474 -0.1878 -1.3688 -0.1219
   6123SM   C14 7746   2.597   4.767  16.325  0.4823 -0.1371  0.3955
   6123SM  H14A 7747   2.513   4.725  16.378 -0.8534  1.4043 -0.4066
   6123SM  H14B 7748   2.589   4.708  16.235  2.0428  0.7892 -0.3882
   6123SM  H14C 7749   2.595   4.870  16.294  0.7407 -0.1015  0.4920
   6123SM   C13 7750   2.740   4.829  16.504 -0.3919 -0.3930  0.1591
   6123SM  H13A 7751   2.644   4.849  16.548 -1.3902 -1.0587 -1.5986
   6123SM  H13B 7752   2.773   4.927  16.473 -0.9334 -0.2279  0.0915
   6123SM  H13C 7753   2.813   4.787  16.571  0.4436  1.0483  0.2117
   6123SM   C12 7754   2.836   4.744  16.293 -0.0772 -0.0897  0.1364
   6123SM  H12A 7755   2.927   4.724  16.346 -0.1867  0.3497  0.5041
   6123SM  H12B 7756   2.844   4.847  16.261 -0.1489  0.0127  0.4395
   6123SM   C11 7757   2.825   4.665  16.163 -0.1205 -0.3866 -0.2131
   6123SM  H11A 7758   2.899   4.700  16.088  0.5796  0.3535  0.7973
   6123SM  H11B 7759   2.725   4.688  16.119 -0.9504 -1.4621  1.0500
   6123SM     P 7760   2.977   4.454  16.217  0.3064 -0.1887  0.2789
   6123SM   O13 7761   3.074   4.482  16.106 -1.1804  0.3528 -0.2686
   6123SM   O14 7762   3.021   4.490  16.355  0.7979  0.0089  0.1439
   6123SM   O11 7763   2.944   4.299  16.208 -0.4352  0.1351 -0.1519
   6123SM   O12 7764   2.837   4.521  16.188  0.2961 -0.0749  0.4108
   6123SM   C1S 7765   2.871   4.247  16.100 -0.1874 -0.0943 -0.0803
   6123SM   H1S 7766   2.871   4.310  16.009 -0.5472 -0.7580 -0.5498
   6123SM   H1T 7767   2.764   4.235  16.125 -0.8726  0.4307 -2.5243
   6123SM    NF 7768   2.836   4.066  15.949 -0.6583 -0.2585  0.4632
   6123SM   HNF 7769   2.779   3.987  15.968 -0.6906  0.2608  2.7582
   6123SM   C2S 7770   2.921   4.111  16.055  0.0798  0.6052  0.0085
   6123SM   H2S 7771   3.024   4.113  16.014  0.5853 -0.9862  1.1145
   6123SM   C3S 7772   2.921   4.008  16.167  0.0604 -0.2643 -0.5502
   6123SM   H3S 7773   2.824   4.001  16.221  0.0891 -0.3881 -0.5141
   6123SM    O3 7774   3.015   4.035  16.275  0.2231  0.3082  0.1714
   6123SM   HO3 7775   2.997   4.128  16.292  0.5989  0.0074  2.6048
   6123SM   C4S 7776   2.959   3.873  16.120 -0.8916  0.2824 -0.1764
   6123SM   H4S 7777   3.067   3.869  16.098 -0.9074  0.9259 -0.4009
   6123SM   C5S 7778   2.881   3.765  16.111 -0.4332 -0.5605 -0.0532
   6123SM   H5S 7779   2.778   3.774  16.149 -0.1447 -0.6808  0.7895
   6123SM   C6S 7780   2.935   3.627  16.060 -0.1446 -0.2877 -0.3491
   6123SM   H6S 7781   2.855   3.554  16.033  1.4477 -1.5780 -1.8200
   6123SM   H6T 7782   2.979   3.567  16.143 -3.5496 -2.8453 -0.1469
   6123SM   C7S 7783   3.025   3.631  15.936  0.4361 -1.3496 -0.2590
   6123SM   H7S 7784   3.061   3.527  15.935  0.6244 -1.2808 -0.6033
   6123SM   H7T 7785   3.113   3.695  15.961 -0.8750  0.0411  1.1086
   6123SM   C8S 7786   2.961   3.684  15.805  0.4239  0.5184  0.0059
   6123SM   H8S 7787   3.036   3.669  15.725 -0.9886 -0.4872 -1.1746
   6123SM   H8T 7788   2.958   3.792  15.830  2.6719 -0.1703  4.2119
   6123SM   C9S 7789   2.823   3.624  15.778  0.3044  0.5002  0.3947
   6123SM   H9S 7790   2.760   3.673  15.855  0.1934 -0.2359  0.7818
   6123SM   H9T 7791   2.815   3.514  15.794 -1.5686  0.2322 -1.7499
   6123SM  C10S 7792   2.766   3.648  15.634 -0.1030 -0.3061  0.1462
   6123SM  H10S 7793   2.779   3.759  15.628  0.1504 -0.2816  1.0318
   6123SM  H10T 7794   2.656   3.632  15.644  0.1701 -1.6743  1.4015
   6123SM  C11S 7795   2.828   3.561  15.524 -0.1904  0.0393  0.8932
   6123SM  H11S 7796   2.886   3.479  15.572 -0.1347  1.3063  3.1161
   6123SM  H11T 7797   2.894   3.621  15.458  0.0217 -1.3227 -0.1846
   6123SM  C12S 7798   2.730   3.502  15.423 -0.1870 -0.3202 -0.1331
   6123SM  H12S 7799   2.641   3.486  15.487  0.7615  3.2152  2.3967
   6123SM  H12T 7800   2.778   3.409  15.387  0.1088  0.1804 -1.0478
   6123SM  C13S 7801   2.682   3.597  15.311  0.6555  0.2214 -0.1784
   6123SM  H13S 7802   2.761   3.662  15.269  0.4370 -0.0010 -0.9550
   6123SM  H13T 7803   2.602   3.666  15.344  1.4601  2.1436 -2.0318
   6123SM  C14S 7804   2.613   3.529  15.196  0.2601 -0.3272  0.2833
   6123SM  H14S 7805   2.553   3.604  15.141 -1.0575 -1.3045  0.3414
   6123SM  H14T 7806   2.540   3.451  15.226 -1.0226 -0.2664 -2.3850
   6123SM  C15S 7807   2.707   3.464  15.094 -0.4229 -0.2682 -0.4083
   6123SM  H15S 7808   2.762   3.385  15.150 -1.8959 -1.5400 -0.6656
   6123SM  H15T 7809   2.769   3.540  15.042 -1.1201  0.2647 -0.4729
   6123SM  C16S 7810   2.632   3.381  14.984 -0.4841  0.4378 -0.7834
   6123SM  H16S 7811   2.549   3.330  15.037 -0.1446  0.8307  0.1440
   6123SM  H16T 7812   2.704   3.300  14.962  0.3485  0.6480  0.9606
   6123SM  C17S 7813   2.584   3.452  14.860  0.3005 -0.2674 -0.5838
   6123SM  H17S 7814   2.672   3.493  14.806  1.1183  1.5404  1.9201
   6123SM  H17T 7815   2.518   3.536  14.889 -2.0623 -1.8128 -1.1777
   6123SM  C18S 7816   2.504   3.357  14.774  0.8251 -0.1314  0.2536
   6123SM  H18S 7817   2.426   3.305  14.833 -1.7183 -0.9646 -3.5080
   6123SM  H18T 7818   2.569   3.275  14.737 -0.3480 -0.9998  0.0575
   6123SM  H18U 7819   2.463   3.412  14.687 -0.6192 -2.8984 -0.9469
   6123SM   C1F 7820   2.834   4.125  15.826 -0.5898 -0.0297 -1.2174
   6123SM    OF 7821   2.921   4.209  15.803 -0.3126 -0.5536  0.0507
   6123SM   C2F 7822   2.740   4.073  15.724  0.7422 -0.5013  0.1353
   6123SM   H2F 7823   2.649   4.038  15.778  0.2820 -2.2304 -1.6652
   6123SM   H2G 7824   2.775   3.986  15.664  0.9086 -0.5481  0.2968
   6123SM   C3F 7825   2.699   4.193  15.633  0.2489  0.6511  0.0409
   6123SM   H3F 7826   2.785   4.254  15.597  1.1731 -1.1617 -0.9288
   6123SM   H3G 7827   2.643   4.269  15.692 -1.3269  0.4624 -1.1336
   6123SM   C4F 7828   2.613   4.149  15.513  0.2741 -0.1910 -0.6185
   6123SM   H4F 7829   2.583   4.244  15.465  1.7700  1.2664  1.2129
   6123SM   H4G 7830   2.518   4.094  15.532 -1.6225  2.4509 -1.8140
   6123SM   C5F 7831   2.695   4.060  15.412  0.4286 -0.3369  0.2663
   6123SM   H5F 7832   2.731   3.963  15.451 -0.4417 -0.4875  0.7394
   6123SM   H5G 7833   2.778   4.130  15.389 -0.3667  0.3717 -0.5948
   6123SM   C6F 7834   2.610   4.023  15.287  0.3166 -0.6687  0.0677
   6123SM   H6F 7835   2.541   4.105  15.257 -1.0587 -1.3911  1.1533
   6123SM   H6G 7836   2.555   3.931  15.316  1.0753 -0.8064  1.1601
   6123SM   C7F 7837   2.707   4.010  15.171 -0.4051  0.1291  0.1815
   6123SM   H7F 7838   2.812   3.980  15.192  0.2456  0.7310 -1.9141
   6123SM   H7G 7839   2.710   4.100  15.105 -1.5657 -0.2704 -0.4553
   6123SM   C8F 7840   2.645   3.915  15.069  0.0603  0.7759 -0.3294
   6123SM   H8F 7841   2.536   3.935  15.078 -0.2976 -0.3586 -1.7324
   6123SM   H8G 7842   2.671   3.809  15.091  1.9095  1.2524 -0.0709
   6123SM   C9F 7843   2.664   3.949  14.921  0.5076 -0.3964 -0.3138
   6123SM   H9F 7844   2.769   3.946  14.884  0.8667  0.0141  0.6387
   6123SM   H9G 7845   2.628   4.054  14.911 -0.5555 -0.7037  0.1247
   6123SM  C10F 7846   2.565   3.874  14.829  0.3931  0.8359 -0.0779
   6123SM  H10F 7847   2.463   3.900  14.865  0.0692  1.8686 -1.6331
   6123SM  H10G 7848   2.583   3.766  14.845 -0.7708  0.7273  0.6796
   6123SM  C11F 7849   2.596   3.899  14.679  0.0724  0.2350 -1.0175
   6123SM  H11F 7850   2.707   3.899  14.672  0.0925 -0.8054 -0.8876
   6123SM  H11G 7851   2.571   4.003  14.649 -0.3094  0.1057 -1.1494
   6123SM  C12F 7852   2.526   3.798  14.581 -0.0762  0.3340 -0.0782
   6123SM  H12F 7853   2.418   3.816  14.560 -0.1741  0.8328  0.8012
   6123SM  H12G 7854   2.521   3.702  14.635 -1.3103  0.1888 -0.4226
   6123SM  C13F 7855   2.600   3.753  14.449  0.0581  0.4733  0.3659
   6123SM  H13F 7856   2.709   3.734  14.459 -0.2340 -1.5048  0.1837
   6123SM  H13G 7857   2.583   3.839  14.380  1.2635 -0.9853 -1.8789
   6123SM  C14F 7858   2.547   3.620  14.396  0.1152  0.2459 -0.2798
   6123SM  H14F 7859   2.544   3.544  14.476 -0.1589  0.6407  0.0909
   6123SM  H14G 7860   2.623   3.592  14.319  0.2099  1.5840 -0.7090
   6123SM  C15F 7861   2.411   3.638  14.329 -0.8069  0.1324  0.3442
   6123SM  H15F 7862   2.427   3.708  14.244  1.9194 -1.2030 -0.3583
   6123SM  H15G 7863   2.344   3.687  14.403 -0.9473  1.1217 -0.4094
   6123SM  C16F 7864   2.355   3.505  14.287 -0.2062 -0.1051 -0.7411
   6123SM  H16F 7865   2.341   3.435  14.372  0.7673  0.3451 -0.2019
   6123SM  H16G 7866   2.408   3.463  14.199 -1.1847 -0.1549 -1.3278
   6123SM  C17F 7867   2.211   3.535  14.243  0.1376  0.7686 -0.1697
   6123SM  H17F 7868   2.213   3.579  14.141 -0.4700 -0.3992 -0.7063
   6123SM  H17G 7869   2.167   3.604  14.319  0.1141 -1.7274  2.2726
   6123SM  C18F 7870   2.123   3.406  14.249  0.0627  0.0008  0.5139
   6123SM  H18F 7871   2.144   3.354  14.344 -1.4579  2.9077  2.5942
   6123SM  H18G 7872   2.131   3.335  14.164  0.1239 -0.3267  0.7938
   6123SM  C19F 7873   1.970   3.433  14.265 -0.0540  0.6236  0.0834
   6123SM  H19F 7874   1.966   3.524  14.328 -0.4696  2.2423 -2.1517
   6123SM  H19G 7875   1.913   3.355  14.319  0.0207  1.6183  1.6331
   6123SM  C20F 7876   1.888   3.460  14.138 -0.3173 -0.7420 -0.6972
   6123SM  H20F 7877   1.866   3.367  14.082 -0.8919 -0.3758 -1.0915
   6123SM  H20G 7878   1.953   3.519  14.070 -0.2151 -2.9747 -2.6281
   6123SM  C21F 7879   1.757   3.532  14.179 -1.0393 -0.0860  1.0690
   6123SM  H21F 7880   1.732   3.597  14.093  2.4489  0.2017  0.0987
   6123SM  H21G 7881   1.789   3.613  14.248  1.1989  0.4395 -0.4810
   6123SM  C22F 7882   1.655   3.440  14.241  0.0382  0.0273  0.0007
   6123SM  H22F 7883   1.569   3.494  14.287  0.5304  0.2299  0.6955
   6123SM  H22G 7884   1.685   3.385  14.333 -2.9761 -0.1426  1.0177
   6123SM  C23F 7885   1.585   3.334  14.150  0.0197 -0.0714  0.7072
   6123SM  H23F 7886   1.516   3.390  14.083  2.4502  1.3336 -0.7996
   6123SM  H23G 7887   1.521   3.265  14.209 -1.6943  0.1905 -0.7576
   6123SM  H23H 7888   1.665   3.281  14.092 -0.0738  0.1325  0.3899
   6223SM     N 7889   2.298   3.227  16.539 -0.1139  0.2094  0.2140
   6223SM   C15 7890   2.164   3.235  16.605  0.7366 -0.1326 -0.2503
   6223SM  H15A 7891   2.162   3.292  16.697 -2.0662  0.3958 -0.5562
   6223SM  H15B 7892   2.127   3.135  16.622 -1.1465  0.4800 -0.4682
   6223SM  H15C 7893   2.090   3.284  16.543 -0.2756  0.9882  1.7335
   6223SM   C14 7894   2.334   3.365  16.497  0.3416  0.0843  0.5166
   6223SM  H14A 7895   2.434   3.370  16.456  0.3017  1.3784  0.5568
   6223SM  H14B 7896   2.333   3.443  16.572  1.0944  1.2711 -0.6758
   6223SM  H14C 7897   2.259   3.383  16.422  0.9514 -0.2921 -0.1959
   6223SM   C13 7898   2.398   3.185  16.646  0.5738 -0.3928 -0.1583
   6223SM  H13A 7899   2.397   3.262  16.723  0.6466  1.3402 -1.8133
   6223SM  H13B 7900   2.498   3.188  16.604  0.1124  2.1196 -1.2606
   6223SM  H13C 7901   2.372   3.088  16.685 -0.2217  0.1627  0.7508
   6223SM   C12 7902   2.309   3.121  16.429 -0.1381 -0.8441 -0.8855
   6223SM  H12A 7903   2.226   3.139  16.364 -2.0972 -0.2849  1.6238
   6223SM  H12B 7904   2.298   3.023  16.475 -0.5717 -1.1994 -1.7271
   6223SM   C11 7905   2.439   3.111  16.340 -0.2201  0.1419  0.0284
   6223SM  H11A 7906   2.451   3.206  16.285 -0.3714 -0.4344 -1.0171
   6223SM  H11B 7907   2.433   3.035  16.260  1.2888 -0.6155  0.5811
   6223SM     P 7908   2.602   2.950  16.455 -0.1949  0.6740 -0.2812
   6223SM   O13 7909   2.657   2.955  16.591  0.9980  0.0518 -0.0812
   6223SM   O14 7910   2.484   2.859  16.439  0.3492  0.0505 -0.1331
   6223SM   O11 7911   2.724   2.901  16.355  0.3639  0.3276 -0.0667
   6223SM   O12 7912   2.559   3.091  16.419 -0.3814  0.0877 -0.1674
   6223SM   C1S 7913   2.740   2.959  16.228 -0.5056 -1.1395 -0.1926
   6223SM   H1S 7914   2.782   3.061  16.239 -0.2562 -1.2956  0.3753
   6223SM   H1T 7915   2.646   2.987  16.177 -0.4242  2.0776  1.2078
   6223SM    NF 7916   2.835   2.958  16.004  0.1208  0.0995  0.1230
   6223SM   HNF 7917   2.772   2.926  15.934  0.6864 -0.0151 -0.3475
   6223SM   C2S 7918   2.821   2.878  16.124 -1.0756  0.8236  0.5895
   6223SM   H2S 7919   2.922   2.852  16.162 -0.1555 -1.4665 -2.9930
   6223SM   C3S 7920   2.749   2.741  16.096  0.7068  0.7038 -0.9003
   6223SM   H3S 7921   2.654   2.750  16.040 -0.6040  0.4266  1.1703
   6223SM    O3 7922   2.731   2.656  16.211 -0.3431 -0.2640 -0.3210
   6223SM   HO3 7923   2.713   2.718  16.282 -0.4397  0.4463 -0.9588
   6223SM   C4S 7924   2.831   2.666  15.992 -0.3525  0.2529 -0.1580
   6223SM   H4S 7925   2.792   2.681  15.890  1.3733 -0.3565 -0.9575
   6223SM   C5S 7926   2.942   2.589  16.009 -0.1209 -0.0515 -0.3429
   6223SM   H5S 7927   2.982   2.571  16.110 -0.7565  0.4622  0.0046
   6223SM   C6S 7928   3.016   2.514  15.905 -0.2030 -0.0097 -0.4437
   6223SM   H6S 7929   2.980   2.409  15.898 -0.9671  0.2066  0.1415
   6223SM   H6T 7930   3.123   2.500  15.932 -0.2431  0.7566  0.1466
   6223SM   C7S 7931   3.000   2.563  15.761 -0.1372  0.4984  0.9016
   6223SM   H7S 7932   2.890   2.567  15.747 -0.0840 -0.8808 -0.1430
   6223SM   H7T 7933   3.036   2.486  15.689  1.4177  1.5496  0.4909
   6223SM   C8S 7934   3.068   2.690  15.725 -0.5290 -0.0292 -0.4642
   6223SM   H8S 7935   3.178   2.683  15.734 -0.7733 -2.4393  2.0856
   6223SM   H8T 7936   3.040   2.769  15.798  1.0749 -0.2190  0.4061
   6223SM   C9S 7937   3.035   2.734  15.580  0.0270 -0.0005 -0.1135
   6223SM   H9S 7938   3.037   2.651  15.506  0.6555  0.1450 -0.2660
   6223SM   H9T 7939   3.111   2.807  15.543 -0.9055  0.5825 -0.9179
   6223SM  C10S 7940   2.892   2.804  15.580  0.5890 -0.5671  0.1242
   6223SM  H10S 7941   2.906   2.897  15.640 -1.0068  0.8529 -1.5940
   6223SM  H10T 7942   2.815   2.733  15.617  0.5514 -0.7129 -0.2326
   6223SM  C11S 7943   2.842   2.855  15.445  0.1569 -0.3735 -0.4593
   6223SM  H11S 7944   2.915   2.910  15.382 -0.4340 -0.2403 -1.0355
   6223SM  H11T 7945   2.760   2.928  15.464  1.0710  0.7848 -0.8301
   6223SM  C12S 7946   2.775   2.738  15.366 -0.0344  0.2538  0.7966
   6223SM  H12S 7947   2.696   2.700  15.434 -0.5580 -0.2233 -0.0573
   6223SM  H12T 7948   2.853   2.661  15.348  0.3975  0.7799  0.3741
   6223SM  C13S 7949   2.715   2.783  15.228 -0.7457  0.0645 -0.4767
   6223SM  H13S 7950   2.639   2.708  15.200  0.4320 -0.5119 -2.3198
   6223SM  H13T 7951   2.793   2.791  15.149 -2.3230  0.2894 -2.0922
   6223SM  C14S 7952   2.651   2.925  15.233 -0.1994 -0.4701 -0.6599
   6223SM  H14S 7953   2.732   3.001  15.243 -0.4459  0.0961 -2.5161
   6223SM  H14T 7954   2.568   2.945  15.304 -1.2380  0.9290 -2.2023
   6223SM  C15S 7955   2.603   2.959  15.095 -0.1247  0.0146 -0.3825
   6223SM  H15S 7956   2.680   2.941  15.016 -1.0809  0.2496 -1.3819
   6223SM  H15T 7957   2.591   3.069  15.088  0.2830  0.0642 -0.3615
   6223SM  C16S 7958   2.467   2.899  15.048  0.1199 -0.0288 -0.3612
   6223SM  H16S 7959   2.394   2.920  15.130  1.1264 -1.9605  1.1153
   6223SM  H16T 7960   2.470   2.795  15.008 -0.4650  0.5610 -1.9974
   6223SM  C17S 7961   2.420   2.971  14.920 -0.2329  0.3089  0.2344
   6223SM  H17S 7962   2.419   3.079  14.948  0.2832 -0.3918  3.3879
   6223SM  H17T 7963   2.319   2.934  14.893 -0.1179  0.1605  0.0081
   6223SM  C18S 7964   2.507   2.950  14.796  0.0877 -0.4430  0.3912
   6223SM  H18S 7965   2.452   2.971  14.702 -0.1808 -0.1742  0.6063
   6223SM  H18T 7966   2.531   2.842  14.788 -1.4211 -0.8847  1.4553
   6223SM  H18U 7967   2.599   3.011  14.811  2.2030 -3.6653  1.5100
   6223SM   C1F 7968   2.900   3.082  16.005 -0.7941  0.6534  0.5301
   6223SM    OF 7969   2.957   3.134  16.105 -0.1574 -0.4032 -0.0174
   6223SM   C2F 7970   2.901   3.152  15.876  0.1785  0.6110 -0.3939
   6223SM   H2F 7971   2.878   3.259  15.896 -1.5473 -0.1470  2.1362
   6223SM   H2G 7972   2.822   3.119  15.805  0.3211  0.9380 -0.7103
   6223SM   C3F 7973   3.037   3.138  15.808 -0.4359 -0.0445 -0.2356
   6223SM   H3F 7974   3.059   3.034  15.778 -0.7618  0.6140 -2.9992
   6223SM   H3G 7975   3.110   3.176  15.883 -2.0934  0.9787  0.9146
   6223SM   C4F 7976   3.054   3.229  15.686  0.0520 -0.5801  0.3445
   6223SM   H4F 7977   3.029   3.337  15.700  1.9842 -0.0640  0.1317
   6223SM   H4G 7978   2.982   3.188  15.612  0.0191 -0.7801  0.4860
   6223SM   C5F 7979   3.187   3.215  15.615  0.2768 -0.2819  0.5738
   6223SM   H5F 7980   3.194   3.108  15.589 -4.3659 -0.3419 -1.3532
   6223SM   H5G 7981   3.254   3.242  15.700 -1.4122  3.7641  0.8541
   6223SM   C6F 7982   3.226   3.309  15.504  0.0203  0.4034  0.1074
   6223SM   H6F 7983   3.325   3.301  15.454 -0.6098 -0.6475 -1.0516
   6223SM   H6G 7984   3.230   3.404  15.561  0.9774  0.6563 -0.3587
   6223SM   C7F 7985   3.121   3.326  15.394 -0.2236 -0.0105 -0.0117
   6223SM   H7F 7986   3.134   3.419  15.335 -0.5601 -0.5782 -1.0182
   6223SM   H7G 7987   3.023   3.338  15.446  0.4066  0.8247  0.9989
   6223SM   C8F 7988   3.139   3.200  15.308  0.0474 -0.2580 -0.2092
   6223SM   H8F 7989   3.141   3.107  15.369 -1.9812 -0.5659 -0.5336
   6223SM   H8G 7990   3.239   3.215  15.261 -0.5533 -1.0563 -1.8265
   6223SM   C9F 7991   3.028   3.191  15.197 -0.2540 -0.1722 -0.6285
   6223SM   H9F 7992   3.027   3.290  15.147  0.1098 -0.3363 -0.9670
   6223SM   H9G 7993   2.929   3.170  15.242 -0.0284  0.3274  0.1091
   6223SM  C10F 7994   3.060   3.089  15.091 -0.4405  0.9569 -0.6485
   6223SM  H10F 7995   3.066   2.988  15.137  0.7010  1.9370  1.5124
   6223SM  H10G 7996   3.162   3.114  15.055  1.2734 -0.5664  2.6443
   6223SM  C11F 7997   2.964   3.102  14.970 -0.1266  0.3838 -0.8268
   6223SM  H11F 7998   2.862   3.113  15.014  0.3877  0.7986  0.3003
   6223SM  H11G 7999   2.956   3.005  14.915 -0.7321 -0.2757  0.3693
   6223SM  C12F 8000   2.974   3.228  14.883 -1.2111  0.3191 -0.6389
   6223SM  H12F 8001   3.079   3.237  14.847 -0.0844 -1.5846  1.9057
   6223SM  H12G 8002   2.963   3.324  14.936 -0.4435 -0.1622  0.4266
   6223SM  C13F 8003   2.890   3.238  14.764 -0.3158  0.6252  0.2600
   6223SM  H13F 8004   2.888   3.341  14.724  0.8685 -0.1927 -2.0988
   6223SM  H13G 8005   2.788   3.207  14.797  0.4153 -2.3048  0.0599
   6223SM  C14F 8006   2.939   3.150  14.651  0.2470  0.1568  0.4610
   6223SM  H14F 8007   2.861   3.161  14.574  0.0454  0.0399  0.6473
   6223SM  H14G 8008   2.956   3.048  14.692 -0.1120  0.6090  1.7730
   6223SM  C15F 8009   3.071   3.207  14.590  0.2756  0.9593  0.0507
   6223SM  H15F 8010   3.150   3.202  14.668  0.3315  1.2784  0.0162
   6223SM  H15G 8011   3.054   3.314  14.568 -0.7166  1.3906  2.5356
   6223SM  C16F 8012   3.125   3.119  14.471  0.4638  0.3551  0.2508
   6223SM  H16F 8013   3.039   3.083  14.409  0.5413 -1.3923  1.1162
   6223SM  H16G 8014   3.180   3.035  14.517 -1.1832 -0.4742  0.8107
   6223SM  C17F 8015   3.221   3.194  14.382  0.6918 -0.5822 -0.9812
   6223SM  H17F 8016   3.316   3.213  14.436 -0.6170 -1.3320  1.7880
   6223SM  H17G 8017   3.173   3.293  14.364 -0.0986 -0.8320 -0.3382
   6223SM  C18F 8018   3.247   3.116  14.259 -0.6065  0.4497 -0.4107
   6223SM  H18F 8019   3.300   3.181  14.185 -0.2126  0.2388 -0.3185
   6223SM  H18G 8020   3.147   3.094  14.218 -1.0537 -1.0073  1.3419
   6223SM  C19F 8021   3.327   2.983  14.284 -0.0414 -0.8192 -0.2697
   6223SM  H19F 8022   3.266   2.911  14.342  0.0311 -0.8298 -0.2071
   6223SM  H19G 8023   3.416   3.013  14.344  0.5842 -0.1257 -1.5016
   6223SM  C20F 8024   3.367   2.920  14.145  0.1723  0.2821 -0.5549
   6223SM  H20F 8025   3.379   2.998  14.066 -1.2256 -1.7519 -2.9457
   6223SM  H20G 8026   3.281   2.860  14.109  1.0391 -1.4199  0.1445
   6223SM  C21F 8027   3.490   2.828  14.149 -0.7505 -0.2887  0.1914
   6223SM  H21F 8028   3.450   2.732  14.188 -0.5780  0.2729  1.8207
   6223SM  H21G 8029   3.558   2.874  14.224  0.1446  0.9810 -1.3427
   6223SM  C22F 8030   3.562   2.824  14.020 -0.4200  0.3856  0.2637
   6223SM  H22F 8031   3.644   2.750  14.032 -1.0702 -0.3586  0.2093
   6223SM  H22G 8032   3.610   2.919  13.988  1.9084 -0.1936  1.7883
   6223SM  C23F 8033   3.471   2.782  13.904  0.3159 -0.0828  0.0067
   6223SM  H23F 8034   3.400   2.864  13.879 -1.1401 -1.4098 -0.3664
   6223SM  H23G 8035   3.414   2.690  13.929  0.5007 -0.4802 -0.9936
   6223SM  H23H 8036   3.533   2.750  13.817 -0.6710 -1.3300 -0.2657
   6323SM     N 8037   4.223   5.172  16.225  0.2811  0.3021  0.6057
   6323SM   C15 8038   4.248   5.205  16.082 -0.2442  0.4550 -0.3792
   6323SM  H15A 8039   4.192   5.140  16.017  1.8669  0.6165 -2.4999
   6323SM  H15B 8040   4.350   5.194  16.049  0.0625  1.3518  0.2206
   6323SM  H15C 8041   4.217   5.308  16.071  2.1513  1.4009  0.8896
   6323SM   C14 8042   4.287   5.270  16.318  0.0474 -0.5217  0.0240
   6323SM  H14A 8043   4.237   5.264  16.413 -1.5649 -2.4789 -0.8791
   6323SM  H14B 8044   4.271   5.372  16.284 -0.7477 -0.1295  1.5018
   6323SM  H14C 8045   4.390   5.242  16.335 -0.4367 -1.6292  1.2093
   6323SM   C13 8046   4.071   5.162  16.253 -0.2370 -0.2907  1.0922
   6323SM  H13A 8047   4.051   5.134  16.355 -3.2835  1.2201  1.0087
   6323SM  H13B 8048   4.016   5.102  16.182 -0.4569 -0.0099  1.0220
   6323SM  H13C 8049   4.033   5.263  16.243  1.6028  0.3142 -0.3226
   6323SM   C12 8050   4.285   5.037  16.254 -0.0193  0.2501 -0.2712
   6323SM  H12A 8051   4.257   5.016  16.357  1.5948 -1.9357 -0.1955
   6323SM  H12B 8052   4.392   5.051  16.263 -0.3566  2.8850  0.4558
   6323SM   C11 8053   4.230   4.909  16.188  0.0858 -0.4413  0.1120
   6323SM  H11A 8054   4.213   4.916  16.078  1.8542  0.3455 -0.1492
   6323SM  H11B 8055   4.129   4.889  16.229 -0.0746  1.3122  0.6411
   6323SM     P 8056   4.306   4.666  16.175 -0.2454 -0.0712  0.0564
   6323SM   O13 8057   4.425   4.584  16.224  0.0623  0.1148 -0.0797
   6323SM   O14 8058   4.170   4.612  16.207  0.0792  0.0660  0.1721
   6323SM   O11 8059   4.320   4.677  16.013  0.4104  0.4293 -0.9274
   6323SM   O12 8060   4.312   4.810  16.235  0.1674  0.7665  0.2310
   6323SM   C1S 8061   4.438   4.736  15.958 -1.0767 -0.2021  0.2194
   6323SM   H1S 8062   4.529   4.729  16.022 -1.4811 -1.6153  0.6847
   6323SM   H1T 8063   4.420   4.840  15.923 -0.5941 -0.6206 -1.3678
   6323SM    NF 8064   4.608   4.692  15.784 -0.0680  0.2089 -0.6055
   6323SM   HNF 8065   4.627   4.776  15.733 -0.3876  1.1000  0.7031
   6323SM   C2S 8066   4.471   4.662  15.823  0.5482 -0.6255 -0.4496
   6323SM   H2S 8067   4.465   4.554  15.847 -0.8888 -0.7890 -1.4329
   6323SM   C3S 8068   4.364   4.701  15.720 -0.5409 -0.5087 -0.0222
   6323SM   H3S 8069   4.384   4.793  15.660  1.2785 -1.4324 -0.9232
   6323SM    O3 8070   4.236   4.720  15.782 -0.2898  0.2153 -0.1440
   6323SM   HO3 8071   4.251   4.717  15.877 -2.2778  0.0332  0.2007
   6323SM   C4S 8072   4.347   4.587  15.626  0.4719 -0.2761  0.2492
   6323SM   H4S 8073   4.285   4.511  15.677 -0.6486  1.1889  1.1563
   6323SM   C5S 8074   4.396   4.579  15.501 -0.3841 -0.4346 -0.0566
   6323SM   H5S 8075   4.463   4.659  15.468  0.6502 -1.3622 -0.2682
   6323SM   C6S 8076   4.379   4.475  15.389  0.0299  0.4672 -0.0342
   6323SM   H6S 8077   4.474   4.428  15.356 -1.7553 -2.4374 -1.4504
   6323SM   H6T 8078   4.320   4.522  15.308 -2.4464 -1.4624  0.5535
   6323SM   C7S 8079   4.278   4.362  15.425  0.9195  0.1255 -0.6479
   6323SM   H7S 8080   4.189   4.405  15.477  2.6515  1.0384  1.7925
   6323SM   H7T 8081   4.324   4.295  15.501 -0.1664 -0.5461 -0.5593
   6323SM   C8S 8082   4.242   4.251  15.319 -0.0254  0.0455  0.3156
   6323SM   H8S 8083   4.158   4.189  15.358  1.2916 -2.2365 -0.2922
   6323SM   H8T 8084   4.329   4.182  15.311 -0.6381 -0.5566 -1.7559
   6323SM   C9S 8085   4.205   4.303  15.179 -0.5386 -0.1511 -0.5383
   6323SM   H9S 8086   4.288   4.369  15.147  0.7556 -1.4083  0.1332
   6323SM   H9T 8087   4.116   4.370  15.188  1.1649  2.2531 -0.5770
   6323SM  C10S 8088   4.186   4.199  15.070 -0.6182 -0.3438 -0.4503
   6323SM  H10S 8089   4.146   4.255  14.983  0.7082  3.0815  0.9614
   6323SM  H10T 8090   4.109   4.126  15.101  1.2120 -2.6215 -1.0153
   6323SM  C11S 8091   4.312   4.118  15.032 -0.0073 -0.1591 -0.3710
   6323SM  H11S 8092   4.356   4.076  15.125  2.5363  0.5438 -1.1479
   6323SM  H11T 8093   4.372   4.194  14.977 -1.7440  1.3640 -0.2658
   6323SM  C12S 8094   4.292   4.006  14.927  0.0984  0.3415 -0.6670
   6323SM  H12S 8095   4.226   3.928  14.970  1.0328 -0.0252  0.1316
   6323SM  H12T 8096   4.391   3.960  14.906 -0.7137 -0.7054 -2.4531
   6323SM  C13S 8097   4.235   4.054  14.789 -0.2873  0.0633 -0.3884
   6323SM  H13S 8098   4.300   4.140  14.760  1.2764 -1.1031 -0.5033
   6323SM  H13T 8099   4.128   4.076  14.805 -0.2603  0.1114 -0.2674
   6323SM  C14S 8100   4.247   3.954  14.665 -0.4528  0.0825  0.3859
   6323SM  H14S 8101   4.176   3.869  14.672 -0.9433 -0.2282 -4.6227
   6323SM  H14T 8102   4.351   3.916  14.664 -0.1226  0.8714 -2.0295
   6323SM  C15S 8103   4.204   4.021  14.536  0.1248 -0.1101 -0.2426
   6323SM  H15S 8104   4.114   4.084  14.552 -0.8293 -1.0532 -1.6846
   6323SM  H15T 8105   4.171   3.951  14.457 -0.6688 -0.6485  0.5447
   6323SM  C16S 8106   4.325   4.095  14.471 -0.3025  0.5536  0.3057
   6323SM  H16S 8107   4.417   4.033  14.471 -0.6644  0.0069  0.0437
   6323SM  H16T 8108   4.345   4.181  14.538  1.5500 -2.5029  4.0798
   6323SM  C17S 8109   4.289   4.127  14.323  0.7450  0.7043 -0.4384
   6323SM  H17S 8110   4.253   4.033  14.274  0.4091 -0.1879  1.4202
   6323SM  H17T 8111   4.386   4.157  14.278  0.1878  0.5781 -1.7627
   6323SM  C18S 8112   4.184   4.234  14.298  0.3336  0.4808 -0.2609
   6323SM  H18S 8113   4.186   4.255  14.189  0.4444  1.5375 -0.0611
   6323SM  H18T 8114   4.205   4.324  14.359 -0.7370 -0.3659  1.4567
   6323SM  H18U 8115   4.081   4.193  14.306  0.7157 -1.1811 -2.6765
   6323SM   C1F 8116   4.717   4.622  15.826  0.4348  0.2498 -0.2356
   6323SM    OF 8117   4.708   4.521  15.900  0.2593 -0.3655  0.1652
   6323SM   C2F 8118   4.848   4.668  15.776 -0.1427 -0.3969  0.6345
   6323SM   H2F 8119   4.934   4.648  15.843 -0.6919 -0.0629  1.4529
   6323SM   H2G 8120   4.835   4.779  15.774 -3.6462 -0.7011 -1.0135
   6323SM   C3F 8121   4.866   4.617  15.634  0.2726  0.9415 -0.6133
   6323SM   H3F 8122   4.874   4.507  15.632 -0.2454  0.6957  3.1936
   6323SM   H3G 8123   4.969   4.631  15.595  0.8008 -1.5469 -0.2625
   6323SM   C4F 8124   4.778   4.671  15.521 -0.7338 -0.3336 -0.7587
   6323SM   H4F 8125   4.788   4.781  15.530  1.3671 -0.4064 -1.6270
   6323SM   H4G 8126   4.673   4.640  15.539 -0.8569  0.8842  0.8855
   6323SM   C5F 8127   4.824   4.641  15.377 -0.3939  0.1535 -0.7360
   6323SM   H5F 8128   4.843   4.535  15.353  0.8980  0.4835 -1.2487
   6323SM   H5G 8129   4.921   4.693  15.361  0.0516 -0.4960 -0.1788
   6323SM   C6F 8130   4.729   4.691  15.267 -0.4454  0.5278  0.0242
   6323SM   H6F 8131   4.721   4.801  15.251 -1.0962  0.4005 -0.5618
   6323SM   H6G 8132   4.627   4.662  15.300 -1.2831  2.0410 -1.0737
   6323SM   C7F 8133   4.758   4.616  15.129  0.0340 -0.5058  0.1588
   6323SM   H7F 8134   4.767   4.507  15.149  3.1903 -0.2895  0.2820
   6323SM   H7G 8135   4.858   4.634  15.085 -0.1915 -0.7538 -0.4680
   6323SM   C8F 8136   4.665   4.651  15.014 -0.0358  0.4355 -0.0978
   6323SM   H8F 8137   4.715   4.624  14.919 -2.3356 -2.1212 -0.7148
   6323SM   H8G 8138   4.639   4.759  15.001  0.7514  0.5056 -1.2452
   6323SM   C9F 8139   4.538   4.569  15.015  0.6819  0.7049 -0.4118
   6323SM   H9F 8140   4.496   4.578  15.117 -3.3273 -1.8834 -1.6253
   6323SM   H9G 8141   4.557   4.461  15.001 -2.2706  0.1760 -0.9278
   6323SM  C10F 8142   4.443   4.613  14.907  0.2373 -0.4887  0.3066
   6323SM  H10F 8143   4.492   4.622  14.807  0.7004  1.3322  0.6703
   6323SM  H10G 8144   4.415   4.716  14.937  1.8012  0.3472 -0.9292
   6323SM  C11F 8145   4.326   4.520  14.898 -0.6333  0.3802 -1.0596
   6323SM  H11F 8146   4.287   4.508  15.002  0.1747 -1.4516 -0.9392
   6323SM  H11G 8147   4.355   4.421  14.859  0.2344 -1.0115  2.6550
   6323SM  C12F 8148   4.211   4.576  14.815 -0.6923 -0.2913  0.0477
   6323SM  H12F 8149   4.199   4.686  14.826  0.0443 -0.3531  1.8256
   6323SM  H12G 8150   4.112   4.537  14.847 -0.4086 -0.4193  0.7872
   6323SM  C13F 8151   4.228   4.550  14.661  0.1848  0.1926  0.1903
   6323SM  H13F 8152   4.193   4.449  14.632 -0.4285  1.0042 -2.2032
   6323SM  H13G 8153   4.336   4.543  14.635 -0.1736  0.8315 -1.7120
   6323SM  C14F 8154   4.155   4.660  14.579 -0.1512  0.6142  0.4086
   6323SM  H14F 8155   4.189   4.762  14.606 -0.7482  0.8771  0.1970
   6323SM  H14G 8156   4.050   4.642  14.610 -0.3590  0.8894 -0.1209
   6323SM  C15F 8157   4.162   4.635  14.426 -0.8440 -0.0726  0.2937
   6323SM  H15F 8158   4.114   4.536  14.413 -1.2499  0.2569 -0.8753
   6323SM  H15G 8159   4.269   4.641  14.395 -0.5978  0.0245  1.1381
   6323SM  C16F 8160   4.093   4.740  14.345  0.0659 -1.2368 -0.2089
   6323SM  H16F 8161   3.996   4.762  14.394  0.7422  1.8330 -0.0291
   6323SM  H16G 8162   4.092   4.698  14.243  0.3965 -0.2417 -0.6347
   6323SM  C17F 8163   4.170   4.868  14.343 -0.2692 -0.8089  0.3968
   6323SM  H17F 8164   4.267   4.844  14.296  0.0218  1.2779 -0.1793
   6323SM  H17G 8165   4.191   4.907  14.446 -1.8491 -0.9741  0.8112
   6323SM  C18F 8166   4.101   4.986  14.270  0.1210 -0.8583 -0.3697
   6323SM  H18F 8167   3.992   4.986  14.287 -0.0385  0.2710 -1.2613
   6323SM  H18G 8168   4.099   4.973  14.160 -0.5431  0.8849 -0.5921
   6323SM  C19F 8169   4.164   5.122  14.300 -0.2389 -0.2222 -0.2140
   6323SM  H19F 8170   4.152   5.145  14.408  0.6133 -2.5204  0.4435
   6323SM  H19G 8171   4.100   5.198  14.250 -1.6717 -0.5343  1.0684
   6323SM  C20F 8172   4.313   5.138  14.269  0.0521 -0.6438  0.1791
   6323SM  H20F 8173   4.325   5.092  14.169  1.3435  1.1460 -0.5135
   6323SM  H20G 8174   4.374   5.080  14.342 -0.8689  0.2828  1.7605
   6323SM  C21F 8175   4.364   5.280  14.263  0.0404 -0.2870 -0.0688
   6323SM  H21F 8176   4.472   5.277  14.288  0.3020 -1.3744 -1.2630
   6323SM  H21G 8177   4.317   5.341  14.343  1.7905  0.8914  0.1138
   6323SM  C22F 8178   4.356   5.354  14.129 -0.8717  0.0175 -0.7480
   6323SM  H22F 8179   4.320   5.459  14.142  0.4567  0.3929  0.0820
   6323SM  H22G 8180   4.291   5.292  14.064  0.3355 -0.3741 -1.6065
   6323SM  C23F 8181   4.491   5.368  14.061 -0.5982  0.3264  0.4812
   6323SM  H23F 8182   4.558   5.424  14.129 -2.4842  1.0968  1.8082
   6323SM  H23G 8183   4.495   5.434  13.972 -0.5444  2.5322  2.0292
   6323SM  H23H 8184   4.535   5.271  14.032  3.6745  1.9084  0.9059
   6423SM     N 8185   5.426   3.431  16.614 -0.2318 -0.8701 -0.0841
   6423SM   C15 8186   5.366   3.303  16.661  0.6490  0.0604 -0.3491
   6423SM  H15A 8187   5.405   3.217  16.609 -4.0541 -3.2090  0.9048
   6423SM  H15B 8188   5.258   3.307  16.651  0.5388  0.7764  0.8927
   6423SM  H15C 8189   5.382   3.290  16.767  1.3735 -0.4333 -0.5184
   6423SM   C14 8190   5.356   3.541  16.687 -0.1615  0.5917  0.3858
   6423SM  H14A 8191   5.397   3.639  16.669 -2.3870  1.5574  0.1340
   6423SM  H14B 8192   5.357   3.530  16.795  0.9473  0.6673  0.3863
   6423SM  H14C 8193   5.249   3.542  16.671 -0.2349 -1.3780  0.5157
   6423SM   C13 8194   5.573   3.430  16.656  0.3060 -0.6174  0.4513
   6423SM  H13A 8195   5.615   3.514  16.604  1.4262 -0.9386  0.8212
   6423SM  H13B 8196   5.630   3.344  16.623  4.0097  1.5628  0.6829
   6423SM  H13C 8197   5.585   3.431  16.763  2.4847 -0.3499  0.2497
   6423SM   C12 8198   5.422   3.453  16.460  0.1115  0.6400 -0.2204
   6423SM  H12A 8199   5.318   3.470  16.435 -0.7142 -0.7368  2.0081
   6423SM  H12B 8200   5.448   3.365  16.403  0.9995  1.0070 -0.3970
   6423SM   C11 8201   5.500   3.563  16.393  0.0724 -0.1201  0.4060
   6423SM  H11A 8202   5.497   3.565  16.282  2.4454 -0.2616  0.3004
   6423SM  H11B 8203   5.604   3.534  16.417 -0.4980  0.1071  3.7586
   6423SM     P 8204   5.570   3.771  16.534 -0.7518 -0.2606  0.0493
   6423SM   O13 8205   5.515   3.831  16.656  0.1905 -0.2018  0.4835
   6423SM   O14 8206   5.705   3.712  16.549 -0.4302  0.7427 -0.2692
   6423SM   O11 8207   5.587   3.898  16.434 -0.0023 -0.3640  0.0632
   6423SM   O12 8208   5.467   3.689  16.446  0.0722  0.0281  0.4385
   6423SM   C1S 8209   5.632   3.868  16.300 -0.0582  0.0156  0.4386
   6423SM   H1S 8210   5.667   3.763  16.292 -1.6909 -0.6528  1.3984
   6423SM   H1T 8211   5.711   3.939  16.269 -1.1575  0.5659 -1.2438
   6423SM    NF 8212   5.589   3.890  16.059 -0.6144 -0.3762 -0.1417
   6423SM   HNF 8213   5.587   3.982  16.021 -1.6552 -0.2794  0.1004
   6423SM   C2S 8214   5.522   3.872  16.191 -0.6081  0.5122 -0.1839
   6423SM   H2S 8215   5.485   3.768  16.190  2.5282 -0.7301 -0.0757
   6423SM   C3S 8216   5.413   3.984  16.215 -0.4915 -0.4398  0.1953
   6423SM   H3S 8217   5.470   4.079  16.213 -1.0655 -0.0857  0.4227
   6423SM    O3 8218   5.337   3.969  16.337 -0.6302 -0.4318 -0.5127
   6423SM   HO3 8219   5.374   3.890  16.378  0.7369  0.0098 -0.8371
   6423SM   C4S 8220   5.321   3.986  16.096 -0.7394 -0.4882  0.0394
   6423SM   H4S 8221   5.341   4.048  16.007  2.7555 -1.5583 -0.0595
   6423SM   C5S 8222   5.222   3.896  16.075  0.0443 -0.8106  0.1189
   6423SM   H5S 8223   5.212   3.814  16.148  0.0467 -0.8141  0.1152
   6423SM   C6S 8224   5.120   3.886  15.967 -0.9564  0.4521 -0.3898
   6423SM   H6S 8225   5.023   3.912  16.014 -0.1223 -2.9592  3.8112
   6423SM   H6T 8226   5.107   3.778  15.942  0.5130  0.0650  0.4066
   6423SM   C7S 8227   5.141   3.952  15.829  0.3555  0.2207  0.5509
   6423SM   H7S 8228   5.225   3.895  15.784 -0.9854 -0.6379 -0.9592
   6423SM   H7T 8229   5.172   4.058  15.843 -1.4747  0.9139 -0.2405
   6423SM   C8S 8230   5.017   3.937  15.733  0.1721  0.0648  0.6939
   6423SM   H8S 8231   4.935   3.997  15.777 -0.4630 -0.5089  0.3168
   6423SM   H8T 8232   4.984   3.831  15.731  3.4952 -1.0873  0.2397
   6423SM   C9S 8233   5.049   3.990  15.593 -0.5337  0.2300  0.3402
   6423SM   H9S 8234   5.099   4.088  15.607 -0.6432  0.4946 -0.9585
   6423SM   H9T 8235   4.956   4.009  15.536 -1.4391  0.3067  1.7925
   6423SM  C10S 8236   5.139   3.908  15.503  0.2215 -0.3762  0.7987
   6423SM  H10S 8237   5.089   3.810  15.488 -2.0207  0.8444 -0.2885
   6423SM  H10T 8238   5.231   3.883  15.559  0.1577  1.2875  1.7077
   6423SM  C11S 8239   5.181   3.969  15.359  0.3066 -0.3216 -0.4105
   6423SM  H11S 8240   5.211   4.076  15.365 -1.0787  0.1200 -1.0271
   6423SM  H11T 8241   5.088   3.971  15.298 -0.6205 -3.4088  0.7520
   6423SM  C12S 8242   5.291   3.904  15.269 -0.0143 -0.1592 -0.5252
   6423SM  H12S 8243   5.281   3.794  15.286  0.3392  0.0596  1.2418
   6423SM  H12T 8244   5.387   3.941  15.310 -1.6878  2.3705  1.3976
   6423SM  C13S 8245   5.289   3.934  15.119 -0.1896 -0.3999  0.4875
   6423SM  H13S 8246   5.389   3.899  15.084  0.5338  0.7914  1.3014
   6423SM  H13T 8247   5.285   4.045  15.112  0.5042 -0.4048 -0.2331
   6423SM  C14S 8248   5.174   3.861  15.031 -0.6855  0.1131 -0.4782
   6423SM  H14S 8249   5.081   3.921  15.041 -0.9778 -0.5366  0.9731
   6423SM  H14T 8250   5.156   3.758  15.067 -2.0898  0.2778 -0.6388
   6423SM  C15S 8251   5.201   3.857  14.882 -1.0494 -0.4104  0.0458
   6423SM  H15S 8252   5.274   3.774  14.869 -1.1362 -0.3415 -0.9729
   6423SM  H15T 8253   5.251   3.951  14.850  0.6318 -0.6820  1.6709
   6423SM  C16S 8254   5.082   3.820  14.793 -0.7613 -0.0675  0.0283
   6423SM  H16S 8255   5.003   3.897  14.806  0.0600  0.8112 -0.0881
   6423SM  H16T 8256   5.056   3.719  14.831  1.2649 -0.9310 -0.6876
   6423SM  C17S 8257   5.126   3.823  14.646  0.4512  0.6914 -0.3515
   6423SM  H17S 8258   5.214   3.757  14.631  0.3523  0.9166 -2.1398
   6423SM  H17T 8259   5.155   3.925  14.613  1.9970  0.8580  1.3904
   6423SM  C18S 8260   5.007   3.778  14.557 -0.1250  0.6124 -0.4588
   6423SM  H18S 8261   4.912   3.821  14.595  0.0374 -0.4782  1.3060
   6423SM  H18T 8262   4.995   3.667  14.561 -3.3227  0.8842  0.4358
   6423SM  H18U 8263   5.020   3.809  14.452 -0.4246  1.1481 -0.3416
   6423SM   C1F 8264   5.642   3.790  15.995 -0.4675  0.2514 -0.5204
   6423SM    OF 8265   5.633   3.676  16.041 -0.8701 -0.2619 -0.4667
   6423SM   C2F 8266   5.703   3.827  15.866  0.3475  0.2624 -0.7336
   6423SM   H2F 8267   5.728   3.936  15.870 -1.3007  0.6786 -1.0686
   6423SM   H2G 8268   5.623   3.830  15.789 -0.5380 -2.0988  0.0170
   6423SM   C3F 8269   5.821   3.733  15.821 -0.0977 -0.6433 -0.5370
   6423SM   H3F 8270   5.788   3.628  15.812  1.4021 -1.0751 -1.3108
   6423SM   H3G 8271   5.901   3.734  15.899 -1.0187 -1.5015  0.4536
   6423SM   C4F 8272   5.892   3.770  15.694  0.1117 -0.4509  0.9743
   6423SM   H4F 8273   5.967   3.693  15.668  1.1753  0.8907  0.0091
   6423SM   H4G 8274   5.936   3.871  15.697  1.4187 -0.7062 -3.4219
   6423SM   C5F 8275   5.801   3.762  15.570  0.0311  0.5754 -0.0997
   6423SM   H5F 8276   5.726   3.842  15.590 -0.2429  0.1128  0.7709
   6423SM   H5G 8277   5.757   3.661  15.565 -1.2843  1.1362 -0.2340
   6423SM   C6F 8278   5.872   3.795  15.443  0.4046  0.4855  0.8073
   6423SM   H6F 8279   5.942   3.711  15.422  0.9307  1.1875 -0.3502
   6423SM   H6G 8280   5.937   3.882  15.463  1.8453 -0.0055 -1.3319
   6423SM   C7F 8281   5.765   3.806  15.334 -0.6603 -0.2000 -0.4134
   6423SM   H7F 8282   5.705   3.894  15.368 -0.1448  0.7236 -1.7774
   6423SM   H7G 8283   5.699   3.717  15.333 -0.6883 -0.1858  0.0417
   6423SM   C8F 8284   5.804   3.830  15.190  0.3992 -0.6784  0.5266
   6423SM   H8F 8285   5.858   3.736  15.161  1.5889  0.9749 -3.2435
   6423SM   H8G 8286   5.875   3.915  15.178 -3.4679  2.9092  0.9412
   6423SM   C9F 8287   5.686   3.852  15.095  0.7713 -0.0480 -0.1775
   6423SM   H9F 8288   5.636   3.944  15.130 -0.2324 -1.1203  1.3285
   6423SM   H9G 8289   5.609   3.773  15.108  1.0418 -0.5101 -1.2527
   6423SM  C10F 8290   5.727   3.860  14.951  0.6962  0.1900  0.3040
   6423SM  H10F 8291   5.757   3.762  14.908  0.7281  0.2697  0.1425
   6423SM  H10G 8292   5.812   3.931  14.946  0.0434  1.1283  1.9126
   6423SM  C11F 8293   5.610   3.902  14.851 -0.6616  0.2126 -0.2004
   6423SM  H11F 8294   5.563   3.994  14.893 -0.8545  0.2441 -0.4784
   6423SM  H11G 8295   5.530   3.825  14.848 -1.0508  0.6418 -1.3058
   6423SM  C12F 8296   5.656   3.915  14.709 -0.3768  0.7231 -0.4723
   6423SM  H12F 8297   5.680   3.813  14.671  0.1459  0.2959  0.9124
   6423SM  H12G 8298   5.746   3.980  14.703 -0.7067  1.3419  0.9898
   6423SM  C13F 8299   5.544   3.967  14.617  0.3672  0.0553  0.6046
   6423SM  H13F 8300   5.592   4.008  14.526 -2.3205  0.2307 -0.8134
   6423SM  H13G 8301   5.476   4.042  14.662 -1.1034  1.4322 -3.4748
   6423SM  C14F 8302   5.451   3.862  14.556 -0.5291  0.9039  0.3419
   6423SM  H14F 8303   5.354   3.904  14.520 -1.6381 -2.4242 -0.9334
   6423SM  H14G 8304   5.419   3.794  14.638 -1.2899  0.9010  0.0555
   6423SM  C15F 8305   5.506   3.771  14.443  0.3012  0.6565  0.2558
   6423SM  H15F 8306   5.584   3.700  14.475 -0.6842 -1.6916 -2.1585
   6423SM  H15G 8307   5.569   3.830  14.372  1.0930 -2.7824 -2.1521
   6423SM  C16F 8308   5.399   3.688  14.385  0.4147  0.1933 -0.0383
   6423SM  H16F 8309   5.354   3.761  14.314  2.7165  1.1426 -0.6090
   6423SM  H16G 8310   5.335   3.655  14.470  1.8464  1.5737  1.6498
   6423SM  C17F 8311   5.452   3.566  14.315  0.5446 -0.4205  0.2223
   6423SM  H17F 8312   5.531   3.521  14.378  1.1650  2.1886  1.4298
   6423SM  H17G 8313   5.504   3.607  14.226 -0.4742 -0.2460 -0.3171
   6423SM  C18F 8314   5.336   3.471  14.269 -0.7055  0.1082 -0.2045
   6423SM  H18F 8315   5.276   3.543  14.210  0.0580  0.4880 -0.5313
   6423SM  H18G 8316   5.278   3.415  14.346 -0.5323 -1.6669 -1.3133
   6423SM  C19F 8317   5.387   3.370  14.165  0.0220 -0.0205  0.0380
   6423SM  H19F 8318   5.458   3.297  14.209 -0.4761 -1.4993 -1.4995
   6423SM  H19G 8319   5.445   3.419  14.084  1.1659  2.0643  2.0462
   6423SM  C20F 8320   5.290   3.274  14.102 -0.0743 -0.4592 -0.4542
   6423SM  H20F 8321   5.252   3.203  14.179 -2.1337  0.8558 -0.2100
   6423SM  H20G 8322   5.347   3.215  14.027 -1.4044  0.4325 -2.2328
   6423SM  C21F 8323   5.175   3.336  14.030  0.6700 -0.6422  0.3174
   6423SM  H21F 8324   5.214   3.430  13.984 -1.0932  1.3010  2.5292
   6423SM  H21G 8325   5.101   3.372  14.104  2.7710  0.2677  2.0631
   6423SM  C22F 8326   5.105   3.244  13.923 -0.1269 -0.3757  0.6191
   6423SM  H22F 8327   5.175   3.203  13.847  0.1758  0.8869  0.1913
   6423SM  H22G 8328   5.032   3.302  13.863  1.5794  0.2351 -1.0037
   6423SM  C23F 8329   5.034   3.119  13.980  0.5464  0.8975  1.0077
   6423SM  H23F 8330   5.103   3.035  14.005  1.2274  1.8163  2.3498
   6423SM  H23G 8331   4.959   3.084  13.907  2.3066  2.5932 -1.8491
   6423SM  H23H 8332   4.967   3.151  14.061  0.1177  1.0857  0.5843
   6523SM     N 8333   5.522   4.238  16.540 -0.2062  0.6762  0.2106
   6523SM   C15 8334   5.548   4.374  16.594  0.6517  0.1851  0.1338
   6523SM  H15A 8335   5.469   4.431  16.640 -1.4474 -1.2569 -1.4959
   6523SM  H15B 8336   5.576   4.438  16.511  2.0626  0.2417  0.6184
   6523SM  H15C 8337   5.628   4.373  16.667  0.0460  2.5772  0.9300
   6523SM   C14 8338   5.487   4.142  16.650 -0.1125  0.3332 -0.3602
   6523SM  H14A 8339   5.551   4.162  16.734  1.5040  1.6407 -1.8370
   6523SM  H14B 8340   5.501   4.039  16.622  1.8338  0.3315  0.4739
   6523SM  H14C 8341   5.385   4.164  16.678  0.4071  2.3204  0.1744
   6523SM   C13 8342   5.398   4.251  16.451 -0.3186 -0.5207 -0.3405
   6523SM  H13A 8343   5.317   4.283  16.514 -2.6883 -1.7056 -2.6120
   6523SM  H13B 8344   5.367   4.156  16.410  0.7759 -1.7718  1.5429
   6523SM  H13C 8345   5.408   4.323  16.372 -2.1366 -1.1768 -1.2295
   6523SM   C12 8346   5.629   4.176  16.453  0.2410 -0.1992 -0.0252
   6523SM  H12A 8347   5.593   4.078  16.425  0.0930 -0.7493  1.9185
   6523SM  H12B 8348   5.721   4.162  16.507  0.1667  0.7268  0.3473
   6523SM   C11 8349   5.659   4.253  16.323 -0.5637 -0.1607 -0.1153
   6523SM  H11A 8350   5.572   4.264  16.255  0.2859  2.0509 -0.9347
   6523SM  H11B 8351   5.732   4.194  16.263 -2.4342 -0.3139 -2.3587
   6523SM     P 8352   5.784   4.462  16.248 -0.1351 -0.0889  0.1597
   6523SM   O13 8353   5.833   4.591  16.289  0.0741 -0.1936  0.3070
   6523SM   O14 8354   5.886   4.366  16.197 -0.0474  0.6712  0.2552
   6523SM   O11 8355   5.672   4.483  16.129  0.5747 -0.0633 -0.3596
   6523SM   O12 8356   5.711   4.381  16.361  0.0151  0.0295  0.0217
   6523SM   C1S 8357   5.548   4.551  16.163 -0.6747 -0.3622 -1.3490
   6523SM   H1S 8358   5.575   4.653  16.197 -0.8111 -0.0515 -2.1487
   6523SM   H1T 8359   5.500   4.500  16.250  0.4600  0.0910 -0.4321
   6523SM    NF 8360   5.337   4.637  16.061 -0.2109  0.3447 -0.1844
   6523SM   HNF 8361   5.248   4.593  16.064  0.6097 -1.2945  1.0836
   6523SM   C2S 8362   5.456   4.562  16.041 -0.3820  1.2381  0.3086
   6523SM   H2S 8363   5.523   4.611  15.966  1.6840 -1.6023  0.1391
   6523SM   C3S 8364   5.423   4.416  15.983 -0.4856 -0.7700 -0.5374
   6523SM   H3S 8365   5.352   4.368  16.054 -0.6825 -0.3908 -0.4722
   6523SM    O3 8366   5.541   4.343  15.953  0.0944 -0.2571  0.3112
   6523SM   HO3 8367   5.608   4.387  16.004 -0.3703 -1.2839  1.8695
   6523SM   C4S 8368   5.352   4.425  15.856  0.0799  0.6561 -0.3279
   6523SM   H4S 8369   5.413   4.465  15.773  0.4646 -1.7511 -1.2766
   6523SM   C5S 8370   5.229   4.374  15.826 -1.2030 -0.1864 -0.2002
   6523SM   H5S 8371   5.168   4.326  15.903 -0.9378 -0.2919 -0.0538
   6523SM   C6S 8372   5.158   4.376  15.698  0.4089 -0.1560  0.0910
   6523SM   H6S 8373   5.053   4.409  15.714  0.5199  0.2513 -0.0315
   6523SM   H6T 8374   5.167   4.273  15.658  1.6212 -1.1828  2.7960
   6523SM   C7S 8375   5.212   4.475  15.586 -0.1861  0.2650  0.5312
   6523SM   H7S 8376   5.322   4.465  15.572 -0.4430 -0.3101 -1.3530
   6523SM   H7T 8377   5.194   4.579  15.619  0.2397  0.5961 -0.2574
   6523SM   C8S 8378   5.146   4.429  15.455 -0.0395 -0.7333 -0.0991
   6523SM   H8S 8379   5.036   4.434  15.472  0.1426  1.7398  0.7583
   6523SM   H8T 8380   5.174   4.323  15.442 -1.1602 -0.8118 -2.4812
   6523SM   C9S 8381   5.191   4.486  15.320  0.1359 -0.2714  1.2194
   6523SM   H9S 8382   5.301   4.478  15.310 -0.0903 -0.3760 -1.9163
   6523SM   H9T 8383   5.175   4.595  15.310  2.7127 -0.0622 -2.5187
   6523SM  C10S 8384   5.125   4.414  15.198  0.5905  0.7814  0.1436
   6523SM  H10S 8385   5.014   4.420  15.201  0.5832  0.7226 -0.0050
   6523SM  H10T 8386   5.148   4.307  15.183 -0.0553  0.4674  1.2755
   6523SM  C11S 8387   5.167   4.489  15.071 -0.4418  1.0338 -0.2751
   6523SM  H11S 8388   5.277   4.481  15.061 -0.1844 -0.2957  2.6357
   6523SM  H11T 8389   5.141   4.597  15.080 -0.3487  1.1104 -0.8859
   6523SM  C12S 8390   5.091   4.440  14.945  0.4246  0.0772  0.1012
   6523SM  H12S 8391   5.136   4.503  14.864  3.5061 -0.9902  0.8712
   6523SM  H12T 8392   4.991   4.483  14.965  0.2769  0.5327 -1.4537
   6523SM  C13S 8393   5.088   4.292  14.922  0.6424 -0.3075  0.0549
   6523SM  H13S 8394   5.036   4.238  15.005 -0.5471 -0.8109 -0.9732
   6523SM  H13T 8395   5.194   4.261  14.931  2.1855  3.4742 -2.6084
   6523SM  C14S 8396   5.044   4.233  14.787  0.0186  0.1822 -0.9995
   6523SM  H14S 8397   5.045   4.122  14.780 -1.0621  0.2344 -2.7050
   6523SM  H14T 8398   5.114   4.272  14.710 -0.6219 -2.2235 -2.9321
   6523SM  C15S 8399   4.908   4.279  14.734  0.9210  0.4847 -0.1063
   6523SM  H15S 8400   4.880   4.384  14.755 -2.7080 -0.0037 -1.7692
   6523SM  H15T 8401   4.835   4.232  14.803  0.4868  3.8320  1.9438
   6523SM  C16S 8402   4.872   4.252  14.594 -0.5926  0.1287  0.3336
   6523SM  H16S 8403   4.881   4.147  14.560  1.1074  1.0807 -2.5741
   6523SM  H16T 8404   4.925   4.319  14.523 -1.1212  0.8095  0.5703
   6523SM  C17S 8405   4.731   4.294  14.579 -0.2753 -0.2731 -0.7053
   6523SM  H17S 8406   4.725   4.400  14.610 -2.9802  0.6165 -3.7406
   6523SM  H17T 8407   4.667   4.233  14.647  1.3001  0.6805  1.7547
   6523SM  C18S 8408   4.671   4.276  14.437 -0.5092 -0.8027 -0.8731
   6523SM  H18S 8409   4.586   4.345  14.420 -1.2121 -1.8862 -1.8825
   6523SM  H18T 8410   4.638   4.171  14.424 -0.4045 -1.0412  0.5973
   6523SM  H18U 8411   4.750   4.288  14.360  1.6689 -0.6505  1.2534
   6523SM   C1F 8412   5.342   4.770  16.082 -0.1858 -0.0679 -0.3259
   6523SM    OF 8413   5.447   4.838  16.095  0.0059 -0.3018 -0.0771
   6523SM   C2F 8414   5.205   4.829  16.082 -0.3725 -0.4560 -0.7760
   6523SM   H2F 8415   5.211   4.931  16.127  3.6432 -0.6134 -0.5856
   6523SM   H2G 8416   5.146   4.754  16.138  1.5369 -2.0337 -0.8008
   6523SM   C3F 8417   5.135   4.839  15.947  0.7362 -0.3039 -0.4001
   6523SM   H3F 8418   5.028   4.858  15.972  0.5151 -2.6550  0.6934
   6523SM   H3G 8419   5.129   4.747  15.886 -0.0570 -0.8755  0.5108
   6523SM   C4F 8420   5.184   4.959  15.866  0.1749  0.3936  0.0449
   6523SM   H4F 8421   5.281   4.926  15.825  0.4788  1.0269  0.2410
   6523SM   H4G 8422   5.183   5.053  15.926  0.0853  0.1130  0.4876
   6523SM   C5F 8423   5.094   4.968  15.742  0.2349 -0.4045  0.8051
   6523SM   H5F 8424   5.001   5.021  15.770  0.3382  0.1553  0.1330
   6523SM   H5G 8425   5.072   4.862  15.717 -1.8891 -0.1273  1.3196
   6523SM   C6F 8426   5.156   5.032  15.613 -0.3660 -0.0709 -0.5495
   6523SM   H6F 8427   5.191   5.135  15.635  0.7026 -0.7770  1.2681
   6523SM   H6G 8428   5.084   5.026  15.529  0.2771 -2.3816 -0.9977
   6523SM   C7F 8429   5.271   4.944  15.566 -0.4136 -0.7045 -0.0767
   6523SM   H7F 8430   5.218   4.850  15.541 -1.4206 -0.1305 -0.1864
   6523SM   H7G 8431   5.350   4.931  15.643 -1.1020 -0.9784  0.5953
   6523SM   C8F 8432   5.328   4.990  15.435  0.7521  0.1959  0.2686
   6523SM   H8F 8433   5.379   5.088  15.446 -0.8669  0.9482  1.3406
   6523SM   H8G 8434   5.247   5.007  15.360 -2.0098 -2.0515  2.5021
   6523SM   C9F 8435   5.417   4.884  15.370 -0.6413  0.8555  0.2107
   6523SM   H9F 8436   5.414   4.888  15.259 -0.7237 -0.3496  0.1571
   6523SM   H9G 8437   5.397   4.785  15.415  1.3552  1.0318  1.6691
   6523SM  C10F 8438   5.570   4.892  15.404 -0.0987  0.0061  0.0971
   6523SM  H10F 8439   5.586   4.894  15.514  1.7931  0.5632 -0.1625
   6523SM  H10G 8440   5.608   4.990  15.370 -0.5651 -0.1742 -0.9880
   6523SM  C11F 8441   5.657   4.782  15.331 -0.5531  0.4520 -0.0947
   6523SM  H11F 8442   5.624   4.769  15.225 -2.9506  0.8485  0.5538
   6523SM  H11G 8443   5.643   4.687  15.387  1.9877  0.9384  1.5200
   6523SM  C12F 8444   5.808   4.817  15.336  0.6433 -0.1333  0.0466
   6523SM  H12F 8445   5.829   4.846  15.441 -0.0099  0.4884  0.0177
   6523SM  H12G 8446   5.809   4.912  15.279 -2.0192 -1.0776 -1.7819
   6523SM  C13F 8447   5.910   4.718  15.274  0.0336  0.1471 -0.0086
   6523SM  H13F 8448   5.879   4.679  15.174  1.6426 -0.7213 -0.2032
   6523SM  H13G 8449   5.907   4.623  15.331  0.7408 -1.1754 -2.0777
   6523SM  C14F 8450   6.052   4.773  15.265 -0.6239  0.1912  0.9922
   6523SM  H14F 8451   6.086   4.795  15.369  0.8227  1.4066  0.3094
   6523SM  H14G 8452   6.050   4.871  15.214  1.4141 -0.5537 -0.6930
   6523SM  C15F 8453   6.150   4.683  15.188 -0.2560 -0.1044 -0.4212
   6523SM  H15F 8454   6.153   4.587  15.244 -1.2316 -0.7097 -1.3597
   6523SM  H15G 8455   6.254   4.720  15.198  0.4546 -1.6582 -1.6660
   6523SM  C16F 8456   6.111   4.674  15.042 -0.3619 -0.0784  0.6863
   6523SM  H16F 8457   6.018   4.620  15.017  0.6693 -1.2473 -0.7857
   6523SM  H16G 8458   6.193   4.621  14.989 -1.2750  1.2691 -2.2701
   6523SM  C17F 8459   6.103   4.805  14.961  0.0470 -0.4913 -0.3915
   6523SM  H17F 8460   6.185   4.872  14.994  0.9783 -0.4466 -2.5798
   6523SM  H17G 8461   6.002   4.850  14.973  0.1059 -0.4830  0.0617
   6523SM  C18F 8462   6.110   4.778  14.811 -0.9361  0.6111 -0.1331
   6523SM  H18F 8463   6.029   4.709  14.778  1.2769 -1.3847 -1.7360
   6523SM  H18G 8464   6.201   4.724  14.777 -0.9836  0.7844 -0.5412
   6523SM  C19F 8465   6.110   4.903  14.718 -0.0416  0.0796 -0.2461
   6523SM  H19F 8466   6.191   4.975  14.742 -1.4481  2.1627 -1.3905
   6523SM  H19G 8467   6.014   4.953  14.743 -0.9622 -1.4410 -0.6024
   6523SM  C20F 8468   6.130   4.863  14.572 -0.1707  0.0663  0.2449
   6523SM  H20F 8469   6.059   4.783  14.542  1.2984  0.2526 -4.4322
   6523SM  H20G 8470   6.222   4.801  14.559  0.6624  1.3342 -0.0787
   6523SM  C21F 8471   6.119   4.976  14.478 -0.7093 -0.1125  0.7545
   6523SM  H21F 8472   6.182   5.066  14.492  0.1311 -0.2467 -1.7212
   6523SM  H21G 8473   6.011   5.000  14.491 -0.8916 -0.6764  0.3369
   6523SM  C22F 8474   6.147   4.940  14.327 -0.8079 -0.0433 -0.4654
   6523SM  H22F 8475   6.094   4.844  14.310 -0.1834 -0.3675 -0.6084
   6523SM  H22G 8476   6.255   4.923  14.309 -1.1701 -1.7303 -1.1503
   6523SM  C23F 8477   6.085   5.049  14.249 -0.0619 -0.8694 -0.0173
   6523SM  H23F 8478   5.978   5.063  14.274  0.2407 -0.7333  1.2763
   6523SM  H23G 8479   6.099   5.024  14.142  2.1732  0.4712 -0.1047
   6523SM  H23H 8480   6.131   5.147  14.274  2.4904 -1.5337 -1.7579
   6623SM     N 8481   3.769   2.379  16.743  0.3586 -0.0715  0.3959
   6623SM   C15 8482   3.695   2.409  16.867  0.0346 -0.7785 -0.1054
   6623SM  H15A 8483   3.639   2.332  16.919  1.4009 -1.7193  0.0273
   6623SM  H15B 8484   3.626   2.487  16.837  1.5336  0.0971 -1.4530
   6623SM  H15C 8485   3.762   2.455  16.938  2.2983  0.2118 -2.7072
   6623SM   C14 8486   3.809   2.507  16.680 -0.2732  0.1003  0.2428
   6623SM  H14A 8487   3.886   2.566  16.728  1.0657  0.6756 -2.4218
   6623SM  H14B 8488   3.730   2.580  16.674  0.8835  1.4095  0.2485
   6623SM  H14C 8489   3.848   2.492  16.581 -3.2910 -0.5593 -0.9229
   6623SM   C13 8490   3.879   2.279  16.775 -0.3502  0.2336  0.0676
   6623SM  H13A 8491   3.838   2.188  16.817 -0.1698  0.6692  1.2383
   6623SM  H13B 8492   3.950   2.327  16.841  2.2112 -1.0528 -1.5944
   6623SM  H13C 8493   3.937   2.240  16.692 -1.0450 -0.3780 -0.1447
   6623SM   C12 8494   3.675   2.299  16.642  0.3159 -1.0352 -1.1571
   6623SM  H12A 8495   3.585   2.359  16.634  1.9461  1.6304 -0.6326
   6623SM  H12B 8496   3.646   2.208  16.693 -2.5270 -0.3904 -1.4575
   6623SM   C11 8497   3.731   2.276  16.504 -0.7794  0.4875 -0.1754
   6623SM  H11A 8498   3.804   2.192  16.508  0.5078  1.6051  2.0289
   6623SM  H11B 8499   3.788   2.364  16.467 -1.0004  0.7195  0.0296
   6623SM     P 8500   3.542   2.340  16.338  0.0482  0.4923  0.0779
   6623SM   O13 8501   3.455   2.264  16.250  0.9912  0.8089 -0.1304
   6623SM   O14 8502   3.483   2.435  16.430 -0.5144  0.3392 -0.7180
   6623SM   O11 8503   3.657   2.405  16.248  0.2237  0.5813  0.9725
   6623SM   O12 8504   3.621   2.238  16.425  0.4802 -0.4780  0.4547
   6623SM   C1S 8505   3.752   2.311  16.185 -0.4437 -0.6745  0.0470
   6623SM   H1S 8506   3.715   2.208  16.166 -1.8158  0.1835 -2.3510
   6623SM   H1T 8507   3.843   2.319  16.248 -0.9118  3.1312  0.4725
   6623SM    NF 8508   3.850   2.254  15.968 -0.2920 -0.1837  0.3456
   6623SM   HNF 8509   3.949   2.237  15.969 -0.1049  0.7673 -0.4664
   6623SM   C2S 8510   3.786   2.366  16.035 -0.6771 -0.7617 -0.4515
   6623SM   H2S 8511   3.687   2.400  15.995 -0.9011 -0.1120  0.5936
   6623SM   C3S 8512   3.871   2.494  16.051 -0.0424  0.6193  1.1298
   6623SM   H3S 8513   3.963   2.473  16.109  0.0888 -0.9222  0.3958
   6623SM    O3 8514   3.806   2.599  16.124 -0.1091 -0.0077  0.7542
   6623SM   HO3 8515   3.730   2.551  16.156 -1.0129  0.4311 -0.6447
   6623SM   C4S 8516   3.912   2.546  15.915 -0.5534 -0.1041  0.0377
   6623SM   H4S 8517   3.825   2.601  15.874 -1.2071 -0.5683  0.7717
   6623SM   C5S 8518   4.031   2.535  15.857  0.7205 -0.0602  0.5133
   6623SM   H5S 8519   4.112   2.478  15.903  0.8512  1.2067  1.9392
   6623SM   C6S 8520   4.063   2.596  15.722  0.3410 -0.2277 -0.0873
   6623SM   H6S 8521   4.052   2.525  15.637 -0.9420  0.2198 -0.3090
   6623SM   H6T 8522   4.168   2.633  15.716  0.7357 -1.4652 -1.3286
   6623SM   C7S 8523   3.973   2.714  15.679  0.0879  0.0981  0.0562
   6623SM   H7S 8524   3.986   2.803  15.744  0.9713  0.7444 -0.9645
   6623SM   H7T 8525   3.866   2.687  15.688 -0.3103  1.5292 -0.1803
   6623SM   C8S 8526   3.992   2.779  15.533 -0.5793 -0.3723  0.0124
   6623SM   H8S 8527   4.099   2.787  15.505 -0.8814  0.6605 -0.9602
   6623SM   H8T 8528   3.963   2.886  15.534  1.4344  0.2753 -2.0473
   6623SM   C9S 8529   3.917   2.685  15.434  0.4078 -0.3901 -0.4869
   6623SM   H9S 8530   3.807   2.697  15.438  0.6347  2.1430 -0.1248
   6623SM   H9T 8531   3.934   2.577  15.451  0.1528 -0.4060 -0.3281
   6623SM  C10S 8532   3.973   2.710  15.293  0.0028 -0.1311 -0.6386
   6623SM  H10S 8533   4.084   2.709  15.289  0.0225 -0.7247 -0.1153
   6623SM  H10T 8534   3.934   2.809  15.259  1.7733 -0.0203 -2.4981
   6623SM  C11S 8535   3.913   2.615  15.192 -0.2501 -0.0340 -0.5430
   6623SM  H11S 8536   3.803   2.610  15.207 -0.3769  1.6363 -0.6287
   6623SM  H11T 8537   3.955   2.515  15.215  1.8970  1.3804  2.4882
   6623SM  C12S 8538   3.932   2.657  15.051 -0.3059  0.1733 -0.2060
   6623SM  H12S 8539   4.035   2.678  15.015  0.0495 -1.8242 -0.4912
   6623SM  H12T 8540   3.871   2.747  15.029 -0.1536 -0.1411 -2.1769
   6623SM  C13S 8541   3.887   2.544  14.956  1.0102  0.1966  0.1267
   6623SM  H13S 8542   3.783   2.515  14.983  1.3623 -2.1190 -0.8275
   6623SM  H13T 8543   3.947   2.454  14.981 -2.8989 -2.5171  0.5829
   6623SM  C14S 8544   3.873   2.580  14.808 -0.5765 -0.6988  0.0957
   6623SM  H14S 8545   3.966   2.623  14.766 -1.8733  0.0255 -2.1750
   6623SM  H14T 8546   3.797   2.661  14.799 -0.9375 -0.9409  0.8652
   6623SM  C15S 8547   3.841   2.464  14.708 -0.4396  0.0989  0.0802
   6623SM  H15S 8548   3.748   2.414  14.743 -1.1430  0.0241 -1.7788
   6623SM  H15T 8549   3.923   2.389  14.707  0.6075  1.2261 -0.6604
   6623SM  C16S 8550   3.837   2.517  14.563  0.4568 -0.5388  0.1433
   6623SM  H16S 8551   3.832   2.428  14.498 -0.2048 -0.3164 -0.1145
   6623SM  H16T 8552   3.930   2.566  14.527  0.0481  1.0459  1.1327
   6623SM  C17S 8553   3.720   2.613  14.537 -0.2385 -0.6366 -0.0969
   6623SM  H17S 8554   3.737   2.714  14.582 -1.0448  0.7782 -2.7297
   6623SM  H17T 8555   3.630   2.576  14.590 -0.3206  0.0939  0.2922
   6623SM  C18S 8556   3.707   2.631  14.384  0.3263  0.4465 -0.0943
   6623SM  H18S 8557   3.689   2.530  14.339 -1.7112  1.0049 -0.6456
   6623SM  H18T 8558   3.789   2.689  14.337  0.4388  1.2016  1.0078
   6623SM  H18U 8559   3.608   2.675  14.360  0.9063  1.0982 -1.3553
   6623SM   C1F 8560   3.773   2.173  15.899 -0.9276 -0.3734  0.3386
   6623SM    OF 8561   3.653   2.188  15.900  0.6260 -0.3908 -0.0381
   6623SM   C2F 8562   3.849   2.059  15.819  0.4284  0.2869 -0.5368
   6623SM   H2F 8563   3.848   1.969  15.884 -0.3909  0.0526 -0.8626
   6623SM   H2G 8564   3.954   2.082  15.792  0.1409  0.4686 -1.5218
   6623SM   C3F 8565   3.774   2.028  15.684  0.6654  0.0925  0.3055
   6623SM   H3F 8566   3.673   1.992  15.713 -0.7726  4.7594  2.0770
   6623SM   H3G 8567   3.828   1.941  15.641  1.7605 -0.4751  2.6552
   6623SM   C4F 8568   3.771   2.155  15.593 -0.0330  0.3756 -0.1404
   6623SM   H4F 8569   3.876   2.176  15.566 -0.2233 -0.1674 -1.4015
   6623SM   H4G 8570   3.735   2.246  15.645  0.4149  0.8138 -0.5901
   6623SM   C5F 8571   3.704   2.129  15.462  0.2281  0.0493  0.5053
   6623SM   H5F 8572   3.603   2.090  15.486 -0.2095  0.1354 -1.0648
   6623SM   H5G 8573   3.767   2.055  15.409  1.8446  0.4882  1.7326
   6623SM   C6F 8574   3.687   2.248  15.376 -0.4842  0.3543  0.4665
   6623SM   H6F 8575   3.759   2.332  15.387  2.0104 -1.5301 -0.6109
   6623SM   H6G 8576   3.590   2.297  15.399 -0.5953  1.0714 -1.3736
   6623SM   C7F 8577   3.674   2.211  15.223  0.1099 -0.1805 -0.1944
   6623SM   H7F 8578   3.614   2.291  15.174  2.2579  2.4087  1.1614
   6623SM   H7G 8579   3.616   2.116  15.218  0.8580 -0.5843 -1.7649
   6623SM   C8F 8580   3.810   2.205  15.150 -0.1290  0.3764  0.6911
   6623SM   H8F 8581   3.859   2.115  15.191 -2.9152 -1.3260  0.5111
   6623SM   H8G 8582   3.874   2.295  15.163 -0.1221  0.8574 -2.0477
   6623SM   C9F 8583   3.793   2.174  14.999  0.4815 -0.4055 -0.5752
   6623SM   H9F 8584   3.727   2.246  14.945 -0.4148 -0.7454  0.0454
   6623SM   H9G 8585   3.737   2.078  14.994  0.6671 -0.4679 -1.7320
   6623SM  C10F 8586   3.927   2.158  14.923  0.1734  0.3243 -0.9240
   6623SM  H10F 8587   3.996   2.085  14.970  1.2414  0.5544 -2.0675
   6623SM  H10G 8588   3.987   2.251  14.929  0.5484  0.3451 -3.5900
   6623SM  C11F 8589   3.901   2.113  14.783 -0.2646  0.0610  0.0205
   6623SM  H11F 8590   3.845   2.191  14.727  0.7431  1.4770  0.9381
   6623SM  H11G 8591   3.848   2.015  14.775 -0.5393  0.2701 -0.8986
   6623SM  C12F 8592   4.033   2.086  14.706  0.1907  0.4180  0.4236
   6623SM  H12F 8593   4.116   2.049  14.770  0.2167 -0.4976 -0.1190
   6623SM  H12G 8594   4.077   2.179  14.664 -1.2563 -0.5515 -3.7007
   6623SM  C13F 8595   4.014   1.981  14.590 -0.8905  0.3979  0.2569
   6623SM  H13F 8596   3.922   2.015  14.539 -1.3000 -0.2323  0.5605
   6623SM  H13G 8597   4.004   1.876  14.626 -0.0213  0.2271  0.0401
   6623SM  C14F 8598   4.130   1.994  14.481 -0.0408  0.1499  0.0906
   6623SM  H14F 8599   4.131   2.098  14.443 -0.4030  0.1603  0.1007
   6623SM  H14G 8600   4.098   1.926  14.399  1.3444 -0.1974 -0.1916
   6623SM  C15F 8601   4.269   1.952  14.537  0.1046 -0.3717  0.4644
   6623SM  H15F 8602   4.252   1.844  14.557  1.4328 -0.7892 -0.5390
   6623SM  H15G 8603   4.296   1.998  14.634  3.6057 -0.8610 -0.1389
   6623SM  C16F 8604   4.379   1.980  14.439 -0.2525  0.3486 -0.2966
   6623SM  H16F 8605   4.461   2.039  14.485 -1.7403  2.7651 -0.5629
   6623SM  H16G 8606   4.346   2.045  14.355  1.4637  0.2393 -1.1000
   6623SM  C17F 8607   4.438   1.858  14.374  0.0455 -0.2022 -0.0606
   6623SM  H17F 8608   4.355   1.817  14.312 -0.1585  0.3212 -0.1341
   6623SM  H17G 8609   4.469   1.788  14.455  1.3593  1.7317  1.1980
   6623SM  C18F 8610   4.554   1.909  14.288  0.8019  0.1613  0.8049
   6623SM  H18F 8611   4.625   1.965  14.353 -1.7535  0.0512  3.9389
   6623SM  H18G 8612   4.528   1.970  14.198 -1.3204 -1.1114  0.4990
   6623SM  C19F 8613   4.631   1.790  14.224 -0.0527 -0.1058 -0.9116
   6623SM  H19F 8614   4.551   1.730  14.176  0.5909 -1.4520 -0.3538
   6623SM  H19G 8615   4.678   1.736  14.309  1.6388  2.1328 -0.3403
   6623SM  C20F 8616   4.728   1.827  14.113 -0.4408 -0.5910  0.1721
   6623SM  H20F 8617   4.697   1.900  14.034  0.0416  1.2335  1.6035
   6623SM  H20G 8618   4.764   1.730  14.073  0.2360 -0.1572 -0.3035
   6623SM  C21F 8619   4.862   1.890  14.158  0.0274 -0.1567  0.7588
   6623SM  H21F 8620   4.901   1.841  14.250 -1.7187  0.0433  1.6517
   6623SM  H21G 8621   4.838   1.997  14.174 -1.7706 -0.6189  1.5175
   6623SM  C22F 8622   4.979   1.885  14.052  0.3611 -0.3111 -0.1516
   6623SM  H22F 8623   4.932   1.923  13.959 -0.1967 -0.8724 -0.1082
   6623SM  H22G 8624   5.018   1.781  14.046  0.0355 -0.4219 -0.3599
   6623SM  C23F 8625   5.104   1.978  14.081 -0.3014  0.8620 -0.1866
   6623SM  H23F 8626   5.046   2.071  14.099 -0.7711  0.1875  2.0208
   6623SM  H23G 8627   5.164   1.994  13.989  0.5382 -1.7330 -0.1644
   6623SM  H23H 8628   5.169   1.950  14.166 -2.2523 -0.7813  0.8660
   6723SM     N 8629   2.868   6.092  16.569  0.2755 -0.1061 -0.2084
   6723SM   C15 8630   2.736   6.121  16.500 -0.3058  0.4783  0.3983
   6723SM  H15A 8631   2.686   6.200  16.555  0.3840  1.7956 -0.8166
   6723SM  H15B 8632   2.669   6.037  16.493 -0.5401  0.6562  0.4697
   6723SM  H15C 8633   2.748   6.162  16.401  2.2284  0.3763  0.6100
   6723SM   C14 8634   2.939   6.215  16.592  0.1037 -0.5129 -0.3635
   6723SM  H14A 8635   3.019   6.193  16.662 -1.1283  0.6752  1.5120
   6723SM  H14B 8636   2.882   6.291  16.643  1.8069 -0.1798  1.1444
   6723SM  H14C 8637   2.989   6.264  16.510  0.8357  1.4160  1.1425
   6723SM   C13 8638   2.834   6.021  16.704  0.6857  0.0408  0.5489
   6723SM  H13A 8639   2.769   5.936  16.691 -0.7629  0.9094  1.8217
   6723SM  H13B 8640   2.779   6.081  16.774 -1.6081  0.2645 -1.3340
   6723SM  H13C 8641   2.924   5.976  16.742  0.9529 -0.5270 -0.7019
   6723SM   C12 8642   2.949   6.000  16.478 -0.3272  0.3417 -0.2771
   6723SM  H12A 8643   2.910   5.901  16.463 -0.6955  0.4596 -0.1168
   6723SM  H12B 8644   3.042   5.990  16.533 -1.6180  0.5716  2.0705
   6723SM   C11 8645   2.991   6.053  16.336 -0.4525  0.3133  0.2890
   6723SM  H11A 8646   2.909   6.104  16.282  1.2502  3.0579  0.1101
   6723SM  H11B 8647   3.010   5.959  16.279 -0.1272  0.6262 -0.1217
   6723SM     P 8648   3.253   6.103  16.361  0.1591 -0.4418  0.2966
   6723SM   O13 8649   3.334   6.225  16.391 -0.4872  0.1941  0.1956
   6723SM   O14 8650   3.262   5.989  16.455 -0.1494 -0.0797 -0.1517
   6723SM   O11 8651   3.294   6.049  16.216 -0.9395 -0.2020 -0.3060
   6723SM   O12 8652   3.102   6.139  16.342  0.2007 -0.2700  0.3567
   6723SM   C1S 8653   3.277   6.120  16.092 -0.4126  0.1001 -0.0234
   6723SM   H1S 8654   3.340   6.211  16.100  1.6308 -1.4050  2.6136
   6723SM   H1T 8655   3.174   6.161  16.086 -0.9891 -0.7605  2.4629
   6723SM    NF 8656   3.297   6.108  15.847  0.2302  0.5331 -0.4001
   6723SM   HNF 8657   3.213   6.095  15.795  1.4162 -0.2757 -2.2085
   6723SM   C2S 8658   3.312   6.031  15.971 -0.2022  0.0854  0.4523
   6723SM   H2S 8659   3.421   6.009  15.981  0.1440  1.3559 -0.2645
   6723SM   C3S 8660   3.226   5.898  15.975 -0.0355 -0.0607 -0.7468
   6723SM   H3S 8661   3.118   5.926  15.982 -0.0111 -0.1573  0.1421
   6723SM    O3 8662   3.252   5.824  16.089 -0.4263 -0.1624 -0.6155
   6723SM   HO3 8663   3.266   5.892  16.155  0.3319 -0.6997 -0.2135
   6723SM   C4S 8664   3.255   5.818  15.858 -0.4255 -0.6872  0.3430
   6723SM   H4S 8665   3.171   5.813  15.786  0.4338 -0.7400 -0.6872
   6723SM   C5S 8666   3.371   5.747  15.835 -0.0549  0.5412  0.3451
   6723SM   H5S 8667   3.444   5.732  15.916 -1.1379 -0.1784  1.2164
   6723SM   C6S 8668   3.406   5.662  15.717  0.6146  0.8328  0.3026
   6723SM   H6S 8669   3.469   5.579  15.755  1.5795  2.2070  1.8210
   6723SM   H6T 8670   3.464   5.724  15.645 -1.6152  0.5156 -1.9228
   6723SM   C7S 8671   3.282   5.610  15.634 -0.0765  0.2087 -0.3156
   6723SM   H7S 8672   3.245   5.693  15.570 -1.4358  1.9212  2.4901
   6723SM   H7T 8673   3.203   5.568  15.700 -1.9793  1.4751 -1.6849
   6723SM   C8S 8674   3.318   5.494  15.533  0.7814  0.5729 -0.7124
   6723SM   H8S 8675   3.226   5.467  15.477  0.3484 -0.3589  0.4244
   6723SM   H8T 8676   3.352   5.406  15.590 -0.5184 -0.3965 -1.3926
   6723SM   C9S 8677   3.419   5.542  15.428 -0.5249  0.1811  0.6553
   6723SM   H9S 8678   3.513   5.584  15.470 -0.9493  0.0307  1.7847
   6723SM   H9T 8679   3.377   5.631  15.377  0.4097  0.7832  0.8950
   6723SM  C10S 8680   3.472   5.429  15.337 -0.6162  0.7182 -0.4875
   6723SM  H10S 8681   3.384   5.386  15.283 -0.6029  1.5306 -1.1636
   6723SM  H10T 8682   3.506   5.342  15.397 -1.3066  1.8845  1.7237
   6723SM  C11S 8683   3.589   5.461  15.240 -0.0829 -0.0747  0.4016
   6723SM  H11S 8684   3.675   5.482  15.307  0.2891  1.0249 -0.3835
   6723SM  H11T 8685   3.579   5.547  15.170  0.2244 -0.9713 -0.7865
   6723SM  C12S 8686   3.621   5.343  15.146  0.3087  0.7200 -0.3480
   6723SM  H12S 8687   3.536   5.327  15.076 -1.8692  0.9277  2.1030
   6723SM  H12T 8688   3.624   5.242  15.193  2.1487 -0.1776 -2.2339
   6723SM  C13S 8689   3.753   5.363  15.073 -0.2727  0.0960  0.2386
   6723SM  H13S 8690   3.832   5.373  15.151  1.2937  0.1539 -1.2903
   6723SM  H13T 8691   3.752   5.458  15.015 -0.9193 -0.4173 -0.6003
   6723SM  C14S 8692   3.780   5.252  14.974  0.1124  0.6657 -0.1897
   6723SM  H14S 8693   3.702   5.254  14.895  1.1878  1.6983 -1.2768
   6723SM  H14T 8694   3.765   5.160  15.035  1.6441  2.8656  3.9535
   6723SM  C15S 8695   3.920   5.244  14.914  0.7389 -0.3141 -0.2225
   6723SM  H15S 8696   4.001   5.225  14.988  0.7728 -1.1427 -0.4647
   6723SM  H15T 8697   3.943   5.347  14.878 -2.0393  0.5065  0.1381
   6723SM  C16S 8698   3.929   5.154  14.797 -0.4053  0.2227  0.4512
   6723SM  H16S 8699   3.850   5.155  14.720  0.3552 -2.0550 -0.4176
   6723SM  H16T 8700   3.929   5.050  14.834 -1.6554 -0.2119 -0.7086
   6723SM  C17S 8701   4.060   5.173  14.719  0.2225 -0.8249 -0.0979
   6723SM  H17S 8702   4.059   5.270  14.666  1.2871 -1.1464 -0.7267
   6723SM  H17T 8703   4.058   5.096  14.639  0.3082  0.2486 -1.1471
   6723SM  C18S 8704   4.189   5.156  14.796  0.3539  0.3330  0.5220
   6723SM  H18S 8705   4.266   5.185  14.721  1.4673 -0.2596  1.4237
   6723SM  H18T 8706   4.202   5.051  14.828 -1.9847  0.6890  3.0438
   6723SM  H18U 8707   4.192   5.223  14.885 -1.3324  0.4683  0.5153
   6723SM   C1F 8708   3.377   6.207  15.811 -0.8078 -0.5781  0.2341
   6723SM    OF 8709   3.481   6.227  15.876  0.0662  0.6345 -0.1015
   6723SM   C2F 8710   3.344   6.285  15.684 -0.7356 -0.4386  0.8391
   6723SM   H2F 8711   3.318   6.389  15.711 -0.3214 -0.4911  1.4524
   6723SM   H2G 8712   3.258   6.232  15.638 -0.4811 -1.0684  1.0701
   6723SM   C3F 8713   3.470   6.275  15.592 -0.6335  1.0090  0.2603
   6723SM   H3F 8714   3.569   6.288  15.642  1.8555  0.9229 -4.1449
   6723SM   H3G 8715   3.451   6.351  15.513 -3.3341  0.4630  0.2877
   6723SM   C4F 8716   3.482   6.141  15.518 -0.1755  0.4919 -0.0591
   6723SM   H4F 8717   3.414   6.141  15.430  1.9568 -1.6043 -1.8408
   6723SM   H4G 8718   3.450   6.051  15.574 -0.5489  0.6157 -0.0666
   6723SM   C5F 8719   3.619   6.106  15.458  0.1930  0.1171  0.4012
   6723SM   H5F 8720   3.704   6.100  15.529 -0.6581 -1.4825  1.3107
   6723SM   H5G 8721   3.657   6.184  15.387 -0.1213  0.5024  0.6485
   6723SM   C6F 8722   3.612   5.964  15.396 -0.6875  0.4235  0.5561
   6723SM   H6F 8723   3.523   5.955  15.330 -1.4707 -0.1645  1.6612
   6723SM   H6G 8724   3.596   5.890  15.477 -2.6363  0.5737  0.3456
   6723SM   C7F 8725   3.741   5.926  15.322  0.4105 -0.4528  0.0038
   6723SM   H7F 8726   3.836   5.946  15.377  1.3587  1.3218 -2.1024
   6723SM   H7G 8727   3.744   5.983  15.226  0.5084  1.4116  1.0681
   6723SM   C8F 8728   3.752   5.781  15.283 -0.1041  0.0937  0.3399
   6723SM   H8F 8729   3.682   5.766  15.198  0.3240 -0.5261  0.0942
   6723SM   H8G 8730   3.725   5.716  15.369 -0.8940  0.9618  0.7741
   6723SM   C9F 8731   3.885   5.731  15.229  0.2604 -0.1098 -0.2248
   6723SM   H9F 8732   3.868   5.621  15.231  0.9425 -0.3029  3.9453
   6723SM   H9G 8733   3.968   5.742  15.301  0.8654 -2.1069 -0.5628
   6723SM  C10F 8734   3.930   5.786  15.098  0.4465 -0.5224  0.5086
   6723SM  H10F 8735   4.040   5.767  15.094  0.4583 -0.4426  0.4343
   6723SM  H10G 8736   3.924   5.897  15.108  2.0106 -0.4700  1.1963
   6723SM  C11F 8737   3.868   5.744  14.965 -0.3992 -0.2481 -0.4636
   6723SM  H11F 8738   3.775   5.804  14.963  0.1915  0.8004  1.3786
   6723SM  H11G 8739   3.836   5.638  14.959 -1.8337  0.0251  1.5117
   6723SM  C12F 8740   3.966   5.772  14.851  0.0875 -0.3832 -0.5344
   6723SM  H12F 8741   3.914   5.732  14.761 -3.8817  0.5558  1.1055
   6723SM  H12G 8742   4.056   5.716  14.884  0.7813  0.9369 -0.1019
   6723SM  C13F 8743   3.999   5.927  14.833 -0.2949  0.0202  0.2923
   6723SM  H13F 8744   4.044   5.963  14.928  1.9952  1.0269 -1.0854
   6723SM  H13G 8745   3.899   5.974  14.824 -0.0029  0.6004  0.0324
   6723SM  C14F 8746   4.093   5.974  14.722  0.2045  0.4732  0.8202
   6723SM  H14F 8747   4.182   5.909  14.734  1.1080  1.6221  0.6006
   6723SM  H14G 8748   4.129   6.079  14.730  0.1221  0.7910 -1.9108
   6723SM  C15F 8749   4.021   5.948  14.585  0.0769 -0.6434  0.3430
   6723SM  H15F 8750   3.986   5.843  14.579  0.7130 -0.8796  0.6736
   6723SM  H15G 8751   4.103   5.943  14.509  0.5162  2.3039  0.5284
   6723SM  C16F 8752   3.917   6.047  14.529  0.0650 -0.8402 -0.5444
   6723SM  H16F 8753   3.961   6.148  14.520 -1.2958  0.0200  1.6649
   6723SM  H16G 8754   3.830   6.058  14.598  0.3159 -0.5716 -0.2661
   6723SM  C17F 8755   3.857   6.010  14.391  0.2944  0.4866 -0.2580
   6723SM  H17F 8756   3.798   5.916  14.395 -0.0361  0.5821 -2.1658
   6723SM  H17G 8757   3.952   6.001  14.334 -0.3147 -0.9779 -1.0830
   6723SM  C18F 8758   3.760   6.114  14.333  0.6264 -0.4239 -0.7136
   6723SM  H18F 8759   3.815   6.210  14.321 -0.6119  0.1557 -2.0923
   6723SM  H18G 8760   3.678   6.135  14.404  1.2675  5.0376 -1.1977
   6723SM  C19F 8761   3.695   6.058  14.206  0.1450 -0.3815  0.2620
   6723SM  H19F 8762   3.751   5.972  14.165 -0.2056 -0.4412 -0.0900
   6723SM  H19G 8763   3.701   6.146  14.138  3.3845  0.0066  0.8857
   6723SM  C20F 8764   3.551   6.011  14.234  0.0819  0.3112 -0.2280
   6723SM  H20F 8765   3.484   6.097  14.255  0.7582  0.7752  0.0622
   6723SM  H20G 8766   3.575   5.950  14.324  0.1023 -0.9361 -1.0481
   6723SM  C21F 8767   3.485   5.925  14.132  0.0279  0.1917  0.5210
   6723SM  H21F 8768   3.382   5.896  14.161 -0.1994  1.4708  1.0619
   6723SM  H21G 8769   3.549   5.835  14.119  0.2916  0.2021  1.6257
   6723SM  C22F 8770   3.458   6.010  14.010 -0.0762 -0.4962  0.6221
   6723SM  H22F 8771   3.558   6.030  13.967 -0.9428  1.3528 -0.7126
   6723SM  H22G 8772   3.417   6.110  14.037 -0.3035 -0.2998 -0.3817
   6723SM  C23F 8773   3.353   5.962  13.902 -0.3991 -0.0129  0.4713
   6723SM  H23F 8774   3.258   5.936  13.952  0.4544  2.0363  3.4213
   6723SM  H23G 8775   3.399   5.871  13.857  3.2564  2.0577 -0.3492
   6723SM  H23H 8776   3.347   6.037  13.821 -0.9368  0.4799  0.9624
   6823SM     N 8777   3.285   1.744  16.405 -0.4122 -0.2152 -0.3250
   6823SM   C15 8778   3.203   1.832  16.495  1.1522 -0.2006 -0.1199
   6823SM  H15A 8779   3.101   1.797  16.501  0.0756  2.5206 -0.8872
   6823SM  H15B 8780   3.211   1.936  16.467  0.5740  0.2257  1.2016
   6823SM  H15C 8781   3.241   1.829  16.596 -1.6778 -0.6966  1.0263
   6823SM   C14 8782   3.426   1.785  16.417  0.4846 -0.3163  0.0607
   6823SM  H14A 8783   3.461   1.769  16.518  0.3782 -1.7104 -0.1042
   6823SM  H14B 8784   3.427   1.888  16.386  0.0758 -0.6792 -1.2048
   6823SM  H14C 8785   3.489   1.731  16.349 -0.8245  0.9306 -2.2573
   6823SM   C13 8786   3.263   1.598  16.438 -0.4116  0.5932  0.2847
   6823SM  H13A 8787   3.329   1.554  16.512 -0.1562  3.7965  2.1676
   6823SM  H13B 8788   3.289   1.546  16.347 -2.6214 -2.5858  1.2926
   6823SM  H13C 8789   3.162   1.564  16.454 -0.0894 -0.3336  0.3779
   6823SM   C12 8790   3.229   1.766  16.265  0.3454  0.2218 -0.1442
   6823SM  H12A 8791   3.217   1.873  16.259 -1.5915 -0.0069 -1.4079
   6823SM  H12B 8792   3.126   1.733  16.266  0.2082  0.6057  1.3780
   6823SM   C11 8793   3.303   1.701  16.147  0.1860  0.3681 -0.1559
   6823SM  H11A 8794   3.412   1.722  16.149  0.4905 -0.3208 -3.4280
   6823SM  H11B 8795   3.260   1.739  16.052  2.2134 -2.5375 -2.4074
   6823SM     P 8796   3.156   1.496  16.113  0.0008 -0.1933  0.2517
   6823SM   O13 8797   3.180   1.351  16.121  0.8469 -0.3684 -0.3931
   6823SM   O14 8798   3.053   1.559  16.198  0.3347 -0.5551 -0.4280
   6823SM   O11 8799   3.132   1.535  15.965 -0.0630 -0.1953  0.0769
   6823SM   O12 8800   3.294   1.558  16.153 -0.3207 -0.2581 -0.0512
   6823SM   C1S 8801   3.238   1.511  15.876  0.0804  0.6038  0.4495
   6823SM   H1S 8802   3.269   1.405  15.881 -0.0545  0.6087  2.1589
   6823SM   H1T 8803   3.322   1.579  15.903  1.2415 -0.3323 -0.7108
   6823SM    NF 8804   3.292   1.493  15.641 -0.4088  0.3501 -0.2536
   6823SM   HNF 8805   3.358   1.563  15.615 -1.9108  1.8383 -0.2477
   6823SM   C2S 8806   3.192   1.538  15.733  0.0072  0.1070 -0.0821
   6823SM   H2S 8807   3.095   1.484  15.730 -0.4778  0.9468 -0.0667
   6823SM   C3S 8808   3.163   1.693  15.717 -0.6274 -0.4585  0.1831
   6823SM   H3S 8809   3.257   1.750  15.732  0.4379 -1.9496 -0.5366
   6823SM    O3 8810   3.067   1.749  15.810 -0.3135 -0.3984  0.0519
   6823SM   HO3 8811   3.063   1.677  15.874  1.0432 -2.2785 -1.8030
   6823SM   C4S 8812   3.105   1.723  15.575  0.3230  0.0393 -0.0664
   6823SM   H4S 8813   2.995   1.720  15.568  0.0861  0.9429  2.3042
   6823SM   C5S 8814   3.173   1.757  15.464 -0.1586 -0.9820  0.1613
   6823SM   H5S 8815   3.283   1.763  15.470 -0.0107 -2.3185 -0.7886
   6823SM   C6S 8816   3.141   1.795  15.321 -0.0485  0.1302  0.0079
   6823SM   H6S 8817   3.228   1.781  15.253 -1.7961 -2.4949 -1.8857
   6823SM   H6T 8818   3.116   1.901  15.300  0.5419  0.2294 -0.2318
   6823SM   C7S 8819   3.027   1.721  15.251  0.1085  0.0139 -0.3697
   6823SM   H7S 8820   2.931   1.752  15.299  0.5034  0.3157  0.2387
   6823SM   H7T 8821   3.040   1.611  15.264 -0.3836  0.1235  1.2840
   6823SM   C8S 8822   3.017   1.750  15.099 -0.6668  0.5529  0.0100
   6823SM   H8S 8823   2.935   1.692  15.051 -0.3027  1.2247 -1.5049
   6823SM   H8T 8824   3.108   1.720  15.042 -1.7063 -1.2172 -0.7960
   6823SM   C9S 8825   2.981   1.896  15.066  0.0284  0.0383  0.2582
   6823SM   H9S 8826   3.041   1.970  15.122 -1.0735  0.0695  1.4461
   6823SM   H9T 8827   2.875   1.915  15.093 -1.5638 -2.7062 -3.1947
   6823SM  C10S 8828   2.986   1.926  14.917  0.2887 -0.6792 -0.4121
   6823SM  H10S 8829   2.907   1.860  14.874  0.8446 -3.3122  2.2544
   6823SM  H10T 8830   3.087   1.901  14.879 -0.2582 -0.6087 -2.0019
   6823SM  C11S 8831   2.948   2.060  14.869 -0.8266  0.1871 -0.7069
   6823SM  H11S 8832   3.011   2.129  14.929  0.4540 -2.2299  0.9252
   6823SM  H11T 8833   2.841   2.076  14.893 -0.6954 -0.5628  0.4297
   6823SM  C12S 8834   2.970   2.088  14.721  0.2658 -0.2232 -0.1534
   6823SM  H12S 8835   3.081   2.084  14.713  0.6009  0.3989  3.0975
   6823SM  H12T 8836   2.950   2.194  14.697  0.5368 -0.2003 -0.2940
   6823SM  C13S 8837   2.907   1.994  14.622 -0.0944 -0.0818 -0.5194
   6823SM  H13S 8838   2.797   1.981  14.614 -0.0915  0.4181 -1.6868
   6823SM  H13T 8839   2.945   1.891  14.639  2.6969  1.0548  0.7929
   6823SM  C14S 8840   2.951   2.016  14.478 -0.2325 -0.7558 -0.1914
   6823SM  H14S 8841   2.919   1.929  14.417 -0.4328 -0.3087 -0.7357
   6823SM  H14T 8842   3.061   2.034  14.488 -0.1713 -1.8113  1.4010
   6823SM  C15S 8843   2.875   2.121  14.402  0.0593  0.1347  0.9318
   6823SM  H15S 8844   2.864   2.202  14.477  1.0761  1.5491 -0.3929
   6823SM  H15T 8845   2.776   2.077  14.376  1.2130 -1.7152 -0.5202
   6823SM  C16S 8846   2.961   2.175  14.284  0.2555 -0.2136  0.3555
   6823SM  H16S 8847   2.959   2.104  14.198  1.1641 -1.2651  1.1713
   6823SM  H16T 8848   3.062   2.190  14.328  0.0942 -1.7867  1.3534
   6823SM  C17S 8849   2.920   2.304  14.217 -0.1570 -0.1340  0.1963
   6823SM  H17S 8850   2.833   2.286  14.150  1.1925  1.4597 -2.1003
   6823SM  H17T 8851   3.004   2.331  14.150 -0.4547 -1.5948 -0.8294
   6823SM  C18S 8852   2.898   2.431  14.307 -0.3497  0.2943  0.0690
   6823SM  H18S 8853   2.990   2.446  14.368  1.3701 -1.7509 -1.8215
   6823SM  H18T 8854   2.812   2.425  14.377  0.7041 -1.8352  1.2875
   6823SM  H18U 8855   2.882   2.519  14.241 -1.5353  1.4890  1.8603
   6823SM   C1F 8856   3.311   1.365  15.616 -0.1995 -0.2574  0.2705
   6823SM    OF 8857   3.245   1.285  15.679 -0.1974  0.0190  0.2672
   6823SM   C2F 8858   3.401   1.325  15.510  0.3745 -0.1778  0.0835
   6823SM   H2F 8859   3.480   1.262  15.557  0.8275  0.8178  0.6767
   6823SM   H2G 8860   3.453   1.416  15.473 -0.2486  1.5479  3.1180
   6823SM   C3F 8861   3.336   1.252  15.396 -0.0433  0.1872 -0.1759
   6823SM   H3F 8862   3.269   1.185  15.454  0.9269 -1.1514 -0.5561
   6823SM   H3G 8863   3.410   1.190  15.341 -0.8963 -1.6150  0.6339
   6823SM   C4F 8864   3.265   1.327  15.285 -0.0277  0.1130  0.4998
   6823SM   H4F 8865   3.200   1.408  15.326  0.0679  0.2228  0.4336
   6823SM   H4G 8866   3.201   1.253  15.232 -1.1460  1.2631  0.1812
   6823SM   C5F 8867   3.371   1.389  15.185  1.2104 -0.2260  0.3607
   6823SM   H5F 8868   3.437   1.321  15.127 -2.8564 -2.0020 -2.6779
   6823SM   H5G 8869   3.435   1.443  15.258 -0.5256 -0.2897  2.0021
   6823SM   C6F 8870   3.302   1.503  15.111  0.7935  0.4797  0.0308
   6823SM   H6F 8871   3.372   1.571  15.058  1.2201 -0.0335 -0.0825
   6823SM   H6G 8872   3.239   1.569  15.174 -0.6300 -1.2769  0.5509
   6823SM   C7F 8873   3.205   1.452  14.997 -0.0965  0.1333 -0.2899
   6823SM   H7F 8874   3.161   1.546  14.957 -3.0362 -1.3523 -0.8109
   6823SM   H7G 8875   3.118   1.403  15.045  1.1968 -3.0059 -0.9231
   6823SM   C8F 8876   3.279   1.364  14.905  0.0542  0.2705  0.5760
   6823SM   H8F 8877   3.331   1.278  14.952  2.0319  0.5133 -1.0297
   6823SM   H8G 8878   3.357   1.425  14.855  0.3730 -0.5056  0.1190
   6823SM   C9F 8879   3.187   1.294  14.797 -0.1586 -0.0069 -0.3938
   6823SM   H9F 8880   3.116   1.235  14.859 -0.5063  1.3388  0.5260
   6823SM   H9G 8881   3.246   1.219  14.740  0.6255 -0.7301  1.2992
   6823SM  C10F 8882   3.097   1.387  14.720  0.6532 -0.2522  0.0686
   6823SM  H10F 8883   3.023   1.444  14.779  1.4985 -0.8581  1.7938
   6823SM  H10G 8884   3.037   1.315  14.660  1.0541  0.0478 -0.7020
   6823SM  C11F 8885   3.173   1.485  14.637  0.6304  0.3340  0.4185
   6823SM  H11F 8886   3.249   1.426  14.581  0.1015 -0.5587  0.6321
   6823SM  H11G 8887   3.222   1.560  14.704 -0.7592  1.6710 -0.0056
   6823SM  C12F 8888   3.067   1.557  14.549 -0.5570 -0.1060  0.1665
   6823SM  H12F 8889   3.004   1.591  14.634  2.1566 -0.3106  2.3960
   6823SM  H12G 8890   3.014   1.477  14.492 -1.2212 -0.5272  1.3317
   6823SM  C13F 8891   3.119   1.661  14.467 -0.2622 -0.9675 -0.1625
   6823SM  H13F 8892   3.187   1.730  14.520  0.6333 -0.9638 -1.2726
   6823SM  H13G 8893   3.034   1.727  14.438 -1.3946 -2.1844  0.2643
   6823SM  C14F 8894   3.186   1.608  14.339 -0.0737  0.1201  0.6488
   6823SM  H14F 8895   3.111   1.534  14.305  2.0556 -1.3129 -1.1822
   6823SM  H14G 8896   3.284   1.558  14.355  1.2059  2.0976 -0.5780
   6823SM  C15F 8897   3.193   1.717  14.226 -0.2147  0.3294  0.0972
   6823SM  H15F 8898   3.245   1.667  14.142  1.1641 -0.0267  1.1326
   6823SM  H15G 8899   3.245   1.805  14.268  0.4965  0.5339 -1.1636
   6823SM  C16F 8900   3.059   1.757  14.167  0.3326 -0.2967 -0.0598
   6823SM  H16F 8901   2.999   1.808  14.246  1.6457  0.4669  0.4839
   6823SM  H16G 8902   3.008   1.668  14.124 -1.4836 -0.3597  2.0131
   6823SM  C17F 8903   3.083   1.863  14.053  0.4310  0.0743  0.3518
   6823SM  H17F 8904   3.164   1.819  13.991 -1.1152  0.5450 -2.1185
   6823SM  H17G 8905   3.119   1.958  14.096 -0.4882  1.0992 -1.0614
   6823SM  C18F 8906   2.951   1.895  13.982  0.2314 -0.0021 -0.4920
   6823SM  H18F 8907   2.879   1.938  14.056 -0.2399 -0.8152 -0.4616
   6823SM  H18G 8908   2.905   1.811  13.925 -0.4766  1.8425 -2.7851
   6823SM  C19F 8909   2.966   2.009  13.874  0.4640  0.3980  0.1399
   6823SM  H19F 8910   3.030   2.090  13.914  1.5815 -0.3895 -0.0266
   6823SM  H19G 8911   2.865   2.053  13.859 -0.0921 -0.6192  0.7879
   6823SM  C20F 8912   3.010   1.968  13.737  0.2036  0.6308 -0.1933
   6823SM  H20F 8913   2.943   1.888  13.698 -0.5839  0.9722  0.4317
   6823SM  H20G 8914   3.114   1.928  13.736 -0.7841 -2.3079  1.1192
   6823SM  C21F 8915   3.020   2.096  13.643  0.2895 -0.1629 -0.0620
   6823SM  H21F 8916   3.101   2.160  13.685 -0.5138 -0.8884  2.8674
   6823SM  H21G 8917   2.932   2.162  13.658  0.9474  0.3992  1.6357
   6823SM  C22F 8918   3.012   2.067  13.493 -0.3832  0.5059 -0.2997
   6823SM  H22F 8919   2.910   2.054  13.451  0.3869  0.3382 -2.2215
   6823SM  H22G 8920   3.066   1.971  13.484 -1.5443 -0.4063  1.8542
   6823SM  C23F 8921   3.088   2.179  13.410 -0.2060  0.1035 -0.0587
   6823SM  H23F 8922   3.016   2.244  13.355 -1.3145  0.3095  1.5736
   6823SM  H23G 8923   3.146   2.121  13.335  2.5554  1.1082  1.1663
   6823SM  H23H 8924   3.151   2.243  13.476 -2.1250  1.4015  0.5839
   6923SM     N 8925   5.705   2.652  16.680 -0.2085  0.6328 -0.1340
   6923SM   C15 8926   5.794   2.607  16.568 -0.5342  0.7145 -0.5380
   6923SM  H15A 8927   5.794   2.665  16.477  2.0658 -4.1152 -4.0844
   6923SM  H15B 8928   5.770   2.506  16.538  0.1645  0.2906  0.2791
   6923SM  H15C 8929   5.892   2.605  16.613 -0.7802 -0.9421 -0.0017
   6923SM   C14 8930   5.726   2.562  16.803 -0.0772  0.8064 -0.1097
   6923SM  H14A 8931   5.660   2.578  16.887  1.1985 -1.3201  1.4066
   6923SM  H14B 8932   5.828   2.558  16.837  0.0879  1.7289 -0.4740
   6923SM  H14C 8933   5.706   2.461  16.771 -1.6198  1.1278 -0.2367
   6923SM   C13 8934   5.739   2.798  16.711 -0.0623  0.2595  0.2412
   6923SM  H13A 8935   5.844   2.815  16.729  0.3941 -1.0839 -0.9505
   6923SM  H13B 8936   5.691   2.827  16.803 -0.4528 -0.1132  0.1589
   6923SM  H13C 8937   5.721   2.865  16.627 -0.6838  0.4836  0.5430
   6923SM   C12 8938   5.559   2.632  16.645  0.0823  0.8410  0.2414
   6923SM  H12A 8939   5.530   2.717  16.584 -0.9542  0.0051 -0.4528
   6923SM  H12B 8940   5.496   2.646  16.731  0.6543 -0.3532  0.8685
   6923SM   C11 8941   5.520   2.502  16.566 -0.0048 -0.3993 -0.3815
   6923SM  H11A 8942   5.566   2.496  16.465  1.6708 -0.2605  0.3436
   6923SM  H11B 8943   5.412   2.516  16.541 -0.2426  0.8629  1.2129
   6923SM     P 8944   5.581   2.253  16.567  0.0150  0.3945 -0.2707
   6923SM   O13 8945   5.728   2.255  16.560 -0.7944  0.2522  0.3304
   6923SM   O14 8946   5.509   2.146  16.636  0.0972  0.4173  0.3714
   6923SM   O11 8947   5.523   2.264  16.424 -0.3925 -0.4139  0.4375
   6923SM   O12 8948   5.527   2.379  16.636 -0.0426 -0.5896 -0.3871
   6923SM   C1S 8949   5.528   2.162  16.319  0.1075  0.3850 -1.0945
   6923SM   H1S 8950   5.493   2.064  16.359 -0.5541  0.9052 -0.3470
   6923SM   H1T 8951   5.632   2.149  16.283 -0.1719 -0.9833 -1.4742
   6923SM    NF 8952   5.461   2.075  16.095 -0.1975 -0.3514  0.4707
   6923SM   HNF 8953   5.545   2.073  16.041 -0.1017  1.6278  0.4549
   6923SM   C2S 8954   5.447   2.187  16.188 -0.0392 -0.2286 -0.4652
   6923SM   H2S 8955   5.338   2.201  16.207 -0.1662  0.3275 -1.5227
   6923SM   C3S 8956   5.512   2.320  16.126  0.0999 -0.0204  0.0488
   6923SM   H3S 8957   5.622   2.306  16.113  0.3817  2.0112 -0.2024
   6923SM    O3 8958   5.494   2.427  16.214 -0.0439 -0.2063 -0.0050
   6923SM   HO3 8959   5.501   2.381  16.299  2.4954  0.4010  0.1839
   6923SM   C4S 8960   5.453   2.359  15.991  0.4954  0.1231 -0.6447
   6923SM   H4S 8961   5.345   2.380  15.999  0.7276  1.5494 -1.1145
   6923SM   C5S 8962   5.511   2.383  15.878 -0.2700 -0.1164  0.0906
   6923SM   H5S 8963   5.620   2.369  15.870 -0.0414  1.8659 -0.7732
   6923SM   C6S 8964   5.439   2.435  15.759 -0.1022 -0.0126 -0.6910
   6923SM   H6S 8965   5.476   2.537  15.736 -0.2699  0.1873 -0.1023
   6923SM   H6T 8966   5.337   2.456  15.800 -0.1365  3.6729 -2.2925
   6923SM   C7S 8967   5.439   2.344  15.633 -0.1219 -0.4202 -0.6204
   6923SM   H7S 8968   5.414   2.238  15.658 -2.2797  0.2351  0.2766
   6923SM   H7T 8969   5.539   2.339  15.584  0.3792  3.0116 -0.1924
   6923SM   C8S 8970   5.337   2.402  15.537  0.0723 -0.0541 -0.5787
   6923SM   H8S 8971   5.346   2.513  15.538  1.6886 -0.1586 -0.0493
   6923SM   H8T 8972   5.234   2.384  15.575 -0.0205 -0.8292 -1.1846
   6923SM   C9S 8973   5.347   2.349  15.395 -0.1969 -0.6455  0.1117
   6923SM   H9S 8974   5.269   2.404  15.338  0.3548 -1.4272 -1.4737
   6923SM   H9T 8975   5.314   2.244  15.406  0.3697 -0.7267  1.2130
   6923SM  C10S 8976   5.474   2.355  15.322  0.1108 -0.3280  0.8473
   6923SM  H10S 8977   5.537   2.282  15.378 -2.7353 -1.3753  2.9425
   6923SM  H10T 8978   5.524   2.454  15.318 -1.8323  0.7480  1.9409
   6923SM  C11S 8979   5.455   2.306  15.179 -0.4007  0.5207  0.1342
   6923SM  H11S 8980   5.368   2.363  15.140 -1.6518 -2.0567 -1.0648
   6923SM  H11T 8981   5.414   2.203  15.170  1.6075 -0.3733  0.6156
   6923SM  C12S 8982   5.576   2.332  15.095  0.2267 -0.1075 -0.6070
   6923SM  H12S 8983   5.653   2.265  15.139 -0.4830  0.2815  1.3148
   6923SM  H12T 8984   5.611   2.436  15.108 -3.6619  1.2284  0.5718
   6923SM  C13S 8985   5.557   2.306  14.940 -0.0214 -0.1122 -0.3393
   6923SM  H13S 8986   5.485   2.224  14.923 -0.0206 -0.2935  0.5101
   6923SM  H13T 8987   5.656   2.275  14.900  0.5666 -2.1315  2.4276
   6923SM  C14S 8988   5.516   2.432  14.864 -0.4695 -0.0812 -0.1079
   6923SM  H14S 8989   5.600   2.504  14.873  1.2739 -2.1340  0.7876
   6923SM  H14T 8990   5.424   2.471  14.913 -0.1759  1.5520 -0.7882
   6923SM  C15S 8991   5.492   2.401  14.719 -0.2351  0.2785  0.5238
   6923SM  H15S 8992   5.436   2.307  14.702  1.1986  0.0179 -3.9738
   6923SM  H15T 8993   5.590   2.397  14.667 -0.9591 -1.0248 -0.7833
   6923SM  C16S 8994   5.414   2.521  14.660  0.0095 -0.4519 -0.1943
   6923SM  H16S 8995   5.477   2.609  14.684  1.4205 -2.0030  2.3309
   6923SM  H16T 8996   5.315   2.525  14.709 -0.2916 -0.9114 -0.7579
   6923SM  C17S 8997   5.395   2.512  14.509  0.3421  0.4783  0.2324
   6923SM  H17S 8998   5.494   2.515  14.459  1.1883 -0.2044  1.8008
   6923SM  H17T 8999   5.345   2.605  14.474  2.8260  1.1955 -1.7285
   6923SM  C18S 9000   5.323   2.384  14.460 -0.6085 -0.1007  0.5060
   6923SM  H18S 9001   5.280   2.403  14.360  1.5495 -1.6719 -0.8064
   6923SM  H18T 9002   5.256   2.347  14.540  0.3720  1.9822  2.4250
   6923SM  H18U 9003   5.400   2.306  14.441 -1.1893 -0.1761 -1.7213
   6923SM   C1F 9004   5.378   1.966  16.101  0.0760 -0.2797  0.3127
   6923SM    OF 9005   5.304   1.946  16.197  0.2621 -0.2989 -0.0264
   6923SM   C2F 9006   5.389   1.870  15.988 -0.1186 -0.2418 -0.0168
   6923SM   H2F 9007   5.430   1.772  16.020  1.1979 -0.2612 -1.6190
   6923SM   H2G 9008   5.451   1.917  15.908 -2.2571  1.9060 -0.5227
   6923SM   C3F 9009   5.246   1.835  15.932 -0.0565 -0.1710  0.0782
   6923SM   H3F 9010   5.192   1.780  16.012 -3.3440 -0.1245 -1.9317
   6923SM   H3G 9011   5.260   1.757  15.854 -1.3494 -0.9009  0.5539
   6923SM   C4F 9012   5.145   1.949  15.900 -0.2427 -0.4842  0.3036
   6923SM   H4F 9013   5.142   2.016  15.989  2.7560 -1.1757  1.0530
   6923SM   H4G 9014   5.046   1.899  15.895  1.2516 -3.6346  0.4160
   6923SM   C5F 9015   5.188   2.016  15.769  0.7539  0.2751 -0.0228
   6923SM   H5F 9016   5.286   2.065  15.786  0.1957  1.9164 -1.2511
   6923SM   H5G 9017   5.113   2.098  15.759 -0.3051 -0.3803  1.9678
   6923SM   C6F 9018   5.196   1.929  15.643 -0.4393 -0.4075 -0.1372
   6923SM   H6F 9019   5.094   1.888  15.625 -1.1087  1.4670 -0.8488
   6923SM   H6G 9020   5.274   1.855  15.671  1.1090  1.0130 -0.5722
   6923SM   C7F 9021   5.239   2.010  15.515  0.2532 -0.1171 -0.1345
   6923SM   H7F 9022   5.350   2.017  15.519  0.3949 -0.7550 -2.0233
   6923SM   H7G 9023   5.196   2.113  15.512  0.9674  0.1668 -1.8700
   6923SM   C8F 9024   5.200   1.935  15.393 -0.0603  0.3348  1.2375
   6923SM   H8F 9025   5.089   1.935  15.391 -0.0765 -0.4744 -0.8145
   6923SM   H8G 9026   5.237   1.831  15.408  3.3161  1.1461 -0.4092
   6923SM   C9F 9027   5.257   1.982  15.258 -0.2565 -0.9170 -0.2299
   6923SM   H9F 9028   5.368   1.991  15.263 -0.4362  1.0882  1.4581
   6923SM   H9G 9029   5.218   2.085  15.244  0.4296 -0.8291 -1.6665
   6923SM  C10F 9030   5.232   1.886  15.140 -0.1809  0.0196 -0.9226
   6923SM  H10F 9031   5.124   1.864  15.135  0.0221 -0.8407 -1.7364
   6923SM  H10G 9032   5.287   1.793  15.166  1.0369  1.2431  1.1401
   6923SM  C11F 9033   5.290   1.951  15.012  0.1385 -0.7707 -0.0892
   6923SM  H11F 9034   5.387   1.992  15.046 -0.2188  0.7126 -0.7798
   6923SM  H11G 9035   5.228   2.037  14.978 -1.5034 -2.5209 -1.7649
   6923SM  C12F 9036   5.300   1.858  14.892  0.3579 -0.2678  0.1903
   6923SM  H12F 9037   5.197   1.838  14.854  0.6984 -1.3574 -0.1799
   6923SM  H12G 9038   5.348   1.759  14.905  2.6138  0.6795 -0.4638
   6923SM  C13F 9039   5.391   1.927  14.788 -0.3038  0.0828  0.7439
   6923SM  H13F 9040   5.495   1.948  14.821  0.2805  0.2328 -1.0875
   6923SM  H13G 9041   5.355   2.029  14.762 -0.8577 -0.3509 -0.2702
   6923SM  C14F 9042   5.391   1.857  14.659  0.3886  0.2213  0.2989
   6923SM  H14F 9043   5.284   1.835  14.640  0.6877 -3.3303  1.9397
   6923SM  H14G 9044   5.428   1.752  14.653 -0.9362 -0.2106 -1.1051
   6923SM  C15F 9045   5.444   1.927  14.536  0.0806 -0.4082 -0.2702
   6923SM  H15F 9046   5.412   2.033  14.525 -2.3539 -0.7536  2.2226
   6923SM  H15G 9047   5.407   1.875  14.445 -0.4089  0.6862 -0.7160
   6923SM  C16F 9048   5.596   1.925  14.517 -0.4831 -0.8941  0.9853
   6923SM  H16F 9049   5.625   1.819  14.530  1.1287 -0.6671 -0.3405
   6923SM  H16G 9050   5.648   1.977  14.600  1.1822 -0.5961 -0.1885
   6923SM  C17F 9051   5.653   1.968  14.379  0.1422 -1.2281 -0.0278
   6923SM  H17F 9052   5.615   1.915  14.289  0.0441  0.1298 -0.8075
   6923SM  H17G 9053   5.759   1.938  14.386  0.4112 -0.2908  0.0017
   6923SM  C18F 9054   5.634   2.115  14.333  0.2762 -0.0075 -0.0631
   6923SM  H18F 9055   5.523   2.118  14.326  0.3034 -1.4844 -2.0394
   6923SM  H18G 9056   5.663   2.133  14.227 -3.0990  0.8963 -0.9417
   6923SM  C19F 9057   5.702   2.222  14.419 -0.5243 -0.6595  0.5288
   6923SM  H19F 9058   5.694   2.206  14.529 -1.0142  1.8105  0.9123
   6923SM  H19G 9059   5.661   2.324  14.401 -3.4026 -2.0432 -1.4119
   6923SM  C20F 9060   5.854   2.229  14.386  0.2598 -0.2747 -0.5620
   6923SM  H20F 9061   5.862   2.237  14.275 -0.6354 -0.0024 -0.6151
   6923SM  H20G 9062   5.918   2.146  14.422  1.0224  0.2712 -0.6340
   6923SM  C21F 9063   5.912   2.360  14.442 -0.3935 -0.8985  0.1628
   6923SM  H21F 9064   5.884   2.389  14.546 -2.1682  0.7204 -0.7136
   6923SM  H21G 9065   5.871   2.448  14.389 -0.2682 -0.0314  1.4569
   6923SM  C22F 9066   6.066   2.362  14.423 -0.1091  0.0503  0.0513
   6923SM  H22F 9067   6.106   2.336  14.322  1.2340 -0.4804  0.6979
   6923SM  H22G 9068   6.104   2.278  14.485  0.8831  0.0945 -0.4712
   6923SM  C23F 9069   6.134   2.488  14.470  0.5286  0.0073 -0.6510
   6923SM  H23F 9070   6.128   2.489  14.581  1.2837 -1.7459 -0.5532
   6923SM  H23G 9071   6.092   2.582  14.430  2.8444  1.7017  0.6631
   6923SM  H23H 9072   6.240   2.489  14.437  1.2690 -0.7225  1.5419
   7023SM     N 9073   4.955   1.938  16.306  0.3905  0.3700 -0.5032
   7023SM   C15 9074   4.957   2.046  16.208  0.0714 -0.3586  0.3211
   7023SM  H15A 9075   5.057   2.070  16.176 -0.5581  0.2166 -1.2943
   7023SM  H15B 9076   4.922   2.139  16.251  0.6563 -0.4153  0.9508
   7023SM  H15C 9077   4.899   2.011  16.124  0.8585  1.1555 -0.9022
   7023SM   C14 9078   5.026   1.824  16.243 -0.1727 -0.1300  0.4105
   7023SM  H14A 9079   5.122   1.860  16.207  0.4665 -1.1231  1.0445
   7023SM  H14B 9080   4.984   1.772  16.158  2.0203 -1.8050  0.2286
   7023SM  H14C 9081   5.040   1.749  16.319 -2.0025  1.9266  2.9266
   7023SM   C13 9082   5.038   1.995  16.416 -0.1499 -0.0051  0.0062
   7023SM  H13A 9083   5.013   2.097  16.440  0.4941 -0.1382  1.3547
   7023SM  H13B 9084   5.143   2.001  16.390 -0.4958 -0.6008 -1.6335
   7023SM  H13C 9085   5.033   1.934  16.505  0.3527 -0.0746 -0.0088
   7023SM   C12 9086   4.813   1.907  16.348  0.3340 -0.1857 -0.0595
   7023SM  H12A 9087   4.810   1.822  16.415 -0.9114 -1.8053 -2.0275
   7023SM  H12B 9088   4.754   1.865  16.268 -0.6051 -0.8736  0.9592
   7023SM   C11 9089   4.722   2.025  16.401  0.8803  0.3757 -0.6771
   7023SM  H11A 9090   4.762   2.065  16.497 -1.2009  1.2796 -0.1330
   7023SM  H11B 9091   4.620   1.987  16.425  1.1625 -1.2975 -1.9630
   7023SM     P 9092   4.611   2.114  16.188 -0.0772  0.0514  0.3122
   7023SM   O13 9093   4.472   2.149  16.234 -0.4925  0.1079  0.4169
   7023SM   O14 9094   4.672   2.184  16.070  0.6971 -0.0802  0.4701
   7023SM   O11 9095   4.608   1.955  16.168 -0.1640 -0.2593 -0.0103
   7023SM   O12 9096   4.705   2.134  16.311  0.1935  0.1526 -0.4984
   7023SM   C1S 9097   4.511   1.897  16.083  0.6882 -0.2917 -0.6238
   7023SM   H1S 9098   4.411   1.943  16.100  0.8943 -0.8124  2.4333
   7023SM   H1T 9099   4.486   1.794  16.115  0.6437 -0.0462  0.1481
   7023SM    NF 9100   4.426   1.851  15.866 -0.1012  1.0219  0.3150
   7023SM   HNF 9101   4.421   1.753  15.848 -1.1836  0.3564  3.6149
   7023SM   C2S 9102   4.555   1.879  15.934  0.1133 -0.4570 -0.2176
   7023SM   H2S 9103   4.590   1.977  15.895 -1.9682 -0.2884 -1.8270
   7023SM   C3S 9104   4.663   1.767  15.919 -0.0636 -0.1925 -0.1147
   7023SM   H3S 9105   4.623   1.672  15.962 -1.2893  0.6677  0.7023
   7023SM    O3 9106   4.769   1.797  16.007 -0.1930 -0.7424 -0.7543
   7023SM   HO3 9107   4.741   1.873  16.058 -0.2264 -0.9511 -0.4591
   7023SM   C4S 9108   4.704   1.759  15.775 -0.1647  0.1239 -0.1940
   7023SM   H4S 9109   4.763   1.844  15.740 -0.5218  0.0167 -1.0935
   7023SM   C5S 9110   4.682   1.659  15.690 -0.4058  0.2506 -0.2718
   7023SM   H5S 9111   4.627   1.573  15.732 -0.7176 -1.1779 -3.2827
   7023SM   C6S 9112   4.727   1.642  15.548  0.5279  0.0804  0.0847
   7023SM   H6S 9113   4.752   1.538  15.517  1.6010  0.7310 -1.4182
   7023SM   H6T 9114   4.821   1.699  15.531  0.6190  0.7294  2.4414
   7023SM   C7S 9115   4.633   1.705  15.444 -1.1169  0.1839  0.0145
   7023SM   H7S 9116   4.588   1.805  15.466  0.5682  0.9902 -0.0961
   7023SM   H7T 9117   4.545   1.636  15.445 -0.8169 -0.2249 -0.9578
   7023SM   C8S 9118   4.688   1.707  15.300 -0.9877 -0.0668 -0.2374
   7023SM   H8S 9119   4.698   1.603  15.260  1.8678 -0.9006  2.2407
   7023SM   H8T 9120   4.787   1.755  15.314 -1.0563  0.2316 -0.7372
   7023SM   C9S 9121   4.610   1.803  15.215  0.0965 -1.1344  0.3742
   7023SM   H9S 9122   4.560   1.884  15.272 -0.3368 -0.2416 -1.2057
   7023SM   H9T 9123   4.530   1.742  15.167  0.4839 -1.4428  0.1084
   7023SM  C10S 9124   4.688   1.872  15.110 -0.7815  0.2814 -0.6393
   7023SM  H10S 9125   4.736   1.790  15.053  1.2482 -0.6993  2.2810
   7023SM  H10T 9126   4.775   1.921  15.159 -0.2256 -1.0099 -0.3201
   7023SM  C11S 9127   4.608   1.971  15.024  0.4762  0.3077 -0.2591
   7023SM  H11S 9128   4.679   2.029  14.962  0.0750  1.0297 -0.0500
   7023SM  H11T 9129   4.572   2.049  15.094 -2.0419 -0.7723 -0.2072
   7023SM  C12S 9130   4.495   1.916  14.947  0.8309 -0.3689 -0.7103
   7023SM  H12S 9131   4.466   1.820  14.996  1.0931 -0.3025 -0.4209
   7023SM  H12T 9132   4.525   1.881  14.846  2.4147  1.2452 -0.8636
   7023SM  C13S 9133   4.370   2.002  14.921  0.1697  0.3156 -0.8336
   7023SM  H13S 9134   4.306   1.943  14.852 -2.4979 -0.3177  1.9538
   7023SM  H13T 9135   4.395   2.104  14.885  1.0766  1.7254  3.2182
   7023SM  C14S 9136   4.286   2.029  15.051 -0.0470 -0.0521  0.1959
   7023SM  H14S 9137   4.308   1.966  15.140  0.7130 -0.3345 -0.1848
   7023SM  H14T 9138   4.180   2.024  15.017 -0.5442  2.1137  1.2858
   7023SM  C15S 9139   4.316   2.162  15.104 -0.4159 -0.6677 -1.2345
   7023SM  H15S 9140   4.294   2.238  15.026 -1.3608  0.1634 -0.1946
   7023SM  H15T 9141   4.426   2.165  15.123 -0.1381  1.8921 -2.7184
   7023SM  C16S 9142   4.236   2.182  15.235 -0.2678  0.8634 -0.6885
   7023SM  H16S 9143   4.275   2.120  15.319 -1.6504  0.6396 -0.1966
   7023SM  H16T 9144   4.130   2.163  15.210  0.1368 -2.0360 -0.4547
   7023SM  C17S 9145   4.241   2.332  15.271  0.4031  0.5023  0.1528
   7023SM  H17S 9146   4.208   2.396  15.186 -0.6023 -0.6054 -0.3124
   7023SM  H17T 9147   4.347   2.365  15.281  0.9028 -0.8826 -0.3280
   7023SM  C18S 9148   4.152   2.380  15.393 -0.0218  0.3751  0.4041
   7023SM  H18S 9149   4.167   2.323  15.487  0.8280  1.8373  1.2040
   7023SM  H18T 9150   4.047   2.353  15.369  1.0297 -3.2343 -0.7918
   7023SM  H18U 9151   4.159   2.491  15.403 -1.5310  0.5164  0.0789
   7023SM   C1F 9152   4.325   1.928  15.839  0.4462  0.5690  0.1878
   7023SM    OF 9153   4.296   2.029  15.903 -0.0358  0.5153  0.7309
   7023SM   C2F 9154   4.225   1.882  15.729 -0.2000  0.2966 -0.6012
   7023SM   H2F 9155   4.125   1.871  15.776  0.5627  0.9193  1.2576
   7023SM   H2G 9156   4.250   1.779  15.695  0.4468  0.6106 -1.1168
   7023SM   C3F 9157   4.218   1.981  15.616 -0.6444 -0.1632  0.0928
   7023SM   H3F 9158   4.320   1.998  15.576 -0.5539 -2.0056 -0.5658
   7023SM   H3G 9159   4.171   2.068  15.665  0.7004 -0.2926  1.6846
   7023SM   C4F 9160   4.118   1.944  15.507  0.5019 -0.0058 -0.0396
   7023SM   H4F 9161   4.091   2.038  15.455 -1.5003 -0.7894 -0.4906
   7023SM   H4G 9162   4.025   1.907  15.554  0.4236 -1.4908 -1.2763
   7023SM   C5F 9163   4.175   1.835  15.412 -0.1697 -0.5490  0.1093
   7023SM   H5F 9164   4.194   1.742  15.469  3.1811 -0.6550 -0.9900
   7023SM   H5G 9165   4.276   1.854  15.370 -1.0003 -0.3154 -1.9167
   7023SM   C6F 9166   4.083   1.806  15.287  0.0466  0.3776 -0.1217
   7023SM   H6F 9167   4.060   1.897  15.228 -0.0607  0.6860  0.3917
   7023SM   H6G 9168   3.986   1.782  15.337  0.5284  0.2238  0.7626
   7023SM   C7F 9169   4.123   1.690  15.203  0.1287  0.3780  0.1478
   7023SM   H7F 9170   4.093   1.598  15.257  1.0360 -0.1363 -0.2045
   7023SM   H7G 9171   4.232   1.680  15.183 -0.0049 -0.7456 -0.1404
   7023SM   C8F 9172   4.053   1.701  15.067  0.9451  0.1096  0.0105
   7023SM   H8F 9173   4.080   1.800  15.025 -1.5801  0.5592 -0.7553
   7023SM   H8G 9174   3.943   1.712  15.078  0.8846  1.1592 -1.3518
   7023SM   C9F 9175   4.079   1.593  14.967 -0.0723  0.0513  0.7191
   7023SM   H9F 9176   4.037   1.495  14.997  0.1838 -0.2096  0.2406
   7023SM   H9G 9177   4.186   1.578  14.940 -0.8274 -0.6742 -2.1363
   7023SM  C10F 9178   4.027   1.623  14.826  0.4104 -1.3294  0.0022
   7023SM  H10F 9179   4.066   1.723  14.796 -2.1259  0.5995  2.5865
   7023SM  H10G 9180   3.919   1.646  14.821  0.6654 -0.2538 -1.0325
   7023SM  C11F 9181   4.054   1.515  14.720  0.1822 -0.0429 -0.4318
   7023SM  H11F 9182   3.980   1.435  14.742 -0.9699  0.7847 -1.2268
   7023SM  H11G 9183   4.157   1.478  14.739  0.4466 -0.2477 -2.1825
   7023SM  C12F 9184   4.020   1.555  14.577 -0.4501  0.6241  0.3184
   7023SM  H12F 9185   4.081   1.643  14.549  1.7255 -0.9600 -0.1430
   7023SM  H12G 9186   3.910   1.569  14.582 -1.1650 -3.3759 -0.7157
   7023SM  C13F 9187   4.051   1.444  14.471 -0.3000 -0.1822 -0.4586
   7023SM  H13F 9188   4.031   1.483  14.369 -0.5959  0.9836  0.0328
   7023SM  H13G 9189   3.986   1.354  14.483 -0.7771  0.1555 -0.5077
   7023SM  C14F 9190   4.197   1.394  14.469 -0.0882  0.2061  0.7881
   7023SM  H14F 9191   4.194   1.293  14.423  5.0885  0.5469 -0.9817
   7023SM  H14G 9192   4.239   1.385  14.572 -0.4935  1.7177  1.1071
   7023SM  C15F 9193   4.280   1.490  14.390  0.3132  0.4060 -0.4978
   7023SM  H15F 9194   4.254   1.590  14.431 -3.2019 -0.2651 -0.7797
   7023SM  H15G 9195   4.251   1.507  14.284  1.4250  1.2157 -0.6924
   7023SM  C16F 9196   4.435   1.472  14.394  0.3871  0.2999 -0.6448
   7023SM  H16F 9197   4.469   1.453  14.498  0.7790 -0.5187 -0.9154
   7023SM  H16G 9198   4.484   1.568  14.369  0.2281  0.8810  1.1213
   7023SM  C17F 9199   4.470   1.361  14.301  0.2056 -0.0221  0.8045
   7023SM  H17F 9200   4.451   1.390  14.195  0.0536  3.0991  1.5897
   7023SM  H17G 9201   4.402   1.276  14.319  0.0504 -0.1103 -0.1229
   7023SM  C18F 9202   4.611   1.311  14.316 -0.5719 -0.4671  0.5729
   7023SM  H18F 9203   4.653   1.304  14.419  1.3137 -0.5459 -0.1667
   7023SM  H18G 9204   4.678   1.377  14.256  0.3622 -3.9310 -2.5270
   7023SM  C19F 9205   4.627   1.177  14.243 -0.2364  0.8165  0.0781
   7023SM  H19F 9206   4.596   1.175  14.137  1.1966  1.7821 -0.3911
   7023SM  H19G 9207   4.564   1.101  14.294  0.3562 -0.1899 -0.6508
   7023SM  C20F 9208   4.766   1.112  14.237 -0.5719  0.0077 -0.7491
   7023SM  H20F 9209   4.762   1.023  14.171  4.1408 -0.5251 -0.7051
   7023SM  H20G 9210   4.791   1.079  14.340  0.9609  0.2981 -0.9968
   7023SM  C21F 9211   4.875   1.200  14.187 -0.5388  0.0799 -0.8447
   7023SM  H21F 9212   4.964   1.134  14.185  0.0911  0.4800  3.4752
   7023SM  H21G 9213   4.891   1.280  14.263  1.9650 -0.2204 -0.9684
   7023SM  C22F 9214   4.854   1.274  14.056 -0.3077  0.5697 -0.0177
   7023SM  H22F 9215   4.752   1.318  14.051 -1.0209 -0.8981  0.8754
   7023SM  H22G 9216   4.852   1.200  13.972  2.7976 -0.4885  0.6862
   7023SM  C23F 9217   4.952   1.385  14.038  0.2885 -0.1346 -0.2871
   7023SM  H23F 9218   4.959   1.415  13.931  1.7427  0.7591  0.0189
   7023SM  H23G 9219   5.047   1.331  14.062 -0.6416 -0.9344  1.8956
   7023SM  H23H 9220   4.934   1.466  14.111 -0.3121 -1.1911  0.7735
   7123SM     N 9221   4.880   7.240  16.199  0.4771  0.7763 -0.4375
   7123SM   C15 9222   5.026   7.243  16.234 -0.1178  0.1812  0.1335
   7123SM  H15A 9223   5.094   7.286  16.162  1.1995  0.5572  1.5482
   7123SM  H15B 9224   5.059   7.141  16.251 -0.0650  0.0853 -0.5185
   7123SM  H15C 9225   5.046   7.286  16.331  0.9027 -0.1931  0.1118
   7123SM   C14 9226   4.828   7.375  16.157 -0.6630 -0.1221 -0.3377
   7123SM  H14A 9227   4.722   7.369  16.139 -0.6062 -2.7639 -0.1903
   7123SM  H14B 9228   4.874   7.415  16.068  0.3302 -1.2765 -0.3813
   7123SM  H14C 9229   4.835   7.444  16.240 -3.3563 -0.2077  0.0440
   7123SM   C13 9230   4.865   7.158  16.077 -0.1835  0.0623 -0.0073
   7123SM  H13A 9231   4.928   7.204  16.003  1.0792 -0.3162  0.8093
   7123SM  H13B 9232   4.767   7.160  16.030 -0.6738 -0.9139  0.9482
   7123SM  H13C 9233   4.905   7.058  16.078  1.3519  0.6344  1.8411
   7123SM   C12 9234   4.792   7.174  16.306  0.1951 -0.0637  0.0103
   7123SM  H12A 9235   4.818   7.222  16.399  1.9086 -0.9087  0.0153
   7123SM  H12B 9236   4.819   7.070  16.319 -0.7003 -0.0366  2.5402
   7123SM   C11 9237   4.641   7.176  16.272 -0.2431 -0.4629  0.0911
   7123SM  H11A 9238   4.587   7.107  16.341 -0.6209 -0.5102 -0.2437
   7123SM  H11B 9239   4.613   7.132  16.173  0.2463  1.1945 -0.8373
   7123SM     P 9240   4.429   7.325  16.260 -0.2674 -0.2783 -0.1498
   7123SM   O13 9241   4.358   7.279  16.382 -0.2158  0.4277  0.2562
   7123SM   O14 9242   4.397   7.462  16.210  0.0670 -0.2177  0.2500
   7123SM   O11 9243   4.406   7.217  16.142 -0.0577 -0.7316 -0.4593
   7123SM   O12 9244   4.581   7.305  16.293 -0.0089  0.4402  0.6639
   7123SM   C1S 9245   4.300   7.241  16.048  0.4409 -0.6807  0.1911
   7123SM   H1S 9246   4.209   7.289  16.089 -0.8429 -2.1466 -0.7991
   7123SM   H1T 9247   4.258   7.140  16.025 -0.4034 -0.2246 -0.3374
   7123SM    NF 9248   4.213   7.335  15.842  0.0143 -0.1276 -0.1140
   7123SM   HNF 9249   4.207   7.269  15.768 -0.4802  1.6587 -1.7480
   7123SM   C2S 9250   4.337   7.324  15.923 -0.0797 -0.2631  0.1617
   7123SM   H2S 9251   4.370   7.425  15.955  1.1946 -0.6444  0.0758
   7123SM   C3S 9252   4.452   7.256  15.854 -0.0139  0.2987 -0.2694
   7123SM   H3S 9253   4.417   7.159  15.812 -0.4073  0.9376 -1.4617
   7123SM    O3 9254   4.571   7.222  15.932  0.0745  0.6605 -0.1023
   7123SM   HO3 9255   4.546   7.244  16.023 -1.4600 -0.1121 -0.3002
   7123SM   C4S 9256   4.494   7.343  15.743  0.2233  0.2827  0.3894
   7123SM   H4S 9257   4.432   7.325  15.654 -1.6554 -0.6420  1.8314
   7123SM   C5S 9258   4.597   7.435  15.741 -0.1264 -0.4338 -0.4587
   7123SM   H5S 9259   4.657   7.443  15.833 -1.7597 -0.5947  0.6594
   7123SM   C6S 9260   4.647   7.526  15.630 -0.1593 -0.0148  0.3276
   7123SM   H6S 9261   4.755   7.510  15.612 -0.1855 -0.4470  0.5408
   7123SM   H6T 9262   4.626   7.631  15.662  0.3452 -0.5567  2.6712
   7123SM   C7S 9263   4.578   7.504  15.491 -0.1727 -0.5421 -0.0925
   7123SM   H7S 9264   4.473   7.537  15.509  0.1716  0.5750 -0.0333
   7123SM   H7T 9265   4.573   7.397  15.462  2.1512 -0.5909 -0.4931
   7123SM   C8S 9266   4.636   7.607  15.394 -0.6385 -0.0303  0.9371
   7123SM   H8S 9267   4.743   7.583  15.374 -1.1351 -0.4648 -1.6156
   7123SM   H8T 9268   4.629   7.707  15.441 -0.6737  1.3825 -1.8377
   7123SM   C9S 9269   4.566   7.621  15.253 -0.1102 -0.5528 -0.3748
   7123SM   H9S 9270   4.604   7.707  15.195  2.7623 -1.6313 -0.2485
   7123SM   H9T 9271   4.457   7.635  15.272  0.0551  2.2924 -1.0350
   7123SM  C10S 9272   4.598   7.501  15.161 -0.1195 -0.2615 -0.4502
   7123SM  H10S 9273   4.569   7.408  15.213  0.5953 -0.6934 -0.8022
   7123SM  H10T 9274   4.706   7.495  15.136  0.2221  1.7029  0.3193
   7123SM  C11S 9275   4.527   7.523  15.031 -0.1526 -0.6621 -0.1812
   7123SM  H11S 9276   4.581   7.599  14.971 -0.2117 -1.2259 -0.9744
   7123SM  H11T 9277   4.420   7.547  15.050  0.0534 -0.9297  1.4686
   7123SM  C12S 9278   4.526   7.397  14.944 -0.5687  0.2975 -0.5117
   7123SM  H12S 9279   4.472   7.403  14.847  1.6985  1.2228 -1.7911
   7123SM  H12T 9280   4.484   7.312  15.002 -1.2224  0.2889 -0.9963
   7123SM  C13S 9281   4.671   7.368  14.896  0.2873  0.1621 -0.5738
   7123SM  H13S 9282   4.731   7.320  14.976 -1.3178  0.9058  1.1890
   7123SM  H13T 9283   4.707   7.469  14.866 -1.5286  1.5293  1.4687
   7123SM  C14S 9284   4.682   7.278  14.775 -0.0606  0.0363  0.3828
   7123SM  H14S 9285   4.784   7.282  14.733 -1.0031  0.1908 -2.0134
   7123SM  H14T 9286   4.615   7.323  14.699 -1.3611  2.2616  2.6620
   7123SM  C15S 9287   4.630   7.131  14.789 -0.5776 -0.9374  0.6994
   7123SM  H15S 9288   4.637   7.081  14.690  1.7728  0.7055 -0.0571
   7123SM  H15T 9289   4.527   7.136  14.832 -0.4437  0.0372  0.9250
   7123SM  C16S 9290   4.708   7.039  14.885 -0.1667  1.0767 -0.0746
   7123SM  H16S 9291   4.712   7.083  14.987 -2.1514 -0.8834  0.9268
   7123SM  H16T 9292   4.814   7.043  14.850  0.3198 -1.9513  0.7187
   7123SM  C17S 9293   4.658   6.896  14.881 -0.3482 -0.1842  0.1309
   7123SM  H17S 9294   4.554   6.896  14.920  0.2481 -0.1133  1.8005
   7123SM  H17T 9295   4.719   6.827  14.944  0.4926 -0.7567 -1.2433
   7123SM  C18S 9296   4.663   6.821  14.737 -0.7264  0.1330  0.6104
   7123SM  H18S 9297   4.766   6.823  14.696 -0.7502  0.7677  0.5648
   7123SM  H18T 9298   4.606   6.881  14.664  0.4033  2.1688  1.3079
   7123SM  H18U 9299   4.627   6.716  14.745 -0.4350  0.0786  1.3425
   7123SM   C1F 9300   4.122   7.430  15.861 -0.4701  0.1013  0.2027
   7123SM    OF 9301   4.131   7.514  15.945  0.4261 -0.4215  0.8483
   7123SM   C2F 9302   4.015   7.421  15.762 -0.0202  0.0823  0.0417
   7123SM   H2F 9303   3.956   7.330  15.786  0.6089 -0.0663  1.0793
   7123SM   H2G 9304   4.061   7.412  15.661 -0.0826  2.9603 -0.3478
   7123SM   C3F 9305   3.926   7.543  15.759  0.0895 -0.0214  0.5314
   7123SM   H3F 9306   3.994   7.626  15.731  2.7452 -2.6059 -1.2824
   7123SM   H3G 9307   3.884   7.565  15.860  1.3030  0.6624  0.9135
   7123SM   C4F 9308   3.802   7.523  15.668  0.4947  0.2757  0.2154
   7123SM   H4F 9309   3.739   7.611  15.693  2.2103  1.6687 -0.1774
   7123SM   H4G 9310   3.761   7.430  15.714  1.1990  0.4578  1.2368
   7123SM   C5F 9311   3.817   7.520  15.512  0.1335  0.4768  0.0276
   7123SM   H5F 9312   3.902   7.463  15.469 -1.3372 -0.8555 -1.2130
   7123SM   H5G 9313   3.828   7.624  15.473  0.1322  0.2566 -0.5778
   7123SM   C6F 9314   3.692   7.456  15.447  0.2203 -0.2480  0.1547
   7123SM   H6F 9315   3.601   7.501  15.491 -1.5666 -1.7195 -1.7986
   7123SM   H6G 9316   3.691   7.346  15.462  0.9512 -0.0965  1.4001
   7123SM   C7F 9317   3.689   7.495  15.300 -0.2650  1.2133 -0.1503
   7123SM   H7F 9318   3.782   7.453  15.256 -1.9496 -1.7340 -1.2125
   7123SM   H7G 9319   3.684   7.606  15.298  1.1231  1.3844  2.3560
   7123SM   C8F 9320   3.577   7.445  15.218 -0.3242  0.6502 -0.6373
   7123SM   H8F 9321   3.476   7.461  15.262 -0.5660 -0.7410 -0.6365
   7123SM   H8G 9322   3.587   7.335  15.210 -0.4731  0.6553 -0.9141
   7123SM   C9F 9323   3.581   7.492  15.072  0.4842  0.5243 -0.7185
   7123SM   H9F 9324   3.679   7.454  15.037  1.8462  2.6610  0.5286
   7123SM   H9G 9325   3.569   7.602  15.062 -2.6289  0.4679  1.0360
   7123SM  C10F 9326   3.462   7.427  15.005 -0.0200 -0.7708 -0.6551
   7123SM  H10F 9327   3.372   7.438  15.069 -0.5821  1.2702 -1.7275
   7123SM  H10G 9328   3.478   7.317  14.995  0.1145 -0.6793 -1.5761
   7123SM  C11F 9329   3.434   7.479  14.867  0.3404 -0.0390  0.4476
   7123SM  H11F 9330   3.471   7.584  14.862 -1.5036  0.6041 -0.9648
   7123SM  H11G 9331   3.328   7.473  14.832  0.6617 -0.8924 -0.4171
   7123SM  C12F 9332   3.516   7.410  14.746 -0.3630 -0.3400 -0.1794
   7123SM  H12F 9333   3.497   7.301  14.738 -2.1597 -0.0581 -0.1075
   7123SM  H12G 9334   3.618   7.424  14.788 -0.7827 -1.9200  1.5403
   7123SM  C13F 9335   3.501   7.488  14.611  0.1392 -0.2526  0.0328
   7123SM  H13F 9336   3.513   7.598  14.622  0.8998 -0.0708 -2.0403
   7123SM  H13G 9337   3.396   7.477  14.578 -0.0284 -3.1256  1.2293
   7123SM  C14F 9338   3.600   7.453  14.501 -0.0847 -0.3475  0.7224
   7123SM  H14F 9339   3.603   7.531  14.422 -2.4132 -0.8108  0.1060
   7123SM  H14G 9340   3.571   7.361  14.447  1.0428 -1.4968  1.9935
   7123SM  C15F 9341   3.756   7.432  14.529  0.2050 -0.6062 -0.1688
   7123SM  H15F 9342   3.768   7.363  14.615  0.3178 -0.1368  0.1947
   7123SM  H15G 9343   3.804   7.529  14.553  0.7078 -1.2092  1.3308
   7123SM  C16F 9344   3.839   7.373  14.414  0.6193  0.0512  0.3123
   7123SM  H16F 9345   3.947   7.375  14.442  0.8732 -1.2238 -0.5019
   7123SM  H16G 9346   3.843   7.432  14.320  1.4109 -0.7491 -0.1709
   7123SM  C17F 9347   3.814   7.230  14.389 -0.3317 -0.0833  0.3095
   7123SM  H17F 9348   3.705   7.217  14.372 -0.2522 -0.1333 -0.1850
   7123SM  H17G 9349   3.843   7.162  14.471 -0.7638 -2.1245 -1.1573
   7123SM  C18F 9350   3.892   7.178  14.271 -0.0971 -0.0844 -0.0880
   7123SM  H18F 9351   3.991   7.169  14.321 -0.2318 -1.6383 -0.0658
   7123SM  H18G 9352   3.897   7.250  14.186 -0.8887  3.6433  2.7926
   7123SM  C19F 9353   3.859   7.032  14.222 -0.3860  0.0098  0.3363
   7123SM  H19F 9354   3.750   7.026  14.201 -0.6245 -0.7664  1.6905
   7123SM  H19G 9355   3.887   6.953  14.294  2.2864  1.4737  1.0623
   7123SM  C20F 9356   3.922   6.991  14.090  0.0662  0.5623 -0.7500
   7123SM  H20F 9357   3.890   7.060  14.009 -1.6260  0.9093  0.1606
   7123SM  H20G 9358   3.885   6.890  14.063  1.6185 -0.0606 -0.6148
   7123SM  C21F 9359   4.071   6.969  14.090 -0.2548 -0.7150 -0.3881
   7123SM  H21F 9360   4.095   6.891  14.166 -0.0256  0.6796  1.0267
   7123SM  H21G 9361   4.113   7.062  14.133 -0.2761 -0.8129 -0.1538
   7123SM  C22F 9362   4.125   6.941  13.950 -0.5025  0.4349  0.3460
   7123SM  H22F 9363   4.101   7.025  13.881 -0.1609  0.9722  0.8758
   7123SM  H22G 9364   4.088   6.844  13.911  1.8833 -1.2039  1.8764
   7123SM  C23F 9365   4.280   6.919  13.959 -0.0437 -0.8417 -0.3273
   7123SM  H23F 9366   4.308   6.820  13.999 -0.3771 -0.1665  1.6852
   7123SM  H23G 9367   4.329   6.999  14.019  3.0079 -2.3902 -0.5624
   7123SM  H23H 9368   4.315   6.926  13.854 -0.1768  1.7651 -0.2608
   7223SM     N 9369   6.081   3.191  16.438  0.2360  0.2635  0.0832
   7223SM   C15 9370   6.092   3.343  16.435 -0.7983 -0.1786  0.2973
   7223SM  H15A 9371   6.178   3.384  16.486  0.7042 -0.4186 -1.9342
   7223SM  H15B 9372   5.997   3.368  16.479 -0.1699 -1.0651  2.2913
   7223SM  H15C 9373   6.100   3.374  16.332  1.2847  1.2473  0.8044
   7223SM   C14 9374   6.085   3.155  16.581  0.5004  0.2487 -0.6052
   7223SM  H14A 9375   6.001   3.198  16.634 -0.0319 -0.7685 -0.6067
   7223SM  H14B 9376   6.173   3.185  16.636 -0.6273 -1.3833  2.3118
   7223SM  H14C 9377   6.085   3.048  16.590  1.9985  0.2556 -0.3683
   7223SM   C13 9378   5.955   3.157  16.375  0.5313 -0.6339  0.2808
   7223SM  H13A 9379   5.951   3.212  16.282 -0.8491 -1.7720 -0.3690
   7223SM  H13B 9380   5.877   3.204  16.434  1.3934 -1.5850  2.2915
   7223SM  H13C 9381   5.943   3.050  16.365  2.4256 -0.9999  1.4040
   7223SM   C12 9382   6.203   3.128  16.369 -0.2235  0.3140  0.2765
   7223SM  H12A 9383   6.288   3.144  16.434  0.6214 -0.4538 -0.6164
   7223SM  H12B 9384   6.225   3.190  16.284 -1.5782 -1.7640 -1.6839
   7223SM   C11 9385   6.189   2.978  16.325 -0.0679  0.4670 -0.5251
   7223SM  H11A 9386   6.296   2.955  16.304  0.3024  0.1004  1.4930
   7223SM  H11B 9387   6.121   2.969  16.238 -1.8695 -1.1947  0.9677
   7223SM     P 9388   6.244   2.794  16.505 -0.2920  0.0938 -0.2482
   7223SM   O13 9389   6.337   2.868  16.598 -0.6145  0.2429 -0.4352
   7223SM   O14 9390   6.156   2.696  16.576  0.2646 -0.7502  0.4588
   7223SM   O11 9391   6.324   2.712  16.396  0.2849 -0.0679  0.3713
   7223SM   O12 9392   6.142   2.889  16.423  0.4096 -0.3420  0.4591
   7223SM   C1S 9393   6.264   2.602  16.324 -0.3218  0.6024 -0.2666
   7223SM   H1S 9394   6.177   2.551  16.372 -0.0263 -1.5495 -1.8331
   7223SM   H1T 9395   6.334   2.515  16.321  1.2456  1.8133  0.0302
   7223SM    NF 9396   6.149   2.542  16.116 -0.0434  0.0469 -0.2493
   7223SM   HNF 9397   6.182   2.488  16.039 -2.6836 -0.3962 -1.1634
   7223SM   C2S 9398   6.237   2.646  16.177  0.6690  0.2751 -0.0191
   7223SM   H2S 9399   6.178   2.740  16.179  1.5704  0.8629 -0.3886
   7223SM   C3S 9400   6.372   2.663  16.103 -0.1559 -0.1811  0.0394
   7223SM   H3S 9401   6.422   2.564  16.110 -1.0943 -0.5927  1.3446
   7223SM    O3 9402   6.468   2.749  16.167  0.3352 -0.5956  0.4662
   7223SM   HO3 9403   6.434   2.769  16.255  0.1025  1.0074  0.0553
   7223SM   C4S 9404   6.346   2.707  15.962 -0.0774  0.0583 -0.5980
   7223SM   H4S 9405   6.323   2.624  15.894 -4.3725  2.0021 -1.8703
   7223SM   C5S 9406   6.356   2.827  15.902  1.1201  0.1673 -0.0803
   7223SM   H5S 9407   6.370   2.917  15.963 -0.8133  0.6574 -0.2923
   7223SM   C6S 9408   6.324   2.849  15.755 -1.1214  0.1139  0.3400
   7223SM   H6S 9409   6.416   2.844  15.694  0.1671  0.9821  2.1316
   7223SM   H6T 9410   6.306   2.957  15.737  0.1400 -0.0262 -2.2242
   7223SM   C7S 9411   6.206   2.770  15.689  0.0550 -0.4508 -0.5563
   7223SM   H7S 9412   6.123   2.761  15.763  0.3575  0.7612 -0.0396
   7223SM   H7T 9413   6.240   2.668  15.660 -0.3104 -0.7952  0.1833
   7223SM   C8S 9414   6.150   2.832  15.559  0.0345  0.4383  0.4184
   7223SM   H8S 9415   6.138   2.940  15.582  0.3020  0.9360 -1.5929
   7223SM   H8T 9416   6.056   2.780  15.534  0.9541 -1.4216  0.6385
   7223SM   C9S 9417   6.238   2.808  15.441  0.4497 -0.3651  0.2160
   7223SM   H9S 9418   6.235   2.700  15.413 -0.4656 -0.1255 -0.6489
   7223SM   H9T 9419   6.338   2.844  15.475 -0.0593  0.5591  0.7661
   7223SM  C10S 9420   6.211   2.893  15.315 -0.6455 -0.3932 -0.1686
   7223SM  H10S 9421   6.208   2.999  15.347  2.2246  0.1770 -1.5192
   7223SM  H10T 9422   6.112   2.857  15.278 -1.9184  0.8954  1.7803
   7223SM  C11S 9423   6.321   2.876  15.205  0.0255  0.5017  0.7109
   7223SM  H11S 9424   6.344   2.767  15.214  0.5106  0.5438  0.0460
   7223SM  H11T 9425   6.416   2.928  15.225  0.1043  0.4262  0.5268
   7223SM  C12S 9426   6.259   2.904  15.066  0.5249 -0.9166 -0.3834
   7223SM  H12S 9427   6.287   3.007  15.036 -0.3115 -0.1906  1.2212
   7223SM  H12T 9428   6.148   2.900  15.080  0.7661  0.1272  2.6080
   7223SM  C13S 9429   6.298   2.818  14.953  0.0559 -0.3015 -0.4243
   7223SM  H13S 9430   6.259   2.715  14.973 -1.8493  0.4049 -0.2837
   7223SM  H13T 9431   6.409   2.815  14.952  0.0817  0.4755 -0.7615
   7223SM  C14S 9432   6.244   2.865  14.819 -0.0996 -0.2683  0.5286
   7223SM  H14S 9433   6.278   2.970  14.811 -2.0824  0.3718  0.0061
   7223SM  H14T 9434   6.133   2.860  14.818 -0.1013 -0.8158  1.8279
   7223SM  C15S 9435   6.301   2.771  14.705 -0.5814  0.1929  0.2340
   7223SM  H15S 9436   6.264   2.667  14.719  0.2472 -0.0426  0.7723
   7223SM  H15T 9437   6.412   2.774  14.712 -0.4643 -2.8308  1.0687
   7223SM  C16S 9438   6.241   2.816  14.571  0.1854  1.3044  0.5482
   7223SM  H16S 9439   6.132   2.806  14.588  0.1892  0.3663  0.0639
   7223SM  H16T 9440   6.276   2.745  14.493  2.9495  1.3542  1.6433
   7223SM  C17S 9441   6.265   2.959  14.521 -0.3677 -0.2912 -0.3988
   7223SM  H17S 9442   6.374   2.969  14.505 -0.3952  0.1298 -0.3394
   7223SM  H17T 9443   6.233   3.040  14.590  0.1695  0.2318 -0.7560
   7223SM  C18S 9444   6.207   2.985  14.388  0.3618  0.6840 -0.1546
   7223SM  H18S 9445   6.231   2.902  14.319 -1.4604  0.1247 -0.1957
   7223SM  H18T 9446   6.230   3.087  14.352  0.3795  1.0082  0.7446
   7223SM  H18U 9447   6.097   2.985  14.408  0.4361 -0.1396  0.3137
   7223SM   C1F 9448   6.024   2.530  16.150  0.2329  0.0721  0.1935
   7223SM    OF 9449   5.968   2.599  16.235 -0.3531 -0.0340  0.0201
   7223SM   C2F 9450   5.936   2.433  16.070  0.3176  0.4193 -0.8666
   7223SM   H2F 9451   5.863   2.378  16.133  0.8143 -0.3881 -0.9763
   7223SM   H2G 9452   6.001   2.356  16.023 -1.0759 -1.3489 -0.0326
   7223SM   C3F 9453   5.854   2.503  15.958 -1.0598 -0.3432 -0.2286
   7223SM   H3F 9454   5.773   2.568  15.999 -0.7475  0.5880 -1.0461
   7223SM   H3G 9455   5.793   2.433  15.898 -1.4024  2.9956 -4.2335
   7223SM   C4F 9456   5.944   2.579  15.858  0.2386  0.2935  0.2609
   7223SM   H4F 9457   6.024   2.507  15.829 -0.6706 -0.0090 -1.6361
   7223SM   H4G 9458   5.977   2.671  15.909 -0.1668  0.7674 -0.3247
   7223SM   C5F 9459   5.871   2.601  15.729  0.4359 -0.4287  0.7741
   7223SM   H5F 9460   5.835   2.506  15.685 -2.6758  0.0878  1.9778
   7223SM   H5G 9461   5.946   2.638  15.655  0.2285 -1.3027  0.1173
   7223SM   C6F 9462   5.750   2.698  15.730 -0.3739 -0.9359  0.0602
   7223SM   H6F 9463   5.785   2.796  15.771 -1.7203  0.4212 -1.8924
   7223SM   H6G 9464   5.674   2.663  15.803 -0.3394 -0.0753  0.5299
   7223SM   C7F 9465   5.674   2.730  15.604  0.2174 -0.0075 -0.2808
   7223SM   H7F 9466   5.586   2.796  15.623 -1.1906 -2.2914  1.7451
   7223SM   H7G 9467   5.627   2.635  15.569 -1.1465  0.8409 -0.8499
   7223SM   C8F 9468   5.760   2.790  15.482  0.1700  1.0323 -0.2384
   7223SM   H8F 9469   5.831   2.714  15.445  1.1052  0.1272  3.1167
   7223SM   H8G 9470   5.819   2.872  15.528 -0.3612  1.7215 -0.7466
   7223SM   C9F 9471   5.669   2.834  15.372  0.1195 -0.8029 -0.4124
   7223SM   H9F 9472   5.727   2.903  15.306 -0.0449  0.8814  1.1285
   7223SM   H9G 9473   5.580   2.892  15.404 -0.5508 -1.5154 -0.9662
   7223SM  C10F 9474   5.610   2.732  15.278  0.1668  0.5688  0.4124
   7223SM  H10F 9475   5.530   2.675  15.329 -1.2102  1.0479 -1.1390
   7223SM  H10G 9476   5.697   2.669  15.249  0.4399  1.1512 -0.0694
   7223SM  C11F 9477   5.538   2.806  15.162 -0.1090 -0.7852 -0.2640
   7223SM  H11F 9478   5.608   2.846  15.086 -0.5758 -0.6013 -0.6011
   7223SM  H11G 9479   5.483   2.892  15.207  1.7141 -0.2867  1.1261
   7223SM  C12F 9480   5.420   2.725  15.097  0.0796  0.3567  0.3148
   7223SM  H12F 9481   5.345   2.690  15.171  1.2993 -1.3716  0.8109
   7223SM  H12G 9482   5.467   2.635  15.052 -2.4693  0.0391 -1.9942
   7223SM  C13F 9483   5.346   2.808  14.998  0.1513 -0.8525  0.4963
   7223SM  H13F 9484   5.306   2.899  15.048  0.2189 -1.0311  0.8789
   7223SM  H13G 9485   5.264   2.755  14.945  0.0556 -0.7415  0.5340
   7223SM  C14F 9486   5.430   2.871  14.889  0.0723 -0.2119  1.0128
   7223SM  H14F 9487   5.485   2.785  14.845 -1.2067 -1.6101  2.0491
   7223SM  H14G 9488   5.511   2.944  14.910  0.4835  0.1405 -1.5681
   7223SM  C15F 9489   5.340   2.947  14.785  0.1899 -0.0330 -0.5393
   7223SM  H15F 9490   5.395   3.039  14.757 -0.8548  1.9198  3.2042
   7223SM  H15G 9491   5.253   2.983  14.844 -0.1230 -0.6548 -0.6141
   7223SM  C16F 9492   5.303   2.862  14.661 -0.7788 -0.5940  0.4652
   7223SM  H16F 9493   5.267   2.762  14.695  0.5547 -0.8260  1.2710
   7223SM  H16G 9494   5.395   2.847  14.601  0.0503  0.4904  1.4167
   7223SM  C17F 9495   5.199   2.923  14.569 -0.0954 -0.1433  0.2093
   7223SM  H17F 9496   5.245   3.018  14.534 -1.2155  0.4642  0.3126
   7223SM  H17G 9497   5.109   2.940  14.633 -0.6121 -1.4436 -0.1408
   7223SM  C18F 9498   5.165   2.835  14.444  0.0291 -0.3160  0.2831
   7223SM  H18F 9499   5.064   2.864  14.409 -1.8994 -3.6892  2.4250
   7223SM  H18G 9500   5.161   2.728  14.476 -1.3452  0.8620  4.7715
   7223SM  C19F 9501   5.264   2.865  14.323  1.0530  0.8111  0.5526
   7223SM  H19F 9502   5.358   2.819  14.361  0.8737  0.5804  0.7115
   7223SM  H19G 9503   5.275   2.976  14.314  0.6511  0.8007 -0.1415
   7223SM  C20F 9504   5.242   2.786  14.193 -0.2518 -0.7396  0.5109
   7223SM  H20F 9505   5.144   2.823  14.155  0.0505 -0.6596 -0.2155
   7223SM  H20G 9506   5.224   2.677  14.204 -1.4062 -1.2358 -3.9441
   7223SM  C21F 9507   5.348   2.822  14.097 -0.6437 -0.3858  0.1474
   7223SM  H21F 9508   5.444   2.812  14.152 -1.4664 -1.8336  1.4003
   7223SM  H21G 9509   5.326   2.929  14.075 -1.5689 -0.9975 -2.1567
   7223SM  C22F 9510   5.334   2.742  13.966 -0.5429  0.4451 -0.9877
   7223SM  H22F 9511   5.233   2.754  13.921 -0.2247  0.4107 -1.7287
   7223SM  H22G 9512   5.352   2.639  14.002  0.5412  0.8714 -0.2571
   7223SM  C23F 9513   5.442   2.774  13.865  0.2385 -0.1941 -0.5109
   7223SM  H23F 9514   5.545   2.781  13.906  1.5955 -1.2099 -3.4851
   7223SM  H23G 9515   5.424   2.876  13.824  1.2782  1.0379  1.9034
   7223SM  H23H 9516   5.433   2.703  13.780 -1.7085 -1.2953  0.5602
   7323SM     N 9517   4.649   1.444  16.822 -0.3244 -0.1696 -0.0533
   7323SM   C15 9518   4.522   1.511  16.775  0.4876  0.6968 -0.3701
   7323SM  H15A 9519   4.529   1.619  16.776  0.0461  0.7384  1.2142
   7323SM  H15B 9520   4.440   1.503  16.845  0.2790  0.6344 -0.6233
   7323SM  H15C 9521   4.482   1.471  16.683 -0.4813  0.6705  0.0471
   7323SM   C14 9522   4.705   1.508  16.938 -0.2506  0.0799  0.0470
   7323SM  H14A 9523   4.622   1.535  17.002 -1.6780 -1.1899 -1.1758
   7323SM  H14B 9524   4.754   1.600  16.911  0.5917  0.0307  1.3123
   7323SM  H14C 9525   4.770   1.442  16.995  0.0619  1.1174  0.9173
   7323SM   C13 9526   4.625   1.304  16.854  0.1423 -0.2401 -0.1942
   7323SM  H13A 9527   4.717   1.248  16.868 -0.7630 -2.1862 -1.5572
   7323SM  H13B 9528   4.573   1.263  16.769  1.9774 -1.0887 -0.9649
   7323SM  H13C 9529   4.566   1.291  16.944  1.0430  1.6196  0.7154
   7323SM   C12 9530   4.747   1.446  16.707 -0.1945  0.0600  0.2069
   7323SM  H12A 9531   4.841   1.404  16.739  1.0929  1.3907 -1.5995
   7323SM  H12B 9532   4.766   1.549  16.680 -3.0883  0.1360 -2.0597
   7323SM   C11 9533   4.703   1.382  16.575  1.0168  0.0841 -0.0080
   7323SM  H11A 9534   4.678   1.280  16.610  4.2634 -0.7662  0.1058
   7323SM  H11B 9535   4.787   1.361  16.506  1.3586 -0.9218  0.6920
   7323SM     P 9536   4.613   1.578  16.428 -0.4570  0.3537  0.3984
   7323SM   O13 9537   4.480   1.644  16.419  0.3260 -0.1005  0.5755
   7323SM   O14 9538   4.710   1.658  16.501  0.1591 -0.1688  0.6581
   7323SM   O11 9539   4.672   1.542  16.284 -0.1779  0.0756 -0.4037
   7323SM   O12 9540   4.585   1.442  16.506  0.1081  0.1738 -0.0367
   7323SM   C1S 9541   4.672   1.411  16.227 -0.1937 -0.5440  0.3970
   7323SM   H1S 9542   4.565   1.383  16.217 -0.9536  1.5042  2.0642
   7323SM   H1T 9543   4.717   1.337  16.298 -1.7858 -0.7840  1.2006
   7323SM    NF 9544   4.709   1.288  16.008  0.9134  0.5244 -0.6609
   7323SM   HNF 9545   4.768   1.208  16.011  0.2639 -0.1108 -3.0484
   7323SM   C2S 9546   4.744   1.413  16.088 -0.5978 -0.2762 -0.2530
   7323SM   H2S 9547   4.700   1.498  16.031  0.2185  0.4047  0.1069
   7323SM   C3S 9548   4.894   1.439  16.105  0.3541  0.2557  0.2262
   7323SM   H3S 9549   4.943   1.344  16.138 -0.4750 -0.4355 -0.4738
   7323SM    O3 9550   4.922   1.552  16.188 -0.2366  0.4235 -0.1081
   7323SM   HO3 9551   4.832   1.566  16.219 -0.3397  1.7267 -0.9303
   7323SM   C4S 9552   4.957   1.466  15.964 -0.0053 -0.0246  0.1578
   7323SM   H4S 9553   4.949   1.571  15.934  2.0336 -0.3995 -1.9993
   7323SM   C5S 9554   5.022   1.369  15.895  0.3454 -0.5865  0.6418
   7323SM   H5S 9555   5.040   1.267  15.932  0.8259 -0.6737  0.1776
   7323SM   C6S 9556   5.090   1.396  15.764  0.1896  1.0088  0.0254
   7323SM   H6S 9557   5.067   1.311  15.696 -0.1048  2.3298 -1.5945
   7323SM   H6T 9558   5.200   1.402  15.775  0.0912  3.9600  0.2421
   7323SM   C7S 9559   5.053   1.529  15.693 -0.4263 -1.0066 -0.1088
   7323SM   H7S 9560   5.055   1.621  15.755 -0.8866  0.0734 -1.6221
   7323SM   H7T 9561   4.947   1.520  15.660 -0.5369 -1.7181  0.4016
   7323SM   C8S 9562   5.134   1.565  15.570  0.2848  0.1995 -0.3010
   7323SM   H8S 9563   5.242   1.564  15.596  0.5538 -1.5473 -1.3530
   7323SM   H8T 9564   5.107   1.668  15.538 -0.7938  0.4402  1.2318
   7323SM   C9S 9565   5.108   1.466  15.451 -0.0493  0.3777 -0.3210
   7323SM   H9S 9566   5.002   1.437  15.461 -0.0525  0.8244  1.2695
   7323SM   H9T 9567   5.170   1.376  15.470 -1.1685 -0.1099  1.1431
   7323SM  C10S 9568   5.134   1.536  15.316  0.3975  0.2716 -0.1610
   7323SM  H10S 9569   5.239   1.572  15.320  0.2451  0.6824  0.1746
   7323SM  H10T 9570   5.070   1.626  15.306  0.6396  0.4512 -0.0886
   7323SM  C11S 9571   5.125   1.446  15.193 -0.4997  0.7693 -0.3210
   7323SM  H11S 9572   5.022   1.433  15.155 -1.0264  0.6765  1.0871
   7323SM  H11T 9573   5.164   1.345  15.219 -1.1790  0.4087 -0.6676
   7323SM  C12S 9574   5.213   1.511  15.083  0.1782 -0.8398 -0.5553
   7323SM  H12S 9575   5.301   1.550  15.139 -0.9904 -0.8840  1.4262
   7323SM  H12T 9576   5.155   1.597  15.043  0.4326  0.1510  1.1124
   7323SM  C13S 9577   5.247   1.418  14.966  0.7981  0.0555 -0.3028
   7323SM  H13S 9578   5.155   1.395  14.909 -0.0536 -1.9649  1.7653
   7323SM  H13T 9579   5.271   1.320  15.011  0.1697 -0.9261 -2.0170
   7323SM  C14S 9580   5.361   1.464  14.878 -0.1799 -0.6496 -0.4027
   7323SM  H14S 9581   5.456   1.479  14.934 -0.6582 -0.8608  0.4882
   7323SM  H14T 9582   5.326   1.567  14.853  0.0210  0.1945  2.4251
   7323SM  C15S 9583   5.382   1.375  14.753  0.2976 -0.3662 -0.1977
   7323SM  H15S 9584   5.282   1.332  14.732 -0.1614  0.7235 -0.3197
   7323SM  H15T 9585   5.459   1.297  14.770  0.4964  0.2782  2.2463
   7323SM  C16S 9586   5.414   1.449  14.626 -0.1326  0.0516 -0.4858
   7323SM  H16S 9587   5.402   1.558  14.644 -0.1156  0.1737 -1.1790
   7323SM  H16T 9588   5.348   1.412  14.545 -0.0869 -0.2001 -0.4079
   7323SM  C17S 9589   5.559   1.447  14.575 -0.1050  0.5377  0.8251
   7323SM  H17S 9590   5.567   1.486  14.471 -0.0052  0.2829  0.7343
   7323SM  H17T 9591   5.595   1.342  14.575  0.7215  0.7840 -1.1105
   7323SM  C18S 9592   5.655   1.517  14.672  0.5756 -0.2455 -0.6753
   7323SM  H18S 9593   5.758   1.501  14.632  1.3471 -1.4073  1.6085
   7323SM  H18T 9594   5.637   1.477  14.774 -0.3077  1.6757 -0.0235
   7323SM  H18U 9595   5.632   1.626  14.676 -0.2164 -0.4405  0.8520
   7323SM   C1F 9596   4.589   1.279  15.946 -0.9569  1.1213 -0.3039
   7323SM    OF 9597   4.505   1.363  15.961 -0.2735 -0.0872 -0.4856
   7323SM   C2F 9598   4.563   1.162  15.858  0.5478  0.3256 -0.1937
   7323SM   H2F 9599   4.535   1.074  15.921  0.4765  0.1806 -0.4254
   7323SM   H2G 9600   4.660   1.140  15.808  1.0250  0.7701  0.5238
   7323SM   C3F 9601   4.462   1.173  15.744  0.3244  0.2081 -0.9058
   7323SM   H3F 9602   4.371   1.205  15.800  0.2419 -0.6872 -0.4989
   7323SM   H3G 9603   4.450   1.079  15.686  0.5645 -0.3545 -0.0537
   7323SM   C4F 9604   4.498   1.283  15.647  0.2686 -0.8236 -0.1008
   7323SM   H4F 9605   4.608   1.281  15.633  0.2241  0.9590 -0.9490
   7323SM   H4G 9606   4.476   1.374  15.706 -0.8105 -2.1633  1.6823
   7323SM   C5F 9607   4.427   1.268  15.510 -0.6746  0.6101 -0.8307
   7323SM   H5F 9608   4.318   1.250  15.524 -0.5899 -0.2328 -1.2441
   7323SM   H5G 9609   4.480   1.186  15.457 -0.9372  0.4579 -0.8566
   7323SM   C6F 9610   4.449   1.394  15.422  0.4814 -0.3273  0.0749
   7323SM   H6F 9611   4.557   1.398  15.395  0.4949  1.0235  0.2355
   7323SM   H6G 9612   4.414   1.480  15.483 -2.3038 -0.0213 -1.7697
   7323SM   C7F 9613   4.362   1.391  15.293  0.3745  0.4816  0.9624
   7323SM   H7F 9614   4.348   1.498  15.264 -1.5786  0.0233  0.0664
   7323SM   H7G 9615   4.261   1.362  15.328  1.1728 -3.8843  0.1790
   7323SM   C8F 9616   4.421   1.296  15.189  0.2358 -0.3929  0.0799
   7323SM   H8F 9617   4.390   1.192  15.211  0.7316 -0.9160 -1.6084
   7323SM   H8G 9618   4.532   1.303  15.187  0.2562  0.5135  1.7383
   7323SM   C9F 9619   4.366   1.318  15.051  0.0953 -0.1489 -0.4658
   7323SM   H9F 9620   4.382   1.424  15.024 -0.2327 -0.3108 -1.3261
   7323SM   H9G 9621   4.255   1.314  15.059  0.0189  2.0594  0.1206
   7323SM  C10F 9622   4.427   1.222  14.950 -0.6275  0.4829  0.5293
   7323SM  H10F 9623   4.420   1.116  14.986  2.0017  0.2574  0.6364
   7323SM  H10G 9624   4.537   1.234  14.962 -0.5406  2.1929 -1.5462
   7323SM  C11F 9625   4.398   1.260  14.806 -0.0211 -0.4711  0.4956
   7323SM  H11F 9626   4.390   1.371  14.800 -4.4558 -0.5596  1.5270
   7323SM  H11G 9627   4.301   1.211  14.786  0.4510 -0.9433 -0.7141
   7323SM  C12F 9628   4.506   1.220  14.703  0.4941 -0.8413  0.5183
   7323SM  H12F 9629   4.604   1.266  14.726 -0.1623  0.4017  0.9175
   7323SM  H12G 9630   4.468   1.261  14.607  0.0421 -0.0237  1.0422
   7323SM  C13F 9631   4.499   1.076  14.672  0.1521  0.8503  0.5659
   7323SM  H13F 9632   4.470   1.015  14.761  0.2193  0.3899  0.2786
   7323SM  H13G 9633   4.595   1.043  14.627  0.9821  0.2192  2.6574
   7323SM  C14F 9634   4.386   1.046  14.577 -0.0736  0.1861  0.4617
   7323SM  H14F 9635   4.397   1.108  14.486 -0.1206 -1.1765 -0.5027
   7323SM  H14G 9636   4.287   1.069  14.620  0.1755  1.9858  0.1253
   7323SM  C15F 9637   4.408   0.903  14.524 -0.2794 -0.4058 -0.1244
   7323SM  H15F 9638   4.431   0.833  14.608 -1.2089 -0.6842 -0.0884
   7323SM  H15G 9639   4.502   0.904  14.465  1.3093 -1.5102  2.2061
   7323SM  C16F 9640   4.285   0.855  14.449 -0.0311  0.3898  0.0133
   7323SM  H16F 9641   4.260   0.918  14.361  0.7006  2.2821  1.1037
   7323SM  H16G 9642   4.201   0.862  14.521  0.2344 -0.8238  0.4679
   7323SM  C17F 9643   4.318   0.705  14.414 -0.1152 -0.1688  0.1466
   7323SM  H17F 9644   4.226   0.643  14.414 -0.1162 -0.1696  0.6422
   7323SM  H17G 9645   4.393   0.680  14.492  2.9554  1.1720 -2.1679
   7323SM  C18F 9646   4.385   0.703  14.277 -0.0408 -0.1467 -0.0378
   7323SM  H18F 9647   4.471   0.773  14.269 -0.3839  0.4913  1.4929
   7323SM  H18G 9648   4.311   0.730  14.198  0.0014  3.2701  0.9349
   7323SM  C19F 9649   4.444   0.561  14.269 -0.2333 -0.3910  0.0193
   7323SM  H19F 9650   4.368   0.491  14.310  0.5483  0.7292  3.7716
   7323SM  H19G 9651   4.533   0.560  14.335  1.0919 -1.9099 -1.6615
   7323SM  C20F 9652   4.491   0.523  14.128  0.9431 -0.0154  0.1276
   7323SM  H20F 9653   4.568   0.594  14.093  2.7487 -2.1392 -0.4410
   7323SM  H20G 9654   4.403   0.520  14.061  2.1305  2.9149 -1.7646
   7323SM  C21F 9655   4.557   0.382  14.125 -0.1859 -0.1575 -0.5319
   7323SM  H21F 9656   4.468   0.317  14.136 -0.7872  0.5704 -1.0187
   7323SM  H21G 9657   4.624   0.367  14.213 -0.4535 -1.8846 -0.5865
   7323SM  C22F 9658   4.629   0.352  13.992  0.3739  0.4842 -0.0586
   7323SM  H22F 9659   4.729   0.399  13.981  0.1976  0.9067  0.1484
   7323SM  H22G 9660   4.571   0.385  13.903 -1.2721 -3.5885 -0.7224
   7323SM  C23F 9661   4.640   0.195  13.964 -0.0523 -0.6127 -0.2263
   7323SM  H23F 9662   4.535   0.163  13.949  0.4429 -2.0235 -0.8282
   7323SM  H23G 9663   4.686   0.150  14.055 -1.9966  1.1859  1.7901
   7323SM  H23H 9664   4.701   0.184  13.872 -0.6728 -1.1086 -0.5872
   7423SM     N 9665   0.400   4.725  16.949  0.4350  0.1081 -0.1076
   7423SM   C15 9666   0.257   4.777  16.931 -0.2527 -0.2297 -1.3065
   7423SM  H15A 9667   0.229   4.764  16.827  1.0884  0.5718 -1.7896
   7423SM  H15B 9668   0.246   4.882  16.952 -0.4663 -0.3131 -0.9865
   7423SM  H15C 9669   0.189   4.729  17.000 -0.1846 -0.7201 -1.5785
   7423SM   C14 9670   0.493   4.801  16.872 -0.2738  0.3760  0.0346
   7423SM  H14A 9671   0.487   4.908  16.887 -1.1152  0.3622 -0.2024
   7423SM  H14B 9672   0.489   4.785  16.766 -1.2947  1.4705 -0.1057
   7423SM  H14C 9673   0.592   4.773  16.905 -0.3012 -0.8455 -0.8367
   7423SM   C13 9674   0.443   4.738  17.094  0.1916  0.5291  1.1788
   7423SM  H13A 9675   0.436   4.837  17.135  1.3482  0.4202  1.6548
   7423SM  H13B 9676   0.545   4.707  17.107 -0.1381 -1.2604 -0.0771
   7423SM  H13C 9677   0.385   4.667  17.151 -1.8533 -0.1079 -1.4777
   7423SM   C12 9678   0.401   4.581  16.897 -1.1478  0.2555 -0.6133
   7423SM  H12A 9679   0.345   4.529  16.973  0.3605 -0.9508 -0.2827
   7423SM  H12B 9680   0.506   4.558  16.907 -0.9648  1.7532  1.5742
   7423SM   C11 9681   0.378   4.550  16.749  0.2806  1.1629 -0.0043
   7423SM  H11A 9682   0.283   4.603  16.728  0.9031  2.9193  1.4503
   7423SM  H11B 9683   0.352   4.443  16.733  1.2036  0.9982 -0.5189
   7423SM     P 9684   0.603   4.541  16.627  0.0754  0.3731 -0.2241
   7423SM   O13 9685   0.679   4.640  16.547 -0.3476 -0.0013 -0.7721
   7423SM   O14 9686   0.664   4.510  16.760 -0.0730  0.2208 -0.4172
   7423SM   O11 9687   0.566   4.407  16.551  1.0360  0.1418 -0.5129
   7423SM   O12 9688   0.464   4.604  16.655 -0.1673 -0.0404 -0.2258
   7423SM   C1S 9689   0.521   4.405  16.413  0.1622 -0.7230 -0.3465
   7423SM   H1S 9690   0.495   4.509  16.382  0.6151 -0.8377 -1.1392
   7423SM   H1T 9691   0.436   4.335  16.400  1.7879 -2.3948 -2.7804
   7423SM    NF 9692   0.594   4.362  16.182  0.0602  0.4957  0.2804
   7423SM   HNF 9693   0.530   4.301  16.136  0.7762  0.2098 -0.3523
   7423SM   C2S 9694   0.633   4.344  16.321  0.0300  0.2713  0.8794
   7423SM   H2S 9695   0.732   4.390  16.341 -1.5883  3.1646  3.2129
   7423SM   C3S 9696   0.640   4.197  16.360  0.1762  0.0837  0.7190
   7423SM   H3S 9697   0.549   4.148  16.319  0.5651 -0.6676  0.7500
   7423SM    O3 9698   0.659   4.170  16.495 -0.0174 -0.3241  0.0960
   7423SM   HO3 9699   0.648   4.258  16.533 -1.2710 -1.2155  1.9382
   7423SM   C4S 9700   0.757   4.133  16.288  0.4860  0.1151 -0.2769
   7423SM   H4S 9701   0.853   4.187  16.293  0.6471 -0.1018 -0.9428
   7423SM   C5S 9702   0.743   4.044  16.192  0.7085  0.3991 -0.5219
   7423SM   H5S 9703   0.641   4.010  16.171 -1.1190  3.9168  1.6733
   7423SM   C6S 9704   0.855   3.985  16.111 -0.2397 -0.1263 -0.3612
   7423SM   H6S 9705   0.854   3.875  16.120  0.9023 -0.0658  0.7902
   7423SM   H6T 9706   0.957   4.012  16.145  0.1581 -3.2751  1.3205
   7423SM   C7S 9707   0.836   4.022  15.966  0.0625 -0.0814 -0.4176
   7423SM   H7S 9708   0.839   4.130  15.939 -0.9663  0.2554  0.7014
   7423SM   H7T 9709   0.738   3.981  15.935 -0.4058 -1.7827  2.8319
   7423SM   C8S 9710   0.952   3.962  15.885 -0.1722  0.9070 -0.2452
   7423SM   H8S 9711   0.979   3.858  15.912  1.7769  1.2547 -0.7151
   7423SM   H8T 9712   1.048   4.016  15.900  1.0755 -1.3084  0.1475
   7423SM   C9S 9713   0.919   3.962  15.737  0.3317  0.2076 -0.3086
   7423SM   H9S 9714   0.881   4.059  15.699  1.4512  0.1109 -1.7641
   7423SM   H9T 9715   0.833   3.893  15.726 -0.7613  1.4515  0.1596
   7423SM  C10S 9716   1.036   3.909  15.652  0.1781 -0.4161 -0.4576
   7423SM  H10S 9717   1.078   3.813  15.690  0.4898 -0.2275 -0.3242
   7423SM  H10T 9718   1.124   3.977  15.652  1.2463 -1.7337 -1.3429
   7423SM  C11S 9719   1.004   3.892  15.502 -0.1978  0.0794 -0.6436
   7423SM  H11S 9720   0.995   3.994  15.459  1.4297  0.9243  0.8650
   7423SM  H11T 9721   0.908   3.839  15.485  0.1236 -0.7966  0.1779
   7423SM  C12S 9722   1.112   3.805  15.434  0.8001  0.1136 -0.1436
   7423SM  H12S 9723   1.102   3.704  15.479 -1.9156  0.6043  0.5200
   7423SM  H12T 9724   1.209   3.859  15.446 -0.0113  1.1571  2.5227
   7423SM  C13S 9725   1.081   3.793  15.282 -0.3972 -0.3531  0.6944
   7423SM  H13S 9726   1.101   3.892  15.236  1.2823 -0.9343  0.0969
   7423SM  H13T 9727   0.975   3.771  15.257  0.1670 -1.4666 -0.8870
   7423SM  C14S 9728   1.172   3.692  15.209  0.0859 -0.7330 -0.3937
   7423SM  H14S 9729   1.147   3.589  15.243 -0.0981 -0.5344  0.0785
   7423SM  H14T 9730   1.274   3.721  15.241  0.0295 -0.9108 -0.0477
   7423SM  C15S 9731   1.181   3.714  15.059  0.0915 -0.0846 -0.0982
   7423SM  H15S 9732   1.263   3.647  15.023 -2.4659 -1.9744 -2.9672
   7423SM  H15T 9733   1.217   3.816  15.037  1.0043  0.0690  1.9251
   7423SM  C16S 9734   1.058   3.663  14.976  0.4754  0.6273 -0.4153
   7423SM  H16S 9735   0.978   3.737  14.999  0.5976 -0.0806  2.7869
   7423SM  H16T 9736   1.027   3.564  15.016 -2.4130  1.5078 -0.2331
   7423SM  C17S 9737   1.085   3.679  14.820 -0.3372  0.3414 -0.6539
   7423SM  H17S 9738   1.174   3.615  14.803 -1.0749 -1.6167  2.1999
   7423SM  H17T 9739   1.099   3.788  14.802  0.9207  0.0142 -1.9105
   7423SM  C18S 9740   0.968   3.639  14.730 -0.2774 -0.4899  0.6783
   7423SM  H18S 9741   0.999   3.666  14.627 -1.3464  0.7028  0.6539
   7423SM  H18T 9742   0.876   3.693  14.760 -1.1128 -1.6061  0.1908
   7423SM  H18U 9743   0.946   3.530  14.729 -2.2489 -0.1315 -1.0989
   7423SM   C1F 9744   0.623   4.484  16.127  0.1308 -0.5000 -0.3984
   7423SM    OF 9745   0.671   4.575  16.201 -0.0312 -0.1558 -0.1992
   7423SM   C2F 9746   0.575   4.502  15.987  0.4533  0.3232  0.1961
   7423SM   H2F 9747   0.468   4.473  15.980  1.2002 -3.2340  1.6054
   7423SM   H2G 9748   0.631   4.427  15.926 -2.4501 -1.9224  0.0798
   7423SM   C3F 9749   0.608   4.642  15.937 -0.5267  0.0020 -0.0380
   7423SM   H3F 9750   0.718   4.652  15.938 -0.4993 -0.2573 -0.2871
   7423SM   H3G 9751   0.570   4.713  16.013  1.3877  1.0300  0.0236
   7423SM   C4F 9752   0.555   4.670  15.801  0.5510  0.1402  0.0565
   7423SM   H4F 9753   0.547   4.781  15.794  1.3443  0.4789  3.0460
   7423SM   H4G 9754   0.451   4.636  15.782 -0.0880  2.2518 -0.5436
   7423SM   C5F 9755   0.638   4.612  15.688 -0.2468 -0.4631 -0.5674
   7423SM   H5F 9756   0.643   4.502  15.699 -1.2325 -0.4528  0.0622
   7423SM   H5G 9757   0.746   4.635  15.688  0.2419 -2.5180 -1.5559
   7423SM   C6F 9758   0.562   4.638  15.554 -0.0146  0.0258 -0.4118
   7423SM   H6F 9759   0.531   4.745  15.544  0.5988  0.2730  0.2365
   7423SM   H6G 9760   0.467   4.582  15.567 -0.0365 -0.0229 -0.7895
   7423SM   C7F 9761   0.632   4.581  15.426  0.1523 -0.1782 -0.2430
   7423SM   H7F 9762   0.693   4.488  15.440 -0.0826 -0.1093  1.5354
   7423SM   H7G 9763   0.707   4.661  15.411 -1.2075  1.1344 -0.1950
   7423SM   C8F 9764   0.538   4.568  15.306  0.6542 -0.0222 -0.1929
   7423SM   H8F 9765   0.485   4.663  15.285 -1.9483 -2.1830 -5.0306
   7423SM   H8G 9766   0.457   4.495  15.325  0.3161  0.2074 -0.7370
   7423SM   C9F 9767   0.609   4.550  15.166  0.0347  0.4686 -0.0101
   7423SM   H9F 9768   0.625   4.442  15.147 -3.3259 -0.4557  1.6465
   7423SM   H9G 9769   0.706   4.605  15.170  0.7668 -0.5247 -2.4184
   7423SM  C10F 9770   0.521   4.598  15.041 -0.2014  0.5436 -0.1686
   7423SM  H10F 9771   0.436   4.658  15.080 -0.0180 -0.2157  1.4742
   7423SM  H10G 9772   0.485   4.507  14.989  2.1218 -1.0268  0.8519
   7423SM  C11F 9773   0.593   4.690  14.941  0.6970 -0.3535  0.1316
   7423SM  H11F 9774   0.661   4.765  14.987  1.0527 -0.0893 -0.7932
   7423SM  H11G 9775   0.516   4.755  14.895 -0.7248 -1.5760  0.7105
   7423SM  C12F 9776   0.661   4.609  14.824 -0.1221  0.0079  0.0451
   7423SM  H12F 9777   0.591   4.537  14.777 -0.2359 -0.7272  1.3038
   7423SM  H12G 9778   0.736   4.548  14.879  1.3632  1.6223 -0.0875
   7423SM  C13F 9779   0.736   4.692  14.723 -0.0833 -0.4317  0.6101
   7423SM  H13F 9780   0.813   4.752  14.776 -0.1359 -0.9963  1.3289
   7423SM  H13G 9781   0.668   4.771  14.683  0.0386  1.2145  3.3629
   7423SM  C14F 9782   0.809   4.605  14.614 -0.3632 -0.3813  0.3974
   7423SM  H14F 9783   0.869   4.521  14.656 -1.5497 -0.4561  2.0328
   7423SM  H14G 9784   0.884   4.660  14.553 -2.3690  0.4315 -1.4436
   7423SM  C15F 9785   0.720   4.522  14.518  0.9157 -0.6423 -0.1988
   7423SM  H15F 9786   0.625   4.573  14.490  1.2264  0.0812  0.0462
   7423SM  H15G 9787   0.685   4.429  14.568  1.7053  0.0171  1.6953
   7423SM  C16F 9788   0.790   4.488  14.384  0.0134 -0.0567 -0.1911
   7423SM  H16F 9789   0.822   4.577  14.326 -1.7647 -1.0676 -2.8571
   7423SM  H16G 9790   0.719   4.429  14.322  2.1140  0.5280 -3.3796
   7423SM  C17F 9791   0.922   4.400  14.396 -0.0202  0.6504  0.6692
   7423SM  H17F 9792   0.882   4.299  14.422  1.6306  0.3111  2.1284
   7423SM  H17G 9793   0.988   4.432  14.480 -1.1992 -0.2841  1.9936
   7423SM  C18F 9794   0.998   4.381  14.262  0.2484  0.6956  0.7824
   7423SM  H18F 9795   1.021   4.478  14.214  0.0594  0.0079 -0.7564
   7423SM  H18G 9796   0.952   4.314  14.186 -1.5023  1.7640  0.8579
   7423SM  C19F 9797   1.125   4.313  14.308  0.1119  1.2229  0.7502
   7423SM  H19F 9798   1.105   4.205  14.323  0.1758  1.0108 -0.5946
   7423SM  H19G 9799   1.163   4.353  14.405 -0.0954  2.7703  0.2193
   7423SM  C20F 9800   1.234   4.303  14.200  0.3148 -0.1978 -0.3942
   7423SM  H20F 9801   1.192   4.244  14.116 -1.8699 -3.7223  2.8132
   7423SM  H20G 9802   1.310   4.235  14.243 -0.0732  0.8830  2.2375
   7423SM  C21F 9803   1.287   4.440  14.151  0.2100  0.2562  0.3078
   7423SM  H21F 9804   1.298   4.511  14.236 -1.7068 -2.0586  2.6394
   7423SM  H21G 9805   1.218   4.499  14.087  0.9053  1.9986  1.0774
   7423SM  C22F 9806   1.423   4.421  14.074 -0.1507 -0.2391 -0.5157
   7423SM  H22F 9807   1.493   4.386  14.153 -2.0714  0.7009  1.7458
   7423SM  H22G 9808   1.459   4.523  14.048  0.7044 -0.2879  0.4012
   7423SM  C23F 9809   1.419   4.323  13.957  0.0925 -0.2187 -0.7190
   7423SM  H23F 9810   1.342   4.357  13.884  0.0299  2.5291  0.4859
   7423SM  H23G 9811   1.399   4.223  13.999 -1.4960  0.6418  0.7080
   7423SM  H23H 9812   1.506   4.330  13.888 -1.3775  0.8509 -2.5831
   7523SM     N 9813   6.499   6.461  16.662  0.0752  0.2902 -0.1778
   7523SM   C15 9814   6.606   6.359  16.700  0.1648 -0.7322 -0.3413
   7523SM  H15A 9815   6.659   6.382  16.792  2.3082 -1.7492 -1.2412
   7523SM  H15B 9816   6.687   6.347  16.629 -1.2571 -0.2486 -2.1087
   7523SM  H15C 9817   6.558   6.264  16.713 -1.8150  0.1046 -1.1908
   7523SM   C14 9818   6.383   6.457  16.753  0.3426  0.4823  0.3802
   7523SM  H14A 9819   6.334   6.360  16.758 -0.3963  0.7654 -0.9092
   7523SM  H14B 9820   6.310   6.528  16.717  1.4860  0.6790 -1.7000
   7523SM  H14C 9821   6.414   6.483  16.853  0.9770 -2.3499  1.0281
   7523SM   C13 9822   6.566   6.601  16.656 -0.3323  0.4725 -0.0140
   7523SM  H13A 9823   6.491   6.670  16.620 -2.0215 -0.3030  1.8021
   7523SM  H13B 9824   6.651   6.599  16.591 -1.2159 -0.7043 -1.1719
   7523SM  H13C 9825   6.604   6.637  16.751 -1.2274  0.2882  0.4309
   7523SM   C12 9826   6.453   6.422  16.520  0.1780 -0.0895 -0.4636
   7523SM  H12A 9827   6.373   6.492  16.498  0.8918  0.5397 -1.1257
   7523SM  H12B 9828   6.409   6.324  16.514  0.9614 -0.5380  0.8677
   7523SM   C11 9829   6.552   6.417  16.402 -0.7125 -0.4488 -0.1614
   7523SM  H11A 9830   6.610   6.511  16.393 -1.9571  0.2768 -0.8973
   7523SM  H11B 9831   6.488   6.417  16.311 -0.8180 -2.2711 -0.1289
   7523SM     P 9832   6.600   6.172  16.360  0.0844  0.3058 -0.3527
   7523SM   O13 9833   6.718   6.077  16.351 -0.4230  0.0418 -0.9775
   7523SM   O14 9834   6.494   6.135  16.459 -0.0784  0.4530  0.5282
   7523SM   O11 9835   6.529   6.193  16.228  0.8050  0.1373 -0.5088
   7523SM   O12 9836   6.645   6.311  16.408  0.0387 -0.3339  0.5157
   7523SM   C1S 9837   6.572   6.258  16.110 -0.6338  0.1671  0.1259
   7523SM   H1S 9838   6.682   6.265  16.117 -0.5989  0.5758 -0.7247
   7523SM   H1T 9839   6.523   6.358  16.106 -1.3704 -0.0793  1.9864
   7523SM    NF 9840   6.611   6.210  15.871  0.0600  0.2327 -0.3949
   7523SM   HNF 9841   6.591   6.291  15.817 -0.8841 -0.6445 -1.4148
   7523SM   C2S 9842   6.529   6.178  15.990 -0.2307  0.1466 -0.6849
   7523SM   H2S 9843   6.549   6.070  16.008  0.3508  0.3063 -0.3541
   7523SM   C3S 9844   6.380   6.206  15.973 -0.0020 -0.0799 -0.3410
   7523SM   H3S 9845   6.355   6.311  15.947 -1.0604 -0.1835  0.2129
   7523SM    O3 9846   6.300   6.163  16.084  0.0554  0.3507 -0.0869
   7523SM   HO3 9847   6.358   6.172  16.160  1.8059  1.6743 -1.4911
   7523SM   C4S 9848   6.336   6.137  15.847  0.1105  0.6652 -0.4221
   7523SM   H4S 9849   6.332   6.027  15.848 -1.4487  0.6943  0.3003
   7523SM   C5S 9850   6.277   6.190  15.738  0.1538 -0.2919  0.2268
   7523SM   H5S 9851   6.256   6.298  15.735  3.6476  0.4834 -0.2888
   7523SM   C6S 9852   6.231   6.122  15.619  1.2746 -0.4544  0.2764
   7523SM   H6S 9853   6.126   6.145  15.594  0.5303 -1.8565  1.9246
   7523SM   H6T 9854   6.238   6.012  15.630 -1.0676 -0.7310 -0.4938
   7523SM   C7S 9855   6.327   6.155  15.500  0.1784  0.1686  0.6842
   7523SM   H7S 9856   6.429   6.155  15.546  0.0485 -2.5573  1.1465
   7523SM   H7T 9857   6.310   6.259  15.466  0.6491 -0.5958 -2.1354
   7523SM   C8S 9858   6.313   6.073  15.372  0.2968 -0.3370  0.7145
   7523SM   H8S 9859   6.209   6.078  15.333 -0.0676 -4.3012  0.7224
   7523SM   H8T 9860   6.318   5.963  15.388  2.1877 -0.2959  0.6387
   7523SM   C9S 9861   6.422   6.126  15.276  0.0195  0.5289  0.0745
   7523SM   H9S 9862   6.519   6.088  15.314 -0.6505  0.5812  1.9390
   7523SM   H9T 9863   6.411   6.237  15.272 -0.2728  0.4849 -0.4516
   7523SM  C10S 9864   6.390   6.070  15.133 -0.0841  0.0425  0.2830
   7523SM  H10S 9865   6.294   6.109  15.093  0.1267 -1.2594 -1.5991
   7523SM  H10T 9866   6.389   5.962  15.158  1.1631 -0.4736 -1.6481
   7523SM  C11S 9867   6.494   6.104  15.020  0.1247 -0.3788 -0.7045
   7523SM  H11S 9868   6.592   6.054  15.031  0.4096  0.3022 -0.0539
   7523SM  H11T 9869   6.523   6.211  15.016 -0.6807  0.0981  2.6974
   7523SM  C12S 9870   6.424   6.076  14.887  0.3082 -0.8505  0.3558
   7523SM  H12S 9871   6.341   6.148  14.868  1.1296 -0.1662 -0.7578
   7523SM  H12T 9872   6.370   5.979  14.884 -0.9385 -0.1644 -0.7855
   7523SM  C13S 9873   6.511   6.074  14.758  0.9223  0.4979 -1.1260
   7523SM  H13S 9874   6.568   5.979  14.760  0.9638  0.5303 -0.7194
   7523SM  H13T 9875   6.579   6.161  14.745  0.6959  0.3702 -3.7021
   7523SM  C14S 9876   6.425   6.076  14.635  0.3220  0.0276  0.2084
   7523SM  H14S 9877   6.377   6.176  14.639  0.9847  0.2977  1.9191
   7523SM  H14T 9878   6.336   6.010  14.642  0.1423  0.0123 -1.6351
   7523SM  C15S 9879   6.497   6.057  14.497 -0.3181 -0.1768  1.3020
   7523SM  H15S 9880   6.544   5.956  14.486  0.5238  0.2891  0.4532
   7523SM  H15T 9881   6.581   6.125  14.474  1.3532 -1.8143  2.2242
   7523SM  C16S 9882   6.401   6.089  14.380 -0.5757 -0.4735  0.1034
   7523SM  H16S 9883   6.458   6.089  14.285  1.6956  0.4516  1.3779
   7523SM  H16T 9884   6.343   6.181  14.402 -1.7871 -1.4438  1.1786
   7523SM  C17S 9885   6.289   5.986  14.371 -0.6469  0.8662  0.5189
   7523SM  H17S 9886   6.211   6.018  14.299 -1.4685 -1.0265  0.5058
   7523SM  H17T 9887   6.234   5.984  14.468 -1.0327 -0.0998  0.2875
   7523SM  C18S 9888   6.338   5.854  14.328  0.4256 -0.0106 -0.4722
   7523SM  H18S 9889   6.253   5.782  14.332  0.8812 -0.6495 -1.7169
   7523SM  H18T 9890   6.412   5.804  14.394  0.3518 -0.6923 -0.8925
   7523SM  H18U 9891   6.379   5.864  14.226  2.2734 -0.9130  0.1404
   7523SM   C1F 9892   6.726   6.146  15.836 -0.0248  0.3969  0.1110
   7523SM    OF 9893   6.768   6.053  15.907  0.5576 -0.2781 -0.0579
   7523SM   C2F 9894   6.804   6.206  15.721  0.3333  0.4428  0.1339
   7523SM   H2F 9895   6.909   6.218  15.758  1.3242 -2.7458 -1.2886
   7523SM   H2G 9896   6.763   6.304  15.691  0.5294  0.8501  1.1692
   7523SM   C3F 9897   6.793   6.125  15.591 -0.7006 -0.7785 -0.1882
   7523SM   H3F 9898   6.691   6.089  15.568 -1.4070 -0.5925  2.3621
   7523SM   H3G 9899   6.858   6.035  15.602  0.9623  0.5786  2.0780
   7523SM   C4F 9900   6.840   6.193  15.466 -0.5682 -0.1770  0.5853
   7523SM   H4F 9901   6.944   6.231  15.468  0.3544 -2.5166  0.4645
   7523SM   H4G 9902   6.773   6.277  15.439 -0.7240 -1.6736 -4.8940
   7523SM   C5F 9903   6.828   6.100  15.343 -0.0519  0.7190 -0.1370
   7523SM   H5F 9904   6.721   6.068  15.334 -0.0337  0.7370 -0.4537
   7523SM   H5G 9905   6.884   6.008  15.369  1.0578  2.1313  2.8260
   7523SM   C6F 9906   6.878   6.168  15.208  0.5613 -0.8342 -0.3473
   7523SM   H6F 9907   6.975   6.217  15.230  0.8527 -2.0834  1.3838
   7523SM   H6G 9908   6.814   6.254  15.180  2.3316  0.8824  0.6244
   7523SM   C7F 9909   6.893   6.068  15.096 -0.4297  0.4111 -0.2795
   7523SM   H7F 9910   6.813   5.991  15.104  0.5823 -0.8381 -1.6110
   7523SM   H7G 9911   6.992   6.020  15.113 -1.5280 -1.9641 -0.1437
   7523SM   C8F 9912   6.880   6.127  14.954 -0.2730  0.0338 -0.7519
   7523SM   H8F 9913   6.948   6.215  14.951 -0.1039 -0.1228 -1.7203
   7523SM   H8G 9914   6.775   6.164  14.952 -0.8595 -0.9041  3.3800
   7523SM   C9F 9915   6.919   6.016  14.858 -0.3234  0.2810  0.0640
   7523SM   H9F 9916   6.854   5.926  14.851 -2.1859  1.6686 -1.9921
   7523SM   H9G 9917   7.017   5.971  14.885 -0.2382  1.0683  1.1111
   7523SM  C10F 9918   6.937   6.060  14.708 -0.3396  0.0736 -0.5457
   7523SM  H10F 9919   7.041   6.098  14.701  0.0021 -0.7021  0.0392
   7523SM  H10G 9920   6.867   6.141  14.681 -0.4208 -0.3565 -1.6729
   7523SM  C11F 9921   6.911   5.933  14.626  0.1363 -0.1558  0.5974
   7523SM  H11F 9922   6.822   5.878  14.661 -0.4675 -0.6683 -1.5775
   7523SM  H11G 9923   6.999   5.868  14.647 -1.0872 -1.4917  1.7621
   7523SM  C12F 9924   6.900   5.952  14.474 -0.8252  0.4880 -0.7522
   7523SM  H12F 9925   6.826   6.030  14.449 -0.6228  0.4395 -1.5204
   7523SM  H12G 9926   6.869   5.852  14.438 -0.0982 -0.0260  0.0010
   7523SM  C13F 9927   7.034   6.003  14.415 -0.9517  0.2801 -0.0078
   7523SM  H13F 9928   7.116   5.939  14.453 -0.7357  0.4620 -0.1612
   7523SM  H13G 9929   7.054   6.105  14.455 -0.6559 -0.1265  0.9011
   7523SM  C14F 9930   7.031   5.995  14.262 -0.2279  0.1099 -0.1254
   7523SM  H14F 9931   6.988   5.900  14.222  0.6405 -0.8967  1.2546
   7523SM  H14G 9932   7.136   5.992  14.226 -0.1661  0.9604 -0.0296
   7523SM  C15F 9933   6.949   6.124  14.208 -0.0502  0.3676  0.6261
   7523SM  H15F 9934   7.010   6.216  14.213 -0.4217  0.5851  1.3277
   7523SM  H15G 9935   6.869   6.141  14.284 -2.0516  2.3830 -1.7474
   7523SM  C16F 9936   6.889   6.116  14.067 -0.9115  0.6013  1.3117
   7523SM  H16F 9937   6.846   6.017  14.043  2.4627 -0.8133  0.4758
   7523SM  H16G 9938   6.979   6.125  14.002 -0.3011 -1.8682  1.7192
   7523SM  C17F 9939   6.801   6.236  14.030  0.3064 -0.2680  0.3594
   7523SM  H17F 9940   6.867   6.326  14.026  3.0730 -2.1868 -2.7623
   7523SM  H17G 9941   6.715   6.240  14.100  0.4694 -2.9665  0.8359
   7523SM  C18F 9942   6.757   6.221  13.888  0.4150  0.1952 -0.4482
   7523SM  H18F 9943   6.707   6.123  13.877  0.1626  0.0213  1.7298
   7523SM  H18G 9944   6.852   6.218  13.830 -0.4001 -0.8380 -1.7664
   7523SM  C19F 9945   6.650   6.326  13.850  0.9076 -0.3557  0.2800
   7523SM  H19F 9946   6.700   6.424  13.865 -0.3524 -0.0638  3.5873
   7523SM  H19G 9947   6.568   6.321  13.925 -2.5101  0.9495 -3.0222
   7523SM  C20F 9948   6.596   6.315  13.711  0.4290 -0.1629  0.4263
   7523SM  H20F 9949   6.508   6.247  13.714 -0.5103  0.9726 -0.7492
   7523SM  H20G 9950   6.666   6.271  13.637 -0.0546 -1.4959  0.7261
   7523SM  C21F 9951   6.532   6.440  13.649 -0.0044  0.3617  0.2035
   7523SM  H21F 9952   6.606   6.517  13.616 -0.6457  0.2743 -1.5755
   7523SM  H21G 9953   6.475   6.480  13.735  0.7493  3.0310 -0.4264
   7523SM  C22F 9954   6.440   6.398  13.538  0.0900 -0.6732  0.4920
   7523SM  H22F 9955   6.380   6.309  13.567 -1.2362  0.3462  1.0068
   7523SM  H22G 9956   6.507   6.362  13.456  0.1449  1.5328 -0.5198
   7523SM  C23F 9957   6.352   6.503  13.475  0.5616 -0.5865  0.2177
   7523SM  H23F 9958   6.287   6.564  13.541 -0.1256  0.1319 -1.0694
   7523SM  H23G 9959   6.286   6.447  13.405  1.0828 -0.2403 -0.5761
   7523SM  H23H 9960   6.424   6.571  13.425  0.9642  0.6617  2.3757
   7623SM     N 9961   1.295   5.323  16.826 -0.6056  0.1898 -0.3605
   7623SM   C15 9962   1.336   5.397  16.949  0.1715  0.2807 -0.1120
   7623SM  H15A 9963   1.259   5.459  16.992  0.8471  0.8117  0.3545
   7623SM  H15B 9964   1.422   5.458  16.929  2.3734 -2.0232  1.5482
   7623SM  H15C 9965   1.361   5.330  17.031 -1.4208  0.8329  0.8725
   7623SM   C14 9966   1.406   5.235  16.770  0.7759 -0.0960  0.2794
   7623SM  H14A 9967   1.383   5.206  16.669  0.6534 -0.1430  0.3209
   7623SM  H14B 9968   1.415   5.153  16.840  0.9596  1.0194  1.6054
   7623SM  H14C 9969   1.500   5.287  16.769  0.3075  0.8303  1.3629
   7623SM   C13 9970   1.186   5.224  16.873 -0.1031  0.0334  0.1251
   7623SM  H13A 9971   1.166   5.150  16.796 -1.2830  0.6732 -0.2210
   7623SM  H13B 9972   1.096   5.266  16.915  0.3814  1.0678  0.1572
   7623SM  H13C 9973   1.213   5.164  16.958  0.7429 -1.7928 -1.3550
   7623SM   C12 9974   1.241   5.412  16.718 -0.0325  0.2114  0.3724
   7623SM  H12A 9975   1.321   5.457  16.661 -0.9415  2.9078  1.0356
   7623SM  H12B 9976   1.183   5.496  16.753 -2.4021 -1.6104  1.1057
   7623SM   C11 9977   1.151   5.348  16.611 -0.2661 -0.3465  0.5459
   7623SM  H11A 9978   1.123   5.428  16.538  2.3653  0.0264 -0.1506
   7623SM  H11B 9979   1.052   5.314  16.650 -0.0988 -0.9588  0.4359
   7623SM     P 9980   1.154   5.111  16.496  0.1260  0.2064 -0.1927
   7623SM   O13 9981   1.248   5.040  16.408  0.0451  0.6213 -0.4341
   7623SM   O14 9982   1.116   5.045  16.627  0.2266 -0.0595  0.5042
   7623SM   O11 9983   1.028   5.162  16.415  1.1357 -0.0179  0.4329
   7623SM   O12 9984   1.225   5.243  16.538 -0.2183  0.1869 -0.4734
   7623SM   C1S 9985   0.982   5.095  16.296  0.0834  0.2315  0.1659
   7623SM   H1S 9986   0.877   5.063  16.315  0.8365 -1.5193  1.7313
   7623SM   H1T 9987   1.047   5.006  16.286 -0.4664 -0.0144 -1.3564
   7623SM    NF 9988   0.912   5.127  16.058 -0.0743  0.0118  1.1069
   7623SM   HNF 9989   0.970   5.106  15.980  2.3305  3.1310  1.8331
   7623SM   C2S 9990   0.982   5.188  16.164 -0.1219  0.2164  0.1506
   7623SM   H2S 9991   0.927   5.281  16.192 -2.0499 -0.9237  0.3162
   7623SM   C3S 9992   1.133   5.226  16.125  0.2048 -0.0960 -0.8134
   7623SM   H3S 9993   1.191   5.133  16.109  0.7344 -0.0646  0.7154
   7623SM    O3 9994   1.201   5.306  16.220 -0.1761  0.0937 -0.1278
   7623SM   HO3 9995   1.156   5.283  16.302  0.0066 -3.3922 -0.8503
   7623SM   C4S 9996   1.130   5.296  15.992  0.3538  0.0130 -0.7256
   7623SM   H4S 9997   1.135   5.225  15.907  3.1303 -1.4899  0.5409
   7623SM   C5S 9998   1.115   5.420  15.964  0.0008 -0.3195 -0.1822
   7623SM   H5S 9999   1.113   5.493  16.047  1.6561 -1.0325  0.5180
   7623SM   C6S10000   1.106   5.471  15.820 -0.1411  0.2623 -0.1637
   7623SM   H6S10001   1.202   5.475  15.765 -0.0331  0.0913  0.0117
   7623SM   H6T10002   1.071   5.576  15.814 -0.9042 -0.0727 -3.8844
   7623SM   C7S10003   1.005   5.399  15.727 -0.0977  0.2301  0.2895
   7623SM   H7S10004   0.917   5.464  15.709 -1.0455 -0.9223  0.6818
   7623SM   H7T10005   0.977   5.298  15.764 -0.4434  0.5972  1.0527
   7623SM   C8S10006   1.071   5.365  15.594  0.1531  0.1189 -0.5490
   7623SM   H8S10007   1.154   5.299  15.625 -0.4159  0.1678  1.2256
   7623SM   H8T10008   1.106   5.451  15.532  0.9438 -0.1982 -0.5432
   7623SM   C9S10009   0.980   5.267  15.508 -0.2850 -0.6816 -0.1685
   7623SM   H9S10010   0.889   5.323  15.478 -0.8320 -2.1231 -1.3297
   7623SM   H9T10011   0.941   5.180  15.564  0.1446 -1.0645 -0.4592
   7623SM  C10S10012   1.054   5.228  15.381  0.4044 -0.2667 -0.0228
   7623SM  H10S10013   1.129   5.152  15.414  0.7337 -0.2388 -0.6941
   7623SM  H10T10014   1.117   5.315  15.352 -0.5132  0.3436 -0.2472
   7623SM  C11S10015   0.969   5.153  15.278 -0.6575  0.1168  0.0238
   7623SM  H11S10016   0.911   5.069  15.321 -0.3573  1.2780  2.9503
   7623SM  H11T10017   1.039   5.118  15.198 -0.6356  0.7331 -0.2360
   7623SM  C12S10018   0.864   5.247  15.213 -0.0160 -0.4854 -0.3619
   7623SM  H12S10019   0.780   5.267  15.283  0.7197 -0.3719  0.5044
   7623SM  H12T10020   0.839   5.197  15.116  1.5891 -2.4436  0.1593
   7623SM  C13S10021   0.918   5.386  15.171 -0.6584  0.2770 -0.9589
   7623SM  H13S10022   1.014   5.367  15.118 -0.5862 -2.7851  0.0569
   7623SM  H13T10023   0.933   5.455  15.257  0.4642 -0.8139 -0.2543
   7623SM  C14S10024   0.826   5.451  15.078  0.2024 -0.4249 -0.1250
   7623SM  H14S10025   0.819   5.398  14.981 -3.7995  0.1106 -0.3042
   7623SM  H14T10026   0.874   5.549  15.062 -0.3816  0.1028  1.1605
   7623SM  C15S10027   0.682   5.475  15.129  0.5573 -0.0339 -0.2788
   7623SM  H15S10028   0.695   5.555  15.204 -0.4722 -0.5357  0.4671
   7623SM  H15T10029   0.633   5.385  15.172  0.6813 -0.5471 -1.1839
   7623SM  C16S10030   0.595   5.527  15.013 -0.1864  0.3861  0.3611
   7623SM  H16S10031   0.489   5.505  15.034 -0.5962  1.2926 -0.6806
   7623SM  H16T10032   0.624   5.480  14.917 -0.7012 -0.4093  0.5845
   7623SM  C17S10033   0.586   5.678  14.995 -0.0414 -0.0908 -0.0968
   7623SM  H17S10034   0.677   5.730  14.959 -0.5166  0.7912 -0.0486
   7623SM  H17T10035   0.554   5.735  15.085 -2.2649  0.9097 -1.4412
   7623SM  C18S10036   0.463   5.714  14.903 -0.2296 -0.1603 -0.4134
   7623SM  H18S10037   0.464   5.678  14.798  1.8315 -2.0296  0.1782
   7623SM  H18T10038   0.456   5.825  14.905 -0.0967 -0.1530 -0.2875
   7623SM  H18U10039   0.373   5.671  14.951 -0.2001  0.4222  0.1704
   7623SM   C1F10040   0.785   5.102  16.051  0.0532  0.6593 -0.0963
   7623SM    OF10041   0.706   5.161  16.124 -0.6447 -0.3662 -0.1876
   7623SM   C2F10042   0.725   5.016  15.945 -0.4464 -0.1551 -0.5873
   7623SM   H2F10043   0.704   4.920  15.997  1.2090  0.7418  1.9138
   7623SM   H2G10044   0.798   5.012  15.861  0.2569  0.1728 -0.0023
   7623SM   C3F10045   0.598   5.075  15.897  0.3879  0.0525  0.0376
   7623SM   H3F10046   0.529   5.100  15.980 -0.3588 -1.4141 -0.1282
   7623SM   H3G10047   0.541   4.998  15.841 -0.3193  1.3242 -1.0636
   7623SM   C4F10048   0.617   5.193  15.795 -0.1980  0.5089 -0.6013
   7623SM   H4F10049   0.688   5.163  15.715 -0.3992  0.3932 -0.7402
   7623SM   H4G10050   0.661   5.275  15.855 -0.6905  0.8176 -0.6537
   7623SM   C5F10051   0.487   5.241  15.728 -0.0734 -0.1336 -0.0059
   7623SM   H5F10052   0.515   5.317  15.652  1.7042 -2.4930 -1.8556
   7623SM   H5G10053   0.436   5.295  15.811 -0.4870  1.8093 -1.4419
   7623SM   C6F10054   0.378   5.146  15.676  0.5894  0.4237  0.0256
   7623SM   H6F10055   0.289   5.198  15.634 -0.3354 -1.7916 -0.9048
   7623SM   H6G10056   0.342   5.083  15.760  2.2439  0.3765  0.7315
   7623SM   C7F10057   0.431   5.045  15.576  0.0512  0.3972 -0.1142
   7623SM   H7F10058   0.363   4.959  15.553 -1.2233  0.7735  2.0429
   7623SM   H7G10059   0.516   4.986  15.617 -1.0769 -2.2582 -1.3221
   7623SM   C8F10060   0.469   5.106  15.439  0.4825  0.2386 -0.1418
   7623SM   H8F10061   0.545   5.183  15.463 -1.3959  1.9496  0.5947
   7623SM   H8G10062   0.376   5.148  15.393  0.4114 -0.8903 -1.0949
   7623SM   C9F10063   0.512   4.997  15.337 -0.1252  0.1387  0.2344
   7623SM   H9F10064   0.438   4.914  15.323  0.2141  0.0300 -1.0975
   7623SM   H9G10065   0.603   4.965  15.391 -0.0288  0.1990  0.1078
   7623SM  C10F10066   0.537   5.054  15.196 -0.5405  0.4823  0.2796
   7623SM  H10F10067   0.627   5.006  15.154 -2.4158 -1.3929 -1.8721
   7623SM  H10G10068   0.570   5.159  15.209  0.0568  0.2071  1.0011
   7623SM  C11F10069   0.415   5.062  15.105 -0.0328 -0.1790  0.5714
   7623SM  H11F10070   0.332   5.098  15.168 -0.7954  1.8782 -1.4794
   7623SM  H11G10071   0.383   4.962  15.071  0.6215  0.0317 -0.7430
   7623SM  C12F10072   0.418   5.158  14.978 -0.2379  0.2981  0.1270
   7623SM  H12F10073   0.455   5.257  15.010 -0.6978  1.2669 -2.1511
   7623SM  H12G10074   0.314   5.187  14.950 -0.5088  0.0041  0.8077
   7623SM  C13F10075   0.488   5.097  14.863 -0.6614 -0.4739  0.0027
   7623SM  H13F10076   0.453   5.154  14.774  0.2983  0.9348  0.4908
   7623SM  H13G10077   0.460   4.992  14.843 -0.2832 -0.4183 -0.8925
   7623SM  C14F10078   0.640   5.121  14.869 -0.4826 -0.5628  0.1278
   7623SM  H14F10079   0.685   5.048  14.939 -1.9605 -1.4478  0.2160
   7623SM  H14G10080   0.660   5.226  14.899 -1.1468 -0.4820  0.3126
   7623SM  C15F10081   0.715   5.101  14.737  0.3175  0.1351 -0.2636
   7623SM  H15F10082   0.676   5.178  14.667  0.4681 -0.5347 -1.1010
   7623SM  H15G10083   0.701   5.000  14.693 -0.0615 -0.3318  0.8706
   7623SM  C16F10084   0.863   5.136  14.756 -0.7350  0.0503  0.5058
   7623SM  H16F10085   0.862   5.225  14.823  0.6931 -1.6769  3.0051
   7623SM  H16G10086   0.914   5.171  14.664 -0.4238 -1.6401  0.0116
   7623SM  C17F10087   0.949   5.025  14.816 -0.8505 -0.0683 -0.4608
   7623SM  H17F10088   0.962   4.950  14.735  0.2591 -2.4353  1.7605
   7623SM  H17G10089   0.897   4.979  14.903 -0.0317  0.8281  0.5276
   7623SM  C18F10090   1.091   5.074  14.866  0.0977  0.2189  0.6875
   7623SM  H18F10091   1.139   5.002  14.937  1.8472 -1.0674 -1.6452
   7623SM  H18G10092   1.077   5.169  14.921 -0.2559 -0.0529  1.0737
   7623SM  C19F10093   1.199   5.100  14.765  0.1444  0.0930 -0.3131
   7623SM  H19F10094   1.160   5.152  14.675  1.2479 -0.6553 -1.2598
   7623SM  H19G10095   1.226   4.999  14.729  1.0679  0.0324  0.4939
   7623SM  C20F10096   1.311   5.187  14.826  0.1352  0.4487 -0.4203
   7623SM  H20F10097   1.345   5.116  14.904  0.6136 -0.5942 -1.5453
   7623SM  H20G10098   1.278   5.272  14.889  0.2144 -0.3162  0.6846
   7623SM  C21F10099   1.419   5.234  14.724  0.4891  0.3413  0.0812
   7623SM  H21F10100   1.495   5.286  14.787  0.9200 -3.1678  2.7721
   7623SM  H21G10101   1.375   5.320  14.669 -0.6935 -1.1591 -1.3938
   7623SM  C22F10102   1.466   5.123  14.630 -0.2210  0.5749  0.5766
   7623SM  H22F10103   1.539   5.160  14.555  0.9432  0.6204  1.7003
   7623SM  H22G10104   1.380   5.091  14.567  0.5650 -1.0599  0.2905
   7623SM  C23F10105   1.522   4.993  14.686  0.2991 -0.7116 -0.0928
   7623SM  H23F10106   1.535   4.906  14.617  1.5298  0.4328 -1.3659
   7623SM  H23G10107   1.457   4.957  14.768  0.6169 -1.9722 -0.3678
   7623SM  H23H10108   1.619   5.010  14.738 -1.5786  3.0064  2.6433
   7723SM     N10109   0.198   2.169  16.374  0.0314  0.1060 -0.6050
   7723SM   C1510110   0.286   2.083  16.288  0.0996  0.3945  0.5017
   7723SM  H15A10111   0.237   1.998  16.243  0.8754  0.9894 -1.5887
   7723SM  H15B10112   0.377   2.056  16.339 -0.6127 -1.0342  1.0509
   7723SM  H15C10113   0.327   2.146  16.210  1.4860 -1.5191 -0.3795
   7723SM   C1410114   0.292   2.267  16.438 -0.2203 -0.3279  0.1003
   7723SM  H14A10115   0.321   2.332  16.357 -0.5802 -0.5586 -0.2127
   7723SM  H14B10116   0.383   2.215  16.467  0.6821  0.8370 -0.5402
   7723SM  H14C10117   0.249   2.320  16.522 -2.3510  0.6993 -1.5418
   7723SM   C1310118   0.081   2.231  16.297 -0.1257 -0.1386  0.2382
   7723SM  H13A10119   0.029   2.154  16.241  0.8260 -0.2931 -0.4483
   7723SM  H13B10120   0.122   2.305  16.229 -0.5843  0.8474  1.0020
   7723SM  H13C10121   0.005   2.275  16.360  1.4318  0.4819  1.7572
   7723SM   C1210122   0.129   2.081  16.481  0.3607 -0.0986 -0.2333
   7723SM  H12A10123   0.063   2.147  16.536 -0.4451 -1.5087  0.5346
   7723SM  H12B10124   0.194   2.040  16.557 -2.2922  1.9751  3.4932
   7723SM   C1110125   0.045   1.959  16.444  0.0377  0.3803  1.2107
   7723SM  H11A10126  -0.015   1.989  16.355  0.9145  1.5369  0.9898
   7723SM  H11B10127  -0.026   1.938  16.527 -1.8288 -0.3793 -0.4903
   7723SM     P10128   0.177   1.753  16.530  0.0751  0.2154  0.2736
   7723SM   O1310129   0.213   1.845  16.639  0.5802  0.0691 -0.0830
   7723SM   O1410130   0.081   1.644  16.558 -0.4083 -0.1172  0.5754
   7723SM   O1110131   0.316   1.694  16.465  0.4738  0.0498 -0.4183
   7723SM   O1210132   0.122   1.838  16.403 -0.0898  0.1853  0.1998
   7723SM   C1S10133   0.309   1.591  16.367  0.2214  0.7439  0.1739
   7723SM   H1S10134   0.204   1.556  16.357 -0.1682  0.6521  3.4242
   7723SM   H1T10135   0.368   1.501  16.396 -1.5955 -1.3291 -2.0807
   7723SM    NF10136   0.368   1.540  16.140  0.0110  0.3160 -0.1318
   7723SM   HNF10137   0.448   1.483  16.124 -1.1263 -1.5984  0.7413
   7723SM   C2S10138   0.376   1.648  16.235  0.8468  0.1590 -0.5474
   7723SM   H2S10139   0.314   1.735  16.206  1.5291  1.0304  0.5338
   7723SM   C3S10140   0.521   1.701  16.260 -0.0579  0.0626  0.2336
   7723SM   H3S10141   0.586   1.625  16.309 -1.7058 -0.4464  1.7456
   7723SM    O310142   0.511   1.808  16.351  0.4769 -0.0130 -0.1919
   7723SM   HO310143   0.421   1.793  16.382  0.6626  1.4787  1.2019
   7723SM   C4S10144   0.579   1.753  16.129  0.4931  0.2109  0.1073
   7723SM   H4S10145   0.513   1.814  16.064  1.1624  2.9896  1.8533
   7723SM   C5S10146   0.700   1.728  16.071  0.1727  0.1623 -0.3167
   7723SM   H5S10147   0.770   1.667  16.130 -0.9982 -0.8510  0.0682
   7723SM   C6S10148   0.759   1.776  15.944 -0.0944  0.1541  0.3257
   7723SM   H6S10149   0.832   1.855  15.972 -0.3531 -0.1952  2.1261
   7723SM   H6T10150   0.689   1.826  15.874  0.8586 -1.4999 -1.9137
   7723SM   C7S10151   0.824   1.658  15.871  0.0186  0.5404  0.0308
   7723SM   H7S10152   0.896   1.617  15.944 -3.4925  0.1626  3.5817
   7723SM   H7T10153   0.874   1.702  15.782  0.0177  0.9243  0.2167
   7723SM   C8S10154   0.723   1.549  15.834  0.5418  0.6761  0.4125
   7723SM   H8S10155   0.644   1.589  15.767 -0.5988 -1.3138  0.4785
   7723SM   H8T10156   0.677   1.518  15.930 -0.5577  1.6993  0.2292
   7723SM   C9S10157   0.796   1.436  15.754 -0.1991  0.3188  1.0409
   7723SM   H9S10158   0.732   1.353  15.717 -0.9156  1.7387 -1.0900
   7723SM   H9T10159   0.867   1.387  15.824  0.3427 -2.6343 -1.3525
   7723SM  C10S10160   0.880   1.483  15.636 -0.1626  0.2863 -0.0386
   7723SM  H10S10161   0.913   1.391  15.582 -0.6278  0.7794 -1.2072
   7723SM  H10T10162   0.966   1.545  15.669 -0.0753  0.7614 -1.1183
   7723SM  C11S10163   0.818   1.568  15.523  0.3450  0.8103  0.5305
   7723SM  H11S10164   0.884   1.549  15.436 -0.1132 -0.9734  0.5368
   7723SM  H11T10165   0.823   1.675  15.553 -1.4438  1.3481 -0.8674
   7723SM  C12S10166   0.674   1.530  15.477 -0.3508 -0.0918  0.1153
   7723SM  H12S10167   0.597   1.534  15.557  0.2931 -0.4227  0.7601
   7723SM  H12T10168   0.677   1.420  15.458 -0.4510 -0.0533 -0.1267
   7723SM  C13S10169   0.604   1.602  15.360 -0.5025  0.3538 -0.4096
   7723SM  H13S10170   0.500   1.565  15.355 -0.3278 -0.2692  0.3079
   7723SM  H13T10171   0.655   1.567  15.268  0.4888  0.7772 -0.0386
   7723SM  C14S10172   0.597   1.751  15.371  0.4758 -0.7223 -0.6615
   7723SM  H14S10173   0.538   1.788  15.285  0.9779  0.0934 -0.6641
   7723SM  H14T10174   0.700   1.792  15.369  0.1178  0.1405 -2.0221
   7723SM  C15S10175   0.525   1.805  15.496  0.1933 -0.2847  0.0783
   7723SM  H15S10176   0.515   1.916  15.493 -2.0726 -0.3854  1.5034
   7723SM  H15T10177   0.598   1.777  15.574  0.3989  0.3127  0.1026
   7723SM  C16S10178   0.381   1.754  15.521  0.2159 -0.4642  0.4618
   7723SM  H16S10179   0.389   1.643  15.522  1.2999 -0.3965  0.1661
   7723SM  H16T10180   0.318   1.771  15.431 -0.8634 -2.2844  0.8250
   7723SM  C17S10181   0.317   1.815  15.643 -0.2111 -0.9013 -0.4106
   7723SM  H17S10182   0.208   1.795  15.643 -0.3806 -0.6269  3.2250
   7723SM  H17T10183   0.320   1.926  15.641 -0.5902 -0.8389  1.0035
   7723SM  C18S10184   0.384   1.763  15.772  0.1806 -0.2796  0.0084
   7723SM  H18S10185   0.308   1.768  15.853 -0.3522 -0.4519 -0.4781
   7723SM  H18T10186   0.479   1.819  15.788 -0.5997  0.3954  2.9147
   7723SM  H18U10187   0.412   1.656  15.759 -2.8574 -1.0795 -0.6331
   7723SM   C1F10188   0.247   1.504  16.099 -0.0426 -0.3401  0.1052
   7723SM    OF10189   0.145   1.569  16.128 -0.5785  0.0692  0.2424
   7723SM   C2F10190   0.239   1.381  16.011  0.2617 -0.1460  0.3452
   7723SM   H2F10191   0.228   1.305  16.091  2.9824  0.0881  1.0369
   7723SM   H2G10192   0.339   1.367  15.965  0.7799  3.3702  0.1892
   7723SM   C3F10193   0.127   1.380  15.903 -0.3144 -0.3431  0.2666
   7723SM   H3F10194   0.030   1.384  15.957 -0.3168 -0.1172  0.2461
   7723SM   H3G10195   0.142   1.280  15.857  0.1777 -0.2223  0.1545
   7723SM   C4F10196   0.131   1.490  15.797 -0.2625  0.4383 -0.2044
   7723SM   H4F10197   0.202   1.475  15.713 -1.6234  0.1972 -1.3564
   7723SM   H4G10198   0.160   1.585  15.845  0.0911 -0.8376  2.2664
   7723SM   C5F10199  -0.010   1.518  15.743 -0.0647  0.3218  0.2996
   7723SM   H5F10200  -0.083   1.549  15.820  0.3813 -0.2121  0.9533
   7723SM   H5G10201  -0.041   1.428  15.685  1.8906 -0.1084 -0.1823
   7723SM   C6F10202  -0.019   1.632  15.636 -0.4513  0.2285 -0.4812
   7723SM   H6F10203  -0.001   1.736  15.672  0.1573  0.3354 -1.0649
   7723SM   H6G10204  -0.124   1.635  15.600 -1.8779  1.9077  3.2708
   7723SM   C7F10205   0.063   1.606  15.507  0.5419 -0.3053  0.1009
   7723SM   H7F10206   0.167   1.605  15.546  1.0264  0.4654 -1.0958
   7723SM   H7G10207   0.068   1.694  15.439  0.0601  1.0316  1.7131
   7723SM   C8F10208   0.036   1.474  15.428  0.9000  0.1842 -0.4145
   7723SM   H8F10209  -0.074   1.459  15.426  1.1109 -1.9953  1.0804
   7723SM   H8G10210   0.074   1.392  15.492  0.1600  0.8756  0.9644
   7723SM   C9F10211   0.080   1.470  15.282  0.0136  0.1181  0.1202
   7723SM   H9F10212   0.061   1.367  15.244  2.9629 -0.2220 -0.6364
   7723SM   H9G10213   0.189   1.484  15.273 -0.1207  1.0501 -0.1599
   7723SM  C10F10214   0.004   1.558  15.182 -0.5633 -0.2782  0.1929
   7723SM  H10F10215   0.027   1.667  15.185  0.3581 -0.4544 -0.2817
   7723SM  H10G10216  -0.106   1.557  15.199 -0.4991 -0.7236  0.5898
   7723SM  C11F10217   0.030   1.516  15.042  0.1077 -0.8262  0.2089
   7723SM  H11F10218  -0.027   1.429  15.003 -0.9110  0.2340 -0.8007
   7723SM  H11G10219   0.138   1.497  15.029  0.4414  1.7499 -1.6939
   7723SM  C12F10220  -0.005   1.634  14.939  0.9503  0.0924 -0.0201
   7723SM  H12F10221   0.062   1.715  14.975  1.2082 -0.1836  0.1287
   7723SM  H12G10222  -0.106   1.668  14.969  0.1493  0.3198 -2.7279
   7723SM  C13F10223   0.019   1.615  14.790  0.7911 -0.3633 -0.4424
   7723SM  H13F10224  -0.068   1.566  14.741  0.4759  0.7947 -1.0764
   7723SM  H13G10225   0.112   1.554  14.784  0.1140 -1.6542  1.2100
   7723SM  C14F10226   0.033   1.747  14.710 -0.2631  0.1844 -0.3353
   7723SM  H14F10227   0.050   1.714  14.605 -1.0462 -1.3866 -0.0033
   7723SM  H14G10228   0.129   1.789  14.745  0.7819 -1.4313 -1.1389
   7723SM  C15F10229  -0.081   1.836  14.739 -0.1573  0.2285 -0.0885
   7723SM  H15F10230  -0.083   1.872  14.844 -0.3477  2.7860 -0.9091
   7723SM  H15G10231  -0.173   1.777  14.719 -0.5940 -0.1849  2.6933
   7723SM  C16F10232  -0.086   1.963  14.653 -1.2093 -0.0618 -0.2302
   7723SM  H16F10233   0.009   2.020  14.650 -1.9212  1.2200  0.7124
   7723SM  H16G10234  -0.170   2.019  14.699 -1.5831 -2.4366  2.2949
   7723SM  C17F10235  -0.121   1.938  14.510  0.4312 -0.3722  0.3475
   7723SM  H17F10236  -0.214   1.878  14.519 -0.5791  0.9607 -0.7236
   7723SM  H17G10237  -0.044   1.867  14.473 -0.3066 -0.5947 -0.8168
   7723SM  C18F10238  -0.152   2.059  14.429 -0.6689  0.9284 -0.1573
   7723SM  H18F10239  -0.068   2.129  14.411 -0.2836  0.4751 -0.1081
   7723SM  H18G10240  -0.222   2.125  14.485  0.5006  2.7196 -0.7211
   7723SM  C19F10241  -0.213   2.040  14.286 -0.0541 -0.1739  0.3246
   7723SM  H19F10242  -0.233   2.136  14.234  0.8058 -0.4308 -0.5146
   7723SM  H19G10243  -0.318   2.005  14.298 -0.7722  1.5757 -0.4409
   7723SM  C20F10244  -0.132   1.941  14.198  0.0216 -0.2429  0.1719
   7723SM  H20F10245  -0.136   1.843  14.251  0.4547 -0.3168  0.0688
   7723SM  H20G10246  -0.029   1.976  14.178  0.6744 -1.6807  0.8094
   7723SM  C21F10247  -0.200   1.928  14.061  0.3703  0.1610 -0.3496
   7723SM  H21F10248  -0.127   1.882  13.991  0.0348 -0.0667 -0.5519
   7723SM  H21G10249  -0.222   2.025  14.010  0.0007  1.3348  1.9319
   7723SM  C22F10250  -0.327   1.845  14.059  0.2388  0.3596  0.1146
   7723SM  H22F10251  -0.369   1.855  13.957 -0.0361  1.2921  0.3147
   7723SM  H22G10252  -0.395   1.900  14.128 -1.5834 -1.0783 -0.4403
   7723SM  C23F10253  -0.322   1.698  14.103 -0.0330 -0.3042 -0.3478
   7723SM  H23F10254  -0.274   1.705  14.203 -3.8130  3.4925  1.5168
   7723SM  H23G10255  -0.262   1.636  14.033  0.2369 -0.6454  0.1754
   7723SM  H23H10256  -0.427   1.663  14.113  0.0636 -0.7640 -0.9167
   7823SM     N10257   1.532   7.076  16.669 -0.0280  0.4765  0.2326
   7823SM   C1510258   1.394   7.126  16.657 -0.4033  0.0639  0.0397
   7823SM  H15A10259   1.394   7.220  16.604  3.4873  0.1755 -0.0406
   7823SM  H15B10260   1.343   7.164  16.744 -2.1510 -2.6685  0.3277
   7823SM  H15C10261   1.327   7.055  16.611  0.7913 -0.3157 -1.2015
   7823SM   C1410262   1.629   7.168  16.718  0.0305 -0.1582  0.1218
   7823SM  H14A10263   1.611   7.191  16.823 -0.2530  0.9061 -0.1464
   7823SM  H14B10264   1.625   7.255  16.656 -1.5534 -0.0837  0.2867
   7823SM  H14C10265   1.730   7.130  16.718  0.5531  1.1512  1.1208
   7823SM   C1310266   1.532   6.952  16.745  0.7981  0.1694  0.2092
   7823SM  H13A10267   1.625   6.899  16.746  0.2392 -0.8485 -0.4421
   7823SM  H13B10268   1.459   6.883  16.706  0.9853 -0.5968  1.1645
   7823SM  H13C10269   1.503   6.967  16.848  2.7040 -2.0277  1.1370
   7823SM   C1210270   1.576   7.034  16.525 -0.8414  0.2331 -0.3302
   7823SM  H12A10271   1.682   7.011  16.519 -0.8178  0.4318 -0.7263
   7823SM  H12B10272   1.574   7.118  16.458  0.6707  0.4544 -0.1447
   7823SM   C1110273   1.494   6.922  16.462 -0.3389  0.4702  0.6939
   7823SM  H11A10274   1.498   6.916  16.351 -0.3998 -2.5993  0.7883
   7823SM  H11B10275   1.386   6.936  16.484 -0.4984 -0.6074  0.6628
   7823SM     P10276   1.681   6.735  16.489 -0.3139 -0.0068  0.1612
   7823SM   O1310277   1.779   6.790  16.586 -0.9006  0.3130  0.7561
   7823SM   O1410278   1.671   6.591  16.478 -0.5137  0.1596 -1.0425
   7823SM   O1110279   1.715   6.785  16.348  0.1616  0.0040  0.7493
   7823SM   O1210280   1.539   6.795  16.518  0.0177  0.0202  0.4120
   7823SM   C1S10281   1.692   6.727  16.222  0.1307  0.0467 -0.1442
   7823SM   H1S10282   1.589   6.686  16.215 -1.0007  2.7324 -0.1613
   7823SM   H1T10283   1.762   6.642  16.205  0.2029  0.1991 -0.6303
   7823SM    NF10284   1.662   6.754  15.985  0.0413 -0.1446  0.4395
   7823SM   HNF10285   1.728   6.697  15.937  1.0104  0.4389  1.0572
   7823SM   C2S10286   1.702   6.823  16.099  0.2013 -0.2699 -0.8880
   7823SM   H2S10287   1.636   6.907  16.128 -1.4408 -1.9411  0.4468
   7823SM   C3S10288   1.843   6.875  16.095 -0.1639 -0.6311 -0.4787
   7823SM   H3S10289   1.913   6.796  16.060  1.3535 -0.7640  2.5101
   7823SM    O310290   1.900   6.927  16.218 -0.3411  0.0759 -0.1013
   7823SM   HO310291   1.845   6.891  16.288  0.2757 -1.0093 -0.1528
   7823SM   C4S10292   1.842   6.983  15.996  0.0915 -0.7134  0.6314
   7823SM   H4S10293   1.892   6.946  15.905 -1.9665 -0.3023 -0.7116
   7823SM   C5S10294   1.795   7.115  16.009 -0.9706 -0.2902 -0.1330
   7823SM   H5S10295   1.738   7.149  16.097 -0.0262 -0.8883  0.7243
   7823SM   C6S10296   1.815   7.216  15.901  0.4410  0.3232 -0.4875
   7823SM   H6S10297   1.889   7.280  15.952 -0.1067 -0.7519  1.7916
   7823SM   H6T10298   1.719   7.272  15.905  1.5729  2.5556 -2.1416
   7823SM   C7S10299   1.867   7.172  15.767  0.0507  0.3011 -0.0786
   7823SM   H7S10300   1.953   7.101  15.772  0.0496  0.1947 -1.2694
   7823SM   H7T10301   1.903   7.256  15.704 -0.1591 -1.3303 -2.5163
   7823SM   C8S10302   1.757   7.105  15.678  0.3272  0.0505 -0.7976
   7823SM   H8S10303   1.672   7.176  15.687  1.0959  0.9554 -0.5336
   7823SM   H8T10304   1.717   7.005  15.707 -0.7864 -0.0214 -2.4326
   7823SM   C9S10305   1.801   7.084  15.536 -1.0446  0.4439  0.3104
   7823SM   H9S10306   1.865   6.993  15.532 -0.2156  0.9324  1.8519
   7823SM   H9T10307   1.872   7.162  15.503 -0.5364 -0.5190 -0.9688
   7823SM  C10S10308   1.682   7.069  15.442 -0.5897  0.3279  0.0111
   7823SM  H10S10309   1.612   7.153  15.457  0.2006  0.9952  0.0378
   7823SM  H10T10310   1.625   6.975  15.460  1.7430 -0.8623  1.9133
   7823SM  C11S10311   1.736   7.055  15.295  0.3007 -0.4462  0.1172
   7823SM  H11S10312   1.792   6.960  15.302  0.5614 -0.2777  0.3789
   7823SM  H11T10313   1.820   7.125  15.274  0.1634  0.1714  1.5098
   7823SM  C12S10314   1.628   7.051  15.192 -0.0747  0.0809  0.4935
   7823SM  H12S10315   1.549   7.123  15.223 -0.7237 -0.7986  0.9291
   7823SM  H12T10316   1.575   6.954  15.207  1.0784 -0.7358 -0.5192
   7823SM  C13S10317   1.673   7.038  15.048 -0.0481 -0.0986  0.4755
   7823SM  H13S10318   1.740   6.950  15.045 -1.0953 -0.9049 -1.6867
   7823SM  H13T10319   1.738   7.127  15.033 -0.4101  0.3249  1.3475
   7823SM  C14S10320   1.549   7.021  14.960  0.5162  0.3946 -0.4088
   7823SM  H14S10321   1.492   7.116  14.967 -0.2117  0.0255 -1.1535
   7823SM  H14T10322   1.483   6.945  15.006 -0.4283  0.6733 -1.2710
   7823SM  C15S10323   1.585   6.986  14.817 -0.2396  0.5013 -0.3114
   7823SM  H15S10324   1.484   6.973  14.771 -0.0038  1.1580 -1.0524
   7823SM  H15T10325   1.633   6.886  14.812 -1.2605 -0.1907  2.2466
   7823SM  C16S10326   1.660   7.096  14.735 -0.4775  0.3727  0.0231
   7823SM  H16S10327   1.753   7.112  14.793 -0.6470 -2.2093  1.1014
   7823SM  H16T10328   1.618   7.198  14.718  0.8018  0.7092 -1.3569
   7823SM  C17S10329   1.702   7.036  14.603  0.2476  0.4961 -0.1711
   7823SM  H17S10330   1.612   7.027  14.539  1.6043 -1.4277 -1.9389
   7823SM  H17T10331   1.747   6.935  14.620 -0.8070  0.3754  2.3149
   7823SM  C18S10332   1.802   7.115  14.523  0.1111  0.3102  0.1871
   7823SM  H18S10333   1.742   7.205  14.495 -3.2170 -1.4279  1.1621
   7823SM  H18T10334   1.826   7.063  14.428 -1.5256 -0.0792 -0.0417
   7823SM  H18U10335   1.890   7.127  14.590 -0.0979  0.2686  0.4711
   7823SM   C1F10336   1.534   6.737  15.962 -1.0459 -0.2088 -0.2268
   7823SM    OF10337   1.446   6.773  16.035  0.0467  0.4671 -0.3601
   7823SM   C2F10338   1.512   6.677  15.825  0.7179  0.1293  0.4167
   7823SM   H2F10339   1.440   6.592  15.823  1.3313 -0.4795  2.2853
   7823SM   H2G10340   1.605   6.641  15.775  0.8801 -0.7570  1.3106
   7823SM   C3F10341   1.440   6.781  15.733 -0.2948 -0.0982  0.6249
   7823SM   H3F10342   1.493   6.878  15.748 -1.3934  0.3118  2.1189
   7823SM   H3G10343   1.337   6.802  15.769 -0.2728  0.7162  0.2254
   7823SM   C4F10344   1.435   6.724  15.586  0.2975 -0.0207  0.1527
   7823SM   H4F10345   1.371   6.632  15.585 -0.3172  0.4030  0.0076
   7823SM   H4G10346   1.537   6.697  15.551  0.2501  2.0202 -1.7486
   7823SM   C5F10347   1.375   6.828  15.492  0.1623 -0.0057 -0.3505
   7823SM   H5F10348   1.439   6.840  15.403 -1.6331  1.3490 -1.5221
   7823SM   H5G10349   1.379   6.928  15.540 -2.8217  0.5473 -1.0709
   7823SM   C6F10350   1.237   6.783  15.440  1.4184 -0.5627  0.2869
   7823SM   H6F10351   1.171   6.794  15.529 -0.6575  0.8148 -1.3390
   7823SM   H6G10352   1.241   6.677  15.409 -2.2595 -0.9424  0.6579
   7823SM   C7F10353   1.190   6.882  15.325  0.5284 -0.4944 -0.3288
   7823SM   H7F10354   1.267   6.886  15.245  2.0675  0.3737  1.1376
   7823SM   H7G10355   1.198   6.979  15.378 -1.6587  0.3795 -1.4645
   7823SM   C8F10356   1.056   6.852  15.261 -0.6439  0.0273  0.3304
   7823SM   H8F10357   1.040   6.938  15.192 -0.3517 -0.0809  0.1271
   7823SM   H8G10358   0.989   6.849  15.350 -1.6402  0.1987 -0.3930
   7823SM   C9F10359   1.053   6.701  15.206  0.3211 -0.1761 -0.1056
   7823SM   H9F10360   1.072   6.641  15.298  2.2272  0.9045  0.2616
   7823SM   H9G10361   1.137   6.692  15.134  0.9282 -0.9117  0.6693
   7823SM  C10F10362   0.934   6.651  15.117 -0.0976  0.2828 -0.1916
   7823SM  H10F10363   0.932   6.709  15.022 -0.8684  5.3347  2.5573
   7823SM  H10G10364   0.841   6.675  15.174 -1.2705  2.4006 -2.7548
   7823SM  C11F10365   0.913   6.501  15.087 -0.3834  0.1760 -0.5332
   7823SM  H11F10366   0.804   6.479  15.090 -0.0888 -1.2531  0.4225
   7823SM  H11G10367   0.960   6.444  15.170 -1.4549 -1.6762 -1.1459
   7823SM  C12F10368   0.974   6.444  14.950  0.7089 -0.0052 -0.8601
   7823SM  H12F10369   1.016   6.346  14.982  1.1601  0.9279  1.7107
   7823SM  H12G10370   1.062   6.502  14.916  1.4823 -0.6313  0.0241
   7823SM  C13F10371   0.875   6.435  14.831 -0.2259 -0.0416 -0.5873
   7823SM  H13F10372   0.949   6.409  14.752  1.6145  1.8448  0.4064
   7823SM  H13G10373   0.832   6.535  14.812 -1.5140 -0.2124  1.1873
   7823SM  C14F10374   0.760   6.344  14.857  0.4615 -0.1467 -0.2815
   7823SM  H14F10375   0.688   6.388  14.930 -3.2325 -1.5159 -2.7768
   7823SM  H14G10376   0.796   6.251  14.908 -0.2291  1.5157  3.6042
   7823SM  C15F10377   0.669   6.317  14.735  0.5322  0.3376 -0.0746
   7823SM  H15F10378   0.723   6.286  14.643 -2.0146  0.5856 -1.7567
   7823SM  H15G10379   0.615   6.406  14.697  0.4053  0.1780 -0.2713
   7823SM  C16F10380   0.566   6.208  14.769  1.0590 -0.0519 -0.3445
   7823SM  H16F10381   0.606   6.105  14.784  0.0989 -0.4978 -0.7248
   7823SM  H16G10382   0.503   6.190  14.680 -0.1319 -1.0350  0.6421
   7823SM  C17F10383   0.477   6.264  14.881  0.2243  0.2818 -0.3024
   7823SM  H17F10384   0.373   6.235  14.853  1.0355 -1.3386 -1.7988
   7823SM  H17G10385   0.469   6.375  14.883 -1.8034  0.1968 -0.6456
   7823SM  C18F10386   0.503   6.208  15.024  0.1738  1.0908 -0.1471
   7823SM  H18F10387   0.605   6.165  15.017 -2.1363 -5.2353 -1.2863
   7823SM  H18G10388   0.450   6.111  15.036  1.7328  0.1793 -0.3783
   7823SM  C19F10389   0.479   6.308  15.143  0.0710  0.0747 -0.1110
   7823SM  H19F10390   0.524   6.407  15.120  0.7916  0.1048  1.2747
   7823SM  H19G10391   0.539   6.255  15.221 -2.0181 -0.5689  1.1508
   7823SM  C20F10392   0.330   6.302  15.185  0.8393  0.2916  0.3043
   7823SM  H20F10393   0.297   6.197  15.201 -4.3086  1.5291 -0.4656
   7823SM  H20G10394   0.273   6.340  15.098  0.0484 -1.9310 -0.2116
   7823SM  C21F10395   0.304   6.386  15.314  0.3878  0.5859 -0.3356
   7823SM  H21F10396   0.345   6.488  15.297  0.6387  0.2656 -1.8161
   7823SM  H21G10397   0.339   6.341  15.409 -0.2002 -0.2581 -0.5089
   7823SM  C22F10398   0.152   6.396  15.339  0.1809 -0.2521 -0.4441
   7823SM  H22F10399   0.102   6.296  15.341  0.8852 -0.6021  1.1409
   7823SM  H22G10400   0.119   6.457  15.253 -0.6676  2.1214  1.4431
   7823SM  C23F10401   0.116   6.470  15.473 -0.1933 -0.3066  0.1041
   7823SM  H23F10402   0.082   6.415  15.563  0.2383  1.0132  1.0964
   7823SM  H23G10403   0.030   6.537  15.453  0.5848  0.5949 -0.2980
   7823SM  H23H10404   0.206   6.527  15.501 -0.9175  0.5588  0.7033
   7923SM     N10405   6.814   0.281  16.613  0.1713 -0.0142  0.5766
   7923SM   C1510406   6.864   0.201  16.738 -0.1344  0.5039  0.0652
   7923SM  H15A10407   6.820   0.103  16.735 -0.4339  0.6123 -3.3280
   7923SM  H15B10408   6.834   0.264  16.820  0.0798  2.5581 -1.3548
   7923SM  H15C10409   6.971   0.194  16.741 -0.0305  2.1114  1.3320
   7923SM   C1410410   6.663   0.272  16.623 -0.3829 -0.2949 -0.2362
   7923SM  H14A10411   6.613   0.339  16.554 -0.9640 -0.2481  0.2193
   7923SM  H14B10412   6.636   0.291  16.726  1.4468  0.4473  0.1382
   7923SM  H14C10413   6.633   0.171  16.603  1.5335 -0.7502 -1.0095
   7923SM   C1310414   6.855   0.421  16.624 -1.0679 -0.0548  0.2889
   7923SM  H13A10415   6.805   0.480  16.698 -1.0473  1.9032 -1.1851
   7923SM  H13B10416   6.841   0.473  16.531  1.0353  3.3155  1.6903
   7923SM  H13C10417   6.957   0.425  16.659 -1.5455 -1.5327  1.9914
   7923SM   C1210418   6.859   0.221  16.479  0.4805  0.1521 -0.3331
   7923SM  H12A10419   6.803   0.275  16.404 -1.1842  0.1788  0.8679
   7923SM  H12B10420   6.820   0.120  16.473  0.4374 -0.1562  3.0295
   7923SM   C1110421   7.009   0.219  16.460 -0.5438 -1.0119 -0.9679
   7923SM  H11A10422   7.030   0.159  16.368  1.8800 -0.1001 -1.0793
   7923SM  H11B10423   7.054   0.167  16.547 -1.8730 -0.4046  0.1299
   7923SM     P10424   7.211   0.384  16.405 -0.2771  0.1539  0.3741
   7923SM   O1310425   7.224   0.530  16.375  0.7508 -0.6004 -0.0320
   7923SM   O1410426   7.305   0.328  16.507 -0.1903  0.1730 -0.0283
   7923SM   O1110427   7.237   0.299  16.279  0.5940 -0.3893  0.4180
   7923SM   O1210428   7.061   0.357  16.446 -0.5755  0.4486  1.1728
   7923SM   C1S10429   7.172   0.340  16.153  0.4720 -0.4183 -0.4473
   7923SM   H1S10430   7.184   0.447  16.129  1.9809 -0.8184 -1.5837
   7923SM   H1T10431   7.062   0.325  16.161  0.2109  1.2639 -0.5792
   7923SM    NF10432   7.184   0.323  15.910  0.2078  0.2062  0.1146
   7923SM   HNF10433   7.113   0.270  15.864  1.0291 -1.5295  0.7785
   7923SM   C2S10434   7.227   0.261  16.038  0.2138 -0.8312  0.1946
   7923SM   H2S10435   7.337   0.252  16.050  0.4702  0.2765 -1.0382
   7923SM   C3S10436   7.174   0.117  16.060 -0.2340  0.0263  0.0423
   7923SM   H3S10437   7.064   0.117  16.068 -0.2253 -1.4797  0.4592
   7923SM    O310438   7.211   0.049  16.181 -0.7758  0.1204  0.0043
   7923SM   HO310439   7.237   0.124  16.235  0.3418  0.7545 -1.3623
   7923SM   C4S10440   7.214   0.037  15.939  0.2389 -0.1452 -0.5686
   7923SM   H4S10441   7.142   0.037  15.857  0.1044 -0.1793 -0.4506
   7923SM   C5S10442   7.303  -0.059  15.941 -0.3798  0.4470  0.1032
   7923SM   H5S10443   7.355  -0.085  16.034  1.8539  0.5217 -1.0551
   7923SM   C6S10444   7.350  -0.150  15.830  0.1347 -1.0069 -0.2439
   7923SM   H6S10445   7.320  -0.256  15.849 -1.3382 -0.8500 -1.4420
   7923SM   H6T10446   7.459  -0.151  15.809 -0.1335  0.2336 -1.8573
   7923SM   C7S10447   7.281  -0.128  15.690 -0.4881 -0.4177 -0.2315
   7923SM   H7S10448   7.288  -0.021  15.662  1.8396 -0.6497 -0.7813
   7923SM   H7T10449   7.176  -0.160  15.703 -1.3754  1.3421 -2.3089
   7923SM   C8S10450   7.347  -0.211  15.578  1.0843  0.5281  0.4744
   7923SM   H8S10451   7.349  -0.317  15.613 -1.0337  1.2360  3.1233
   7923SM   H8T10452   7.453  -0.180  15.569  1.2168  0.3868  1.4391
   7923SM   C9S10453   7.280  -0.189  15.438 -0.1861  0.0557 -0.0101
   7923SM   H9S10454   7.272  -0.082  15.408 -2.2142 -0.1469 -0.3845
   7923SM   H9T10455   7.178  -0.232  15.445  0.3701 -1.0235  2.6767
   7923SM  C10S10456   7.348  -0.265  15.322 -0.2463 -0.1226 -0.0881
   7923SM  H10S10457   7.351  -0.373  15.347  0.1781 -0.1007 -0.0420
   7923SM  H10T10458   7.451  -0.227  15.304  0.2718 -0.6954  1.5375
   7923SM  C11S10459   7.271  -0.236  15.188 -0.4776 -0.0466  0.1879
   7923SM  H11S10460   7.234  -0.131  15.182 -0.2952  0.0145  0.1492
   7923SM  H11T10461   7.182  -0.303  15.183 -1.0574  0.7393 -0.2764
   7923SM  C12S10462   7.347  -0.268  15.059 -0.2262  0.2764  0.0171
   7923SM  H12S10463   7.371  -0.376  15.068 -1.0183  0.2698  2.8225
   7923SM  H12T10464   7.439  -0.207  15.067  0.4853 -0.6635 -0.7366
   7923SM  C13S10465   7.266  -0.242  14.941 -0.1360 -0.6433 -0.4248
   7923SM  H13S10466   7.230  -0.137  14.940  1.5016 -0.0470  0.3828
   7923SM  H13T10467   7.172  -0.302  14.942 -1.4977  1.3770 -0.0714
   7923SM  C14S10468   7.335  -0.261  14.806 -0.6428  0.7504  0.2583
   7923SM  H14S10469   7.386  -0.359  14.797 -4.4572 -1.4127  0.0131
   7923SM  H14T10470   7.411  -0.180  14.811 -1.3720  1.4014  1.2747
   7923SM  C15S10471   7.240  -0.246  14.693  0.1858 -0.1858 -0.3739
   7923SM  H15S10472   7.164  -0.167  14.706  1.2564  0.7064  0.7407
   7923SM  H15T10473   7.174  -0.336  14.694 -0.9457  0.6197 -0.8733
   7923SM  C16S10474   7.309  -0.221  14.554  0.2512  0.1582 -0.1411
   7923SM  H16S10475   7.391  -0.292  14.532  0.4727  0.6915 -1.1145
   7923SM  H16T10476   7.355  -0.120  14.549 -1.7235  1.0706 -0.9187
   7923SM  C17S10477   7.208  -0.232  14.445  0.2212  0.8560  0.5541
   7923SM  H17S10478   7.232  -0.146  14.379  0.4231  1.4253  1.3553
   7923SM  H17T10479   7.107  -0.222  14.490 -0.4387 -2.1304 -0.0275
   7923SM  C18S10480   7.220  -0.365  14.358  0.3366  0.1815  0.2266
   7923SM  H18S10481   7.135  -0.379  14.288  2.1234 -1.0274 -1.8260
   7923SM  H18T10482   7.222  -0.459  14.419 -0.9867 -1.4216 -2.0557
   7923SM  H18U10483   7.313  -0.359  14.298 -0.5542 -1.3098 -1.3826
   7923SM   C1F10484   7.229   0.444  15.869 -0.3981  0.0413 -0.3351
   7923SM    OF10485   7.311   0.505  15.936 -0.0692  0.5288 -0.2350
   7923SM   C2F10486   7.167   0.500  15.744 -0.2544 -0.2218  0.7616
   7923SM   H2F10487   7.186   0.610  15.745 -1.1442 -0.0447 -0.2216
   7923SM   H2G10488   7.056   0.488  15.750 -0.1225 -1.3007  1.2031
   7923SM   C3F10489   7.226   0.443  15.611 -0.1015  0.0408  1.1638
   7923SM   H3F10490   7.203   0.335  15.600  1.8311 -0.1734 -2.2483
   7923SM   H3G10491   7.337   0.449  15.604 -0.2108  0.2724 -0.7569
   7923SM   C4F10492   7.168   0.501  15.480  0.3481  0.2877  0.2179
   7923SM   H4F10493   7.174   0.612  15.480  1.7288  0.2364 -0.5874
   7923SM   H4G10494   7.062   0.468  15.479  0.5591 -0.4403  0.7532
   7923SM   C5F10495   7.244   0.459  15.364 -0.6221 -0.0169 -0.2115
   7923SM   H5F10496   7.274   0.352  15.372  0.2216  0.1955 -0.4961
   7923SM   H5G10497   7.339   0.515  15.358 -0.1309 -0.8807 -0.8645
   7923SM   C6F10498   7.171   0.472  15.226  0.5066 -0.0199  0.3583
   7923SM   H6F10499   7.068   0.508  15.249 -0.4861 -3.1044  1.2390
   7923SM   H6G10500   7.156   0.378  15.168  0.6635 -0.4242  0.9637
   7923SM   C7F10501   7.249   0.570  15.139 -0.0634 -0.1963 -0.3552
   7923SM   H7F10502   7.334   0.519  15.087  0.5645 -0.8538  1.2414
   7923SM   H7G10503   7.302   0.646  15.200 -1.6489  0.3625  0.3672
   7923SM   C8F10504   7.154   0.642  15.041 -0.1577 -0.3104  0.4661
   7923SM   H8F10505   7.210   0.705  14.968  0.5411 -2.5812 -1.0572
   7923SM   H8G10506   7.082   0.705  15.098 -0.1232  0.7417 -0.6099
   7923SM   C9F10507   7.084   0.549  14.945  0.1604  0.0908  0.2952
   7923SM   H9F10508   7.009   0.488  15.000 -0.2680 -1.0495 -1.4562
   7923SM   H9G10509   7.161   0.475  14.915 -0.2917 -0.6673  1.0072
   7923SM  C10F10510   7.023   0.614  14.821 -0.0220  0.2298  0.4742
   7923SM  H10F10511   7.103   0.656  14.757 -0.4454 -0.7352 -0.7274
   7923SM  H10G10512   6.951   0.694  14.850 -0.6495 -0.5808  1.1746
   7923SM  C11F10513   6.946   0.499  14.740 -0.1713 -0.5660 -0.2193
   7923SM  H11F10514   6.871   0.448  14.805  0.5267 -1.3440  0.0039
   7923SM  H11G10515   7.023   0.427  14.705  1.7150  0.7721  0.9648
   7923SM  C12F10516   6.866   0.557  14.622  0.4394  0.5476 -0.5964
   7923SM  H12F10517   6.812   0.646  14.660  1.3217  0.3989  1.1106
   7923SM  H12G10518   6.802   0.470  14.598 -1.6438  1.5822  0.9525
   7923SM  C13F10519   6.944   0.600  14.497  0.0156 -0.0253  0.0994
   7923SM  H13F10520   6.990   0.501  14.474 -0.0539 -0.5358  1.9921
   7923SM  H13G10521   7.025   0.673  14.516  1.3287 -1.8785  2.1098
   7923SM  C14F10522   6.849   0.647  14.383 -0.1003  0.1789 -0.3855
   7923SM  H14F10523   6.775   0.722  14.419  0.1025  0.1215  0.1546
   7923SM  H14G10524   6.789   0.559  14.350 -3.0810  1.0824  2.0519
   7923SM  C15F10525   6.936   0.706  14.274 -0.3696 -0.2974  0.3687
   7923SM  H15F10526   7.010   0.628  14.247 -0.2781 -0.0918  0.0286
   7923SM  H15G10527   6.986   0.791  14.325  0.6643 -0.0461 -1.0287
   7923SM  C16F10528   6.872   0.738  14.143  0.2752  0.1274  0.0851
   7923SM  H16F10529   6.821   0.649  14.100 -0.1556 -0.3730  1.5706
   7923SM  H16G10530   6.963   0.757  14.082 -1.4677 -1.7754 -3.4206
   7923SM  C17F10531   6.774   0.857  14.133 -0.8746 -0.1901 -0.1199
   7923SM  H17F10532   6.820   0.953  14.164 -0.7239  0.2908 -1.7417
   7923SM  H17G10533   6.678   0.842  14.187 -0.7688 -0.3763  0.0164
   7923SM  C18F10534   6.722   0.884  13.985 -0.3608 -0.3896  0.1047
   7923SM  H18F10535   6.803   0.920  13.918  0.3702 -0.7172  0.8074
   7923SM  H18G10536   6.647   0.965  13.999 -0.4228 -0.6360  1.2351
   7923SM  C19F10537   6.657   0.761  13.918 -0.2062 -0.3364  0.0915
   7923SM  H19F10538   6.599   0.709  13.997  1.2096  0.7977  1.9583
   7923SM  H19G10539   6.740   0.689  13.900  3.7958  3.5824  1.0331
   7923SM  C20F10540   6.595   0.792  13.786  0.1002  0.6488  1.1689
   7923SM  H20F10541   6.534   0.884  13.791  0.9622  1.4379 -1.2349
   7923SM  H20G10542   6.516   0.718  13.760  1.1370  0.2791 -1.1925
   7923SM  C21F10543   6.686   0.804  13.662  0.0609 -0.3801 -0.7460
   7923SM  H21F10544   6.746   0.712  13.650  0.8724 -0.0635  0.7454
   7923SM  H21G10545   6.759   0.887  13.672  0.1648 -0.6913  1.4304
   7923SM  C22F10546   6.601   0.833  13.528 -0.5333  0.2627 -0.1439
   7923SM  H22F10547   6.555   0.933  13.542  0.2116  1.1067 -2.9650
   7923SM  H22G10548   6.512   0.769  13.512  0.3297 -0.5240 -2.1919
   7923SM  C23F10549   6.683   0.819  13.399  0.3633 -0.2588  0.1644
   7923SM  H23F10550   6.765   0.895  13.403  0.8141 -0.7915  1.4000
   7923SM  H23G10551   6.626   0.850  13.309  2.5801  1.0324 -0.9061
   7923SM  H23H10552   6.724   0.718  13.377 -0.5236 -0.2590 -1.7438
   8023SM     N10553   0.992   6.476  16.852 -0.0772  0.5107 -1.3927
   8023SM   C1510554   0.992   6.598  16.945  1.0423  0.4257 -0.3676
   8023SM  H15A10555   0.936   6.680  16.900  0.6324 -0.0303 -0.7025
   8023SM  H15B10556   1.093   6.635  16.945  0.6723  1.4884 -0.4972
   8023SM  H15C10557   0.979   6.592  17.052  0.9114 -0.4509 -0.4262
   8023SM   C1410558   1.071   6.368  16.912 -0.4807  0.0311  0.0939
   8023SM  H14A10559   1.175   6.396  16.908 -1.2708  3.2971 -3.1594
   8023SM  H14B10560   1.054   6.274  16.862  0.8675 -0.3261  0.2868
   8023SM  H14C10561   1.045   6.347  17.015 -1.5113 -0.5541 -0.2670
   8023SM   C1310562   0.845   6.424  16.852  0.1511 -0.4866 -0.6807
   8023SM  H13A10563   0.825   6.346  16.779 -1.4101 -0.4892 -0.2919
   8023SM  H13B10564   0.777   6.506  16.836  0.7402 -0.1165 -1.3588
   8023SM  H13C10565   0.827   6.384  16.950  1.1206  0.0908 -0.2567
   8023SM   C1210566   1.042   6.499  16.716 -0.1790  0.2029 -0.2528
   8023SM  H12A10567   1.041   6.402  16.667  1.4128  0.3726 -0.6630
   8023SM  H12B10568   1.144   6.532  16.724 -0.4256  1.0177 -0.3245
   8023SM   C1110569   0.974   6.604  16.634  0.3609 -0.0102 -0.4976
   8023SM  H11A10570   0.864   6.591  16.634  0.0030  2.2838  1.6460
   8023SM  H11B10571   1.011   6.608  16.529  3.4170  1.5160  0.5011
   8023SM     P10572   1.140   6.806  16.672  0.1101 -0.3773  0.2519
   8023SM   O1310573   1.142   6.925  16.764  0.5421  0.0153 -0.2470
   8023SM   O1410574   1.254   6.713  16.691 -0.2287 -0.3034  0.3189
   8023SM   O1110575   1.146   6.859  16.521  0.3114  0.1115  0.3096
   8023SM   O1210576   0.998   6.730  16.691 -0.3563 -0.3414 -0.8721
   8023SM   C1S10577   1.027   6.931  16.476  0.3363 -0.0500  0.1493
   8023SM   H1S10578   1.033   7.030  16.525 -3.3637 -0.4280  1.6967
   8023SM   H1T10579   0.929   6.879  16.487  0.8147 -1.0136  0.0268
   8023SM    NF10580   0.933   7.039  16.261  0.1669 -0.1008 -0.1732
   8023SM   HNF10581   0.857   7.005  16.206 -1.1938  0.0024  1.5397
   8023SM   C2S10582   1.034   6.950  16.322  0.0948  0.0869  0.5106
   8023SM   H2S10583   1.137   6.986  16.304  0.3483 -0.6253  0.4741
   8023SM   C3S10584   1.026   6.800  16.252  0.7770  0.4758 -0.4853
   8023SM   H3S10585   0.931   6.748  16.274  2.2045 -2.2419 -0.2424
   8023SM    O310586   1.134   6.726  16.292 -0.2991  0.2592  0.3917
   8023SM   HO310587   1.149   6.745  16.385 -1.1171  0.7378  0.4354
   8023SM   C4S10588   1.038   6.821  16.105 -0.2386 -0.0503  0.9645
   8023SM   H4S10589   1.137   6.860  16.078 -0.2297  0.7212  2.0512
   8023SM   C5S10590   0.938   6.807  16.012  0.1205  0.2637 -0.2300
   8023SM   H5S10591   0.839   6.767  16.041 -0.0551  2.1575  2.0901
   8023SM   C6S10592   0.964   6.836  15.872 -0.2898  0.2894 -0.1740
   8023SM   H6S10593   0.925   6.753  15.810 -1.3085  1.5836 -1.3136
   8023SM   H6T10594   1.071   6.838  15.843  0.7031  0.7300  3.0793
   8023SM   C7S10595   0.899   6.968  15.828  0.2344  0.0469 -0.3188
   8023SM   H7S10596   0.945   7.056  15.876 -1.1914  0.4306  0.4041
   8023SM   H7T10597   0.789   6.972  15.844  0.1268 -0.4595 -0.8667
   8023SM   C8S10598   0.910   6.993  15.674 -0.2608  0.2166 -0.2556
   8023SM   H8S10599   0.880   6.898  15.625  0.5585 -0.1712 -0.0281
   8023SM   H8T10600   1.018   7.005  15.651  0.4334  0.1389  2.5818
   8023SM   C9S10601   0.830   7.102  15.618  0.4027  0.0576  0.2742
   8023SM   H9S10602   0.839   7.197  15.673  1.3749  0.7437 -1.0091
   8023SM   H9T10603   0.722   7.076  15.615  0.5457 -0.5227 -0.2982
   8023SM  C10S10604   0.872   7.127  15.474 -0.4007  0.2861 -0.7001
   8023SM  H10S10605   0.817   7.053  15.412  0.1067 -0.0378 -0.7663
   8023SM  H10T10606   0.981   7.114  15.459 -0.2486 -1.3317  1.3601
   8023SM  C11S10607   0.825   7.261  15.432 -0.2198  0.5206  0.0592
   8023SM  H11S10608   0.869   7.345  15.491 -1.8183 -0.7511  3.3090
   8023SM  H11T10609   0.715   7.260  15.442 -0.3496 -1.6537 -0.9758
   8023SM  C12S10610   0.841   7.298  15.279 -0.2927  0.8705 -0.0873
   8023SM  H12S10611   0.948   7.307  15.247 -0.7048  1.2750 -1.4401
   8023SM  H12T10612   0.810   7.405  15.274  1.1520  1.4955  2.4336
   8023SM  C13S10613   0.762   7.204  15.187  0.0186 -0.1112 -0.7955
   8023SM  H13S10614   0.661   7.201  15.235  0.1481 -1.4910 -0.5590
   8023SM  H13T10615   0.797   7.099  15.200  1.0013  0.0101 -2.3290
   8023SM  C14S10616   0.751   7.242  15.039  0.4966  0.6521  0.0648
   8023SM  H14S10617   0.690   7.335  15.046 -0.8797 -0.2949  1.0687
   8023SM  H14T10618   0.694   7.157  14.995  3.1915 -0.5309 -1.3469
   8023SM  C15S10619   0.884   7.265  14.964  0.1906  0.6937 -0.1860
   8023SM  H15S10620   0.949   7.342  15.011 -1.5303  0.8581  2.1008
   8023SM  H15T10621   0.869   7.308  14.863 -2.9394 -0.8032 -0.4783
   8023SM  C16S10622   0.958   7.126  14.950 -0.5191 -0.3848  0.7199
   8023SM  H16S10623   0.879   7.049  14.942 -0.7233 -0.1128  0.0768
   8023SM  H16T10624   1.016   7.112  15.044  0.7050  0.2111  0.0768
   8023SM  C17S10625   1.056   7.115  14.837  0.0149  0.5503 -0.0567
   8023SM  H17S10626   1.120   7.205  14.835  0.0026  0.5625  0.0820
   8023SM  H17T10627   1.001   7.123  14.741  0.7975  0.8794 -0.4821
   8023SM  C18S10628   1.142   6.979  14.830  0.1178 -0.3038 -0.3074
   8023SM  H18S10629   1.142   6.930  14.930 -0.4379  0.6493  0.1731
   8023SM  H18T10630   1.247   7.004  14.805  0.1585 -1.2000 -1.0839
   8023SM  H18U10631   1.114   6.906  14.751 -0.0139  0.3714 -0.8887
   8023SM   C1F10632   0.944   7.168  16.276  0.4532  0.2129  0.0398
   8023SM    OF10633   1.031   7.216  16.346 -0.3113 -0.3277 -0.6370
   8023SM   C2F10634   0.842   7.247  16.205  0.4122  0.2957 -0.2333
   8023SM   H2F10635   0.747   7.238  16.261  0.8926 -1.4034  0.3631
   8023SM   H2G10636   0.819   7.203  16.106 -0.8229 -1.1272  0.6602
   8023SM   C3F10637   0.891   7.391  16.175  0.1159  0.2910 -0.0277
   8023SM   H3F10638   0.987   7.380  16.120  0.0599 -1.2431  0.1475
   8023SM   H3G10639   0.919   7.449  16.265  2.2929  0.7961 -0.9681
   8023SM   C4F10640   0.787   7.481  16.099 -0.8432 -0.4085  0.2120
   8023SM   H4F10641   0.798   7.580  16.149  2.2904 -0.3619 -0.3440
   8023SM   H4G10642   0.686   7.442  16.123 -0.3031 -0.3934  2.8103
   8023SM   C5F10643   0.821   7.480  15.947  1.3104 -0.0635  0.0314
   8023SM   H5F10644   0.825   7.374  15.913 -0.7485 -0.3810  0.6806
   8023SM   H5G10645   0.904   7.544  15.910 -0.1209  1.5281 -0.5060
   8023SM   C6F10646   0.696   7.550  15.882 -0.7376  0.8239 -0.0808
   8023SM   H6F10647   0.711   7.660  15.885 -1.1482  0.8676  0.6254
   8023SM   H6G10648   0.604   7.522  15.937 -0.2882 -0.7731 -0.0897
   8023SM   C7F10649   0.685   7.514  15.732 -0.2708  0.3603 -0.1675
   8023SM   H7F10650   0.664   7.406  15.718 -0.3205  0.1128  1.6593
   8023SM   H7G10651   0.783   7.520  15.678  0.1547 -1.0283  0.4169
   8023SM   C8F10652   0.583   7.605  15.659 -0.3495 -0.3570  1.0471
   8023SM   H8F10653   0.640   7.701  15.653  2.8428 -2.0459  1.8901
   8023SM   H8G10654   0.491   7.606  15.721 -0.1269  0.4382  1.3814
   8023SM   C9F10655   0.544   7.566  15.520 -0.5395 -0.4333 -0.3906
   8023SM   H9F10656   0.467   7.487  15.528 -1.2855  0.3632  0.4718
   8023SM   H9G10657   0.637   7.517  15.483 -0.0946 -0.8246  1.1843
   8023SM  C10F10658   0.513   7.676  15.415  0.5983  0.4304  0.1824
   8023SM  H10F10659   0.597   7.747  15.429  0.2732  0.6800  0.9452
   8023SM  H10G10660   0.412   7.718  15.435  0.3437  0.1532 -0.4892
   8023SM  C11F10661   0.518   7.623  15.273  0.3788 -0.6750 -0.4814
   8023SM  H11F10662   0.448   7.539  15.253 -1.0805  0.0803  1.2090
   8023SM  H11G10663   0.621   7.582  15.270  1.0008  0.7289  0.7596
   8023SM  C12F10664   0.511   7.726  15.165  0.0760 -1.3371  0.7391
   8023SM  H12F10665   0.616   7.762  15.160 -0.1096 -0.7020  1.2176
   8023SM  H12G10666   0.451   7.804  15.216 -0.3062 -0.7176 -0.6224
   8023SM  C13F10667   0.463   7.668  15.033 -0.3159  0.1427 -1.0506
   8023SM  H13F10668   0.351   7.670  15.034 -0.3901  0.6277  2.9461
   8023SM  H13G10669   0.490   7.561  15.040 -0.4726  0.2270  1.6739
   8023SM  C14F10670   0.537   7.723  14.910  0.3218  0.0569 -0.7050
   8023SM  H14F10671   0.646   7.718  14.929  0.7587  0.8364 -2.8004
   8023SM  H14G10672   0.499   7.828  14.907  0.1700  0.1380  1.6569
   8023SM  C15F10673   0.497   7.659  14.780  0.5822 -0.0329 -0.1443
   8023SM  H15F10674   0.386   7.666  14.778  0.6058  0.4493 -2.3819
   8023SM  H15G10675   0.530   7.553  14.780 -0.4504 -0.4006  2.0459
   8023SM  C16F10676   0.540   7.740  14.654 -0.4750  0.9736 -0.8130
   8023SM  H16F10677   0.498   7.843  14.650  0.1433  1.2045 -2.2324
   8023SM  H16G10678   0.501   7.683  14.566 -1.2968 -2.7030  1.7259
   8023SM  C17F10679   0.691   7.754  14.635  0.1099 -0.3252 -0.6468
   8023SM  H17F10680   0.740   7.655  14.636  1.2536  0.2193 -1.2664
   8023SM  H17G10681   0.726   7.813  14.723 -2.7237 -0.0004  0.3809
   8023SM  C18F10682   0.733   7.817  14.501  0.2377 -0.4467 -0.9106
   8023SM  H18F10683   0.692   7.917  14.477 -1.6915 -1.6113 -2.7912
   8023SM  H18G10684   0.692   7.753  14.420  0.6838 -3.3294  0.9758
   8023SM  C19F10685   0.884   7.819  14.480  0.7971 -0.3181 -0.4794
   8023SM  H19F10686   0.923   7.755  14.562  2.8280  0.5000 -0.7578
   8023SM  H19G10687   0.936   7.917  14.476  1.7592 -0.8085 -0.1170
   8023SM  C20F10688   0.923   7.746  14.349 -0.0762  0.7420 -0.4886
   8023SM  H20F10689   0.908   7.817  14.265  1.5800  0.4841 -1.0418
   8023SM  H20G10690   0.866   7.651  14.339  0.9468  0.1161 -0.5264
   8023SM  C21F10691   1.081   7.712  14.348 -0.3608  0.3489  0.4128
   8023SM  H21F10692   1.103   7.660  14.444  1.9184 -0.0196 -0.2348
   8023SM  H21G10693   1.139   7.806  14.361  0.4667 -0.2088  0.8548
   8023SM  C22F10694   1.139   7.629  14.219 -0.3089  0.4982 -0.4009
   8023SM  H22F10695   1.132   7.683  14.123  0.0334 -0.0534 -0.7416
   8023SM  H22G10696   1.069   7.545  14.203 -0.2089  0.7229 -2.1161
   8023SM  C23F10697   1.277   7.573  14.239 -0.3693  0.4930 -0.7576
   8023SM  H23F10698   1.314   7.516  14.152 -0.6648  0.2565 -0.7300
   8023SM  H23G10699   1.267   7.500  14.322 -2.2484 -0.2429 -1.5714
   8023SM  H23H10700   1.345   7.659  14.255 -0.0095  0.0199  0.3524
   8123SM     N10701   4.308   3.691  12.055 -0.0284 -0.2943 -0.9266
   8123SM   C1510702   4.439   3.708  12.118  0.8533  0.6353  0.1117
   8123SM  H15A10703   4.507   3.646  12.062 -1.1243 -0.2961 -1.4062
   8123SM  H15B10704   4.431   3.668  12.218 -0.4273  2.4280  0.8021
   8123SM  H15C10705   4.477   3.809  12.109  0.5324  0.6645 -1.0573
   8123SM   C1410706   4.210   3.779  12.129  0.6613  0.0599 -0.3709
   8123SM  H14A10707   4.244   3.881  12.138  0.6066 -0.1165  3.9803
   8123SM  H14B10708   4.188   3.751  12.231  0.9989  1.0702 -0.0114
   8123SM  H14C10709   4.116   3.787  12.077  0.4442  0.1079  0.0235
   8123SM   C1310710   4.319   3.736  11.911 -0.4723 -0.1631 -0.2268
   8123SM  H13A10711   4.349   3.840  11.909  0.0934 -0.2850 -3.2379
   8123SM  H13B10712   4.225   3.730  11.857 -1.3858  1.9174  0.9674
   8123SM  H13C10713   4.396   3.682  11.859  0.0339 -2.0095  2.2614
   8123SM   C1210714   4.263   3.547  12.052  0.3396  0.6859 -0.4832
   8123SM  H12A10715   4.299   3.505  12.145  1.0915  3.8588  0.7987
   8123SM  H12B10716   4.314   3.506  11.967 -2.1199 -0.3982 -1.5512
   8123SM   C1110717   4.114   3.510  12.045  0.0716  0.0177 -0.5459
   8123SM  H11A10718   4.072   3.546  12.141 -0.7053 -1.8634 -0.1291
   8123SM  H11B10719   4.110   3.399  12.035 -2.1598  0.0875 -0.9153
   8123SM     P10720   3.931   3.633  11.907 -0.0695 -0.0880  0.0692
   8123SM   O1310721   3.934   3.766  11.837 -0.0152  0.5783 -0.5530
   8123SM   O1410722   3.832   3.529  11.865  0.0232 -0.0354  0.1985
   8123SM   O1110723   3.902   3.671  12.062 -0.2410  0.2074  0.3319
   8123SM   O1210724   4.072   3.562  11.918  0.0567 -0.8931 -0.3790
   8123SM   C1S10725   3.789   3.617  12.128 -0.0244 -0.1671  0.3844
   8123SM   H1S10726   3.789   3.506  12.141 -2.7516 -0.1673  0.9544
   8123SM   H1T10727   3.696   3.646  12.075  0.3345 -0.7448 -0.5751
   8123SM    NF10728   3.667   3.604  12.344 -0.2135  0.1728 -0.1174
   8123SM   HNF10729   3.591   3.667  12.363 -0.5125  0.5549 -2.2820
   8123SM   C2S10730   3.778   3.670  12.275 -0.3168 -0.4226  0.2018
   8123SM   H2S10731   3.875   3.649  12.324 -1.2850 -2.2440  1.4447
   8123SM   C3S10732   3.755   3.821  12.276  0.2131 -0.2179 -0.2882
   8123SM   H3S10733   3.650   3.839  12.243 -0.4861 -1.0113  1.3963
   8123SM    O310734   3.833   3.906  12.202 -0.0653  0.0871 -0.0679
   8123SM   HO310735   3.889   3.846  12.151 -1.1352  2.0442 -3.9541
   8123SM   C4S10736   3.761   3.870  12.413  0.4924  0.3769 -0.5265
   8123SM   H4S10737   3.662   3.892  12.455  0.6187 -0.6336  0.3447
   8123SM   C5S10738   3.877   3.901  12.481  0.6730 -0.3365  0.1406
   8123SM   H5S10739   3.975   3.897  12.432  1.5234  0.9575  1.6663
   8123SM   C6S10740   3.873   3.943  12.627 -0.2694  0.2031  0.5283
   8123SM   H6S10741   3.910   4.047  12.639 -1.2073  0.2835  3.2319
   8123SM   H6T10742   3.941   3.873  12.679  1.7402  1.5519 -0.1336
   8123SM   C7S10743   3.738   3.942  12.694  0.3026  0.5106  0.9537
   8123SM   H7S10744   3.680   3.848  12.686  2.7246 -1.0967  1.1601
   8123SM   H7T10745   3.673   4.024  12.657 -0.7175 -0.4866  0.5039
   8123SM   C8S10746   3.740   3.965  12.847  0.1685  0.1429 -0.7014
   8123SM   H8S10747   3.786   4.066  12.850  2.6932 -0.7745 -3.1632
   8123SM   H8T10748   3.811   3.892  12.893 -0.0290 -0.7150 -1.7057
   8123SM   C9S10749   3.610   3.954  12.921 -0.4159  0.0781 -0.4515
   8123SM   H9S10750   3.549   3.865  12.894  0.5875 -1.1570  1.1550
   8123SM   H9T10751   3.554   4.046  12.893  1.9984  1.7864  0.0109
   8123SM  C10S10752   3.642   3.941  13.069 -0.3476 -0.3615  0.4735
   8123SM  H10S10753   3.686   4.038  13.101  1.2904 -0.8076 -0.3082
   8123SM  H10T10754   3.695   3.845  13.086 -1.5877 -1.1022  0.2308
   8123SM  C11S10755   3.507   3.931  13.139  0.4345 -0.4760 -0.8842
   8123SM  H11S10756   3.454   3.842  13.098  0.3462 -0.5365 -0.6398
   8123SM  H11T10757   3.443   4.018  13.115 -0.1076 -1.0604 -1.6121
   8123SM  C12S10758   3.518   3.925  13.296  0.1937  0.4386 -0.0091
   8123SM  H12S10759   3.557   3.822  13.311 -0.7587 -0.0660 -0.8436
   8123SM  H12T10760   3.416   3.918  13.339  0.6206 -0.4592  0.8927
   8123SM  C13S10761   3.609   4.033  13.362  0.3572  1.0066 -0.2980
   8123SM  H13S10762   3.553   4.129  13.362  0.4263  1.0482 -0.1220
   8123SM  H13T10763   3.703   4.047  13.305  0.6587  0.2446 -0.0007
   8123SM  C14S10764   3.643   3.984  13.502  0.0795 -0.3213 -0.0084
   8123SM  H14S10765   3.677   3.879  13.504  0.8791 -0.0630  2.3202
   8123SM  H14T10766   3.550   3.995  13.562  0.4781 -2.6582  1.1505
   8123SM  C15S10767   3.744   4.089  13.561  0.3509  0.3354 -1.0615
   8123SM  H15S10768   3.706   4.194  13.558  0.4133  0.4058  0.1003
   8123SM  H15T10769   3.841   4.082  13.507  0.0934 -0.9176 -1.3760
   8123SM  C16S10770   3.768   4.061  13.713 -0.0049  0.3542 -0.3468
   8123SM  H16S10771   3.809   3.958  13.724  1.2736  0.8169 -0.5939
   8123SM  H16T10772   3.674   4.061  13.772  0.9666  2.7509  1.3888
   8123SM  C17S10773   3.862   4.156  13.789  0.0769 -0.6284 -0.8147
   8123SM  H17S10774   3.813   4.256  13.787  2.7598  1.0080  3.2237
   8123SM  H17T10775   3.961   4.163  13.741  0.9971 -0.2877  1.0434
   8123SM  C18S10776   3.884   4.106  13.935  0.4951  0.2792 -0.0450
   8123SM  H18S10777   3.788   4.083  13.986 -0.4628  0.4717 -1.6958
   8123SM  H18T10778   3.937   4.184  13.994 -1.7541  0.8265  1.4010
   8123SM  H18U10779   3.946   4.015  13.940  2.4993  1.5337 -0.8538
   8123SM   C1F10780   3.664   3.474  12.364 -0.2651 -0.4237 -0.1066
   8123SM    OF10781   3.762   3.411  12.340 -0.1809  0.5471  0.8853
   8123SM   C2F10782   3.530   3.420  12.420  0.1814 -0.6500 -0.1154
   8123SM   H2F10783   3.493   3.335  12.358 -0.1626  0.7739 -1.9615
   8123SM   H2G10784   3.452   3.499  12.424 -1.6410 -2.3858  4.1542
   8123SM   C3F10785   3.544   3.369  12.566  0.6144  0.2419 -0.4521
   8123SM   H3F10786   3.545   3.454  12.638  1.5161  0.4474 -0.6993
   8123SM   H3G10787   3.645   3.331  12.589  0.4709  0.4298  0.5601
   8123SM   C4F10788   3.426   3.276  12.593 -0.3466  0.2351 -1.0262
   8123SM   H4F10789   3.419   3.193  12.519 -1.9533 -1.5667  1.0357
   8123SM   H4G10790   3.332   3.335  12.578 -0.8247 -0.6676 -1.6592
   8123SM   C5F10791   3.412   3.211  12.733 -0.4979 -0.6258 -0.2252
   8123SM   H5F10792   3.327   3.140  12.721 -0.7268 -0.1075 -1.8627
   8123SM   H5G10793   3.386   3.271  12.823  0.9941 -1.9860  1.1938
   8123SM   C6F10794   3.539   3.143  12.785  0.0337  0.0184  0.5060
   8123SM   H6F10795   3.630   3.206  12.779  1.1362 -1.6571 -3.4606
   8123SM   H6G10796   3.561   3.067  12.708 -1.0750  0.9335 -0.7590
   8123SM   C7F10797   3.497   3.079  12.923 -0.0371  0.1764 -0.1409
   8123SM   H7F10798   3.433   2.991  12.900  3.2737 -2.7428  0.9073
   8123SM   H7G10799   3.432   3.152  12.975  0.2796 -1.7987  3.2721
   8123SM   C8F10800   3.616   3.040  13.006  0.4990 -0.0530 -0.9755
   8123SM   H8F10801   3.670   3.135  13.021  1.4261 -0.7728  0.4842
   8123SM   H8G10802   3.679   2.970  12.946  2.7892  2.2427 -1.4293
   8123SM   C9F10803   3.581   2.972  13.148  0.0582  0.1487 -0.0830
   8123SM   H9F10804   3.520   2.882  13.126  0.9521 -0.3215 -0.6784
   8123SM   H9G10805   3.508   3.038  13.200 -1.6082 -1.5206 -0.2080
   8123SM  C10F10806   3.713   2.932  13.210 -0.3841 -0.1358 -0.1173
   8123SM  H10F10807   3.765   3.024  13.245  0.6169 -1.7581  3.0539
   8123SM  H10G10808   3.766   2.878  13.129 -0.9476 -0.6637 -0.1431
   8123SM  C11F10809   3.700   2.833  13.329  0.3317  0.0961  0.3907
   8123SM  H11F10810   3.684   2.734  13.283 -2.8385  0.9674 -0.6553
   8123SM  H11G10811   3.610   2.860  13.388  0.0096 -0.4281  0.1352
   8123SM  C12F10812   3.816   2.852  13.430 -0.6629 -0.1504  0.8215
   8123SM  H12F10813   3.837   2.958  13.454 -0.4681 -0.4116  1.8346
   8123SM  H12G10814   3.914   2.823  13.387 -0.1837 -1.8985  2.9249
   8123SM  C13F10815   3.797   2.786  13.561  0.3894 -0.1734  0.1950
   8123SM  H13F10816   3.823   2.678  13.568 -0.2679 -0.2252  4.3721
   8123SM  H13G10817   3.691   2.791  13.593 -0.0036 -0.5158 -0.9803
   8123SM  C14F10818   3.879   2.861  13.676 -0.1419  0.1703 -0.2402
   8123SM  H14F10819   3.838   2.826  13.773  1.2144 -1.0415 -0.0707
   8123SM  H14G10820   3.856   2.970  13.673 -1.9031 -0.1857 -1.0529
   8123SM  C15F10821   4.019   2.806  13.691 -0.3397 -0.3677  0.1470
   8123SM  H15F10822   4.079   2.798  13.597 -0.2034 -2.7107  0.3666
   8123SM  H15G10823   3.999   2.699  13.716 -0.6282 -0.0941  1.1312
   8123SM  C16F10824   4.112   2.888  13.784 -0.1461  0.0518 -0.0963
   8123SM  H16F10825   4.101   2.850  13.888 -1.4861  2.0682  0.5701
   8123SM  H16G10826   4.076   2.993  13.790  1.0907  0.5055 -0.2860
   8123SM  C17F10827   4.265   2.881  13.751 -0.1448 -0.2573  0.1006
   8123SM  H17F10828   4.294   2.792  13.691 -2.0569 -1.0441  0.2884
   8123SM  H17G10829   4.323   2.871  13.846  1.9336  1.2122 -0.9377
   8123SM  C18F10830   4.311   3.013  13.683 -0.1848  0.0026 -0.3699
   8123SM  H18F10831   4.234   3.037  13.606 -0.4327 -0.3193 -0.2265
   8123SM  H18G10832   4.403   2.996  13.624  0.6754 -0.5240  1.0767
   8123SM  C19F10833   4.329   3.132  13.776 -0.1577 -0.1180 -0.4049
   8123SM  H19F10834   4.426   3.108  13.825  0.1486 -1.3154 -1.5186
   8123SM  H19G10835   4.248   3.133  13.852 -0.3185  0.2549 -0.5801
   8123SM  C20F10836   4.349   3.266  13.700 -0.0035 -0.1021  0.6336
   8123SM  H20F10837   4.333   3.349  13.772 -1.3953  0.7372 -0.5862
   8123SM  H20G10838   4.281   3.278  13.613  0.9987 -0.4863 -0.2171
   8123SM  C21F10839   4.493   3.294  13.650 -0.4330 -0.4253 -0.3245
   8123SM  H21F10840   4.496   3.393  13.601 -0.3138  0.5492  1.5338
   8123SM  H21G10841   4.526   3.222  13.573 -1.5341 -0.1361 -1.0755
   8123SM  C22F10842   4.605   3.301  13.755  0.1394 -0.3811 -0.6243
   8123SM  H22F10843   4.584   3.219  13.828 -0.4594  0.7965  0.5780
   8123SM  H22G10844   4.598   3.398  13.808  0.0345  0.3202 -1.8959
   8123SM  C23F10845   4.750   3.284  13.713  0.3068 -0.1837  0.8180
   8123SM  H23F10846   4.765   3.193  13.651  0.7659  1.6666 -2.0036
   8123SM  H23G10847   4.806   3.255  13.804 -0.7310 -2.1302  0.8945
   8123SM  H23H10848   4.793   3.369  13.655 -1.3519  0.8459  1.0171
   8223SM     N10849   4.121   4.933  11.931 -0.3370 -0.5310 -0.5009
   8223SM   C1510850   4.080   4.853  11.810 -0.2649  0.2509  0.6616
   8223SM  H15A10851   4.039   4.919  11.735  1.1137  0.0965 -0.2533
   8223SM  H15B10852   4.004   4.786  11.849  0.8895 -1.5930 -0.1592
   8223SM  H15C10853   4.156   4.797  11.759 -2.6676 -0.3173 -2.6002
   8223SM   C1410854   4.220   5.035  11.873  0.2367  0.1355 -0.4441
   8223SM  H14A10855   4.296   4.981  11.818 -0.2693 -3.1044  1.8079
   8223SM  H14B10856   4.267   5.087  11.956 -1.7282 -0.3738  1.0444
   8223SM  H14C10857   4.166   5.104  11.809  1.7658  1.7009 -0.1471
   8223SM   C1310858   4.002   4.999  11.995  0.5837 -0.6635 -0.1032
   8223SM  H13A10859   4.035   5.066  12.073 -0.9137 -2.5666  2.3429
   8223SM  H13B10860   3.931   4.931  12.041 -0.9502  1.7132  1.2415
   8223SM  H13C10861   3.952   5.058  11.920  2.1918  0.1617 -0.5746
   8223SM   C1210862   4.204   4.844  12.031 -0.2433 -0.5235  0.4346
   8223SM  H12A10863   4.136   4.762  12.051 -1.8594  0.6683  0.0051
   8223SM  H12B10864   4.211   4.899  12.123 -2.0055 -2.3325  1.7404
   8223SM   C1110865   4.346   4.793  11.981 -0.0211 -0.4976 -0.3606
   8223SM  H11A10866   4.393   4.755  12.074  1.2175 -0.4075 -0.9313
   8223SM  H11B10867   4.411   4.870  11.937 -2.1323  1.0472 -0.9525
   8223SM     P10868   4.437   4.602  11.813  0.2284  0.2439  0.2852
   8223SM   O1310869   4.371   4.508  11.720  0.1347 -0.1530 -0.3420
   8223SM   O1410870   4.544   4.681  11.756 -0.1452 -0.3575 -0.1263
   8223SM   O1110871   4.487   4.516  11.933 -0.5136  0.4960  0.0414
   8223SM   O1210872   4.324   4.699  11.878  0.2863  0.3479 -0.0388
   8223SM   C1S10873   4.403   4.471  12.037  0.3676 -0.4165 -0.1978
   8223SM   H1S10874   4.346   4.381  12.003  0.6060 -0.9792  0.8445
   8223SM   H1T10875   4.334   4.548  12.078 -0.4407 -0.6369 -1.0992
   8223SM    NF10876   4.396   4.417  12.282  0.0038  0.5871  0.4223
   8223SM   HNF10877   4.407   4.469  12.366  1.2118 -2.0464  1.9916
   8223SM   C2S10878   4.481   4.427  12.164 -0.1796 -0.0239  0.1301
   8223SM   H2S10879   4.530   4.329  12.144  0.2611  0.2060  0.0707
   8223SM   C3S10880   4.602   4.523  12.192  0.3230 -0.6663  0.4027
   8223SM   H3S10881   4.570   4.628  12.203 -0.3293 -0.9250  1.0622
   8223SM    O310882   4.701   4.527  12.088 -0.1008  0.6897  0.0781
   8223SM   HO310883   4.637   4.514  12.018 -0.2637 -0.2873  0.3852
   8223SM   C4S10884   4.672   4.472  12.309  0.0547  0.0674  0.2487
   8223SM   H4S10885   4.695   4.365  12.303 -1.8299 -0.3170 -0.8285
   8223SM   C5S10886   4.715   4.548  12.411 -0.1109 -0.2234  0.3297
   8223SM   H5S10887   4.688   4.654  12.416 -0.2117 -0.1791 -0.9710
   8223SM   C6S10888   4.782   4.502  12.533 -0.0934 -0.4848  0.7065
   8223SM   H6S10889   4.737   4.547  12.624  0.8813  0.7992  0.5917
   8223SM   H6T10890   4.882   4.552  12.532 -0.2134 -0.2231 -0.5831
   8223SM   C7S10891   4.792   4.352  12.554  0.2247 -0.3122  0.1157
   8223SM   H7S10892   4.863   4.319  12.475  2.7760  2.8023  0.8836
   8223SM   H7T10893   4.695   4.299  12.542 -0.9066  1.5854  0.4306
   8223SM   C8S10894   4.835   4.298  12.689  0.3870 -0.4284  0.1852
   8223SM   H8S10895   4.935   4.336  12.720  0.6118 -1.7873  1.2221
   8223SM   H8T10896   4.851   4.189  12.677  0.8467 -0.7030  2.7487
   8223SM   C9S10897   4.730   4.327  12.805 -0.9489  0.2294 -0.2580
   8223SM   H9S10898   4.637   4.271  12.779 -1.8487  0.1603  2.6847
   8223SM   H9T10899   4.713   4.437  12.806 -0.3400  0.3216  0.1875
   8223SM  C10S10900   4.777   4.278  12.941  0.6807 -0.5494  1.1024
   8223SM  H10S10901   4.865   4.339  12.969  0.8948 -1.2741  2.0352
   8223SM  H10T10902   4.813   4.175  12.923 -1.3293 -1.2198  0.6225
   8223SM  C11S10903   4.680   4.282  13.056  0.0807 -0.2955  1.0151
   8223SM  H11S10904   4.583   4.238  13.025 -0.2470  0.8827  0.3069
   8223SM  H11T10905   4.652   4.387  13.077 -0.9783 -0.1644 -0.7853
   8223SM  C12S10906   4.737   4.212  13.174  0.1037  0.6228 -0.0586
   8223SM  H12S10907   4.824   4.270  13.211 -0.6238  0.8963  1.3170
   8223SM  H12T10908   4.770   4.110  13.146 -0.1808  0.7200 -0.7709
   8223SM  C13S10909   4.630   4.209  13.288  0.1048 -0.0246 -0.3902
   8223SM  H13S10910   4.549   4.146  13.246 -1.1218  1.5812 -0.5485
   8223SM  H13T10911   4.585   4.310  13.294 -1.0320 -0.4959 -0.6552
   8223SM  C14S10912   4.676   4.142  13.423  0.0759 -0.8665  0.1410
   8223SM  H14S10913   4.783   4.171  13.435 -0.1823  0.4445 -0.5394
   8223SM  H14T10914   4.653   4.036  13.401 -0.1958 -0.9684  0.9185
   8223SM  C15S10915   4.595   4.186  13.541 -0.2949 -0.5126 -0.2873
   8223SM  H15S10916   4.488   4.162  13.523 -0.4658 -0.7315  0.9297
   8223SM  H15T10917   4.595   4.296  13.556 -0.2143 -0.6923  1.1491
   8223SM  C16S10918   4.630   4.098  13.660  0.2159  0.5282 -0.3708
   8223SM  H16S10919   4.736   4.111  13.690  0.9411 -1.6911 -1.7461
   8223SM  H16T10920   4.634   3.992  13.628 -0.6886  0.7308 -1.2155
   8223SM  C17S10921   4.538   4.110  13.776 -0.1383  0.1447  0.0726
   8223SM  H17S10922   4.430   4.107  13.748 -0.0312  2.6307 -0.7857
   8223SM  H17T10923   4.551   4.216  13.804  0.7587 -0.0561  0.4560
   8223SM  C18S10924   4.581   4.023  13.895 -0.1268  0.2298 -0.0570
   8223SM  H18S10925   4.690   4.022  13.914  0.0702 -0.2042 -1.1393
   8223SM  H18T10926   4.550   3.917  13.885  0.6557  0.2322 -4.1345
   8223SM  H18U10927   4.532   4.073  13.982 -1.6965 -0.6457 -0.4049
   8223SM   C1F10928   4.286   4.338  12.291 -0.7625 -0.2736 -0.5246
   8223SM    OF10929   4.241   4.275  12.200  0.2803  0.8685  0.0535
   8223SM   C2F10930   4.206   4.353  12.419 -0.5367  0.2860 -0.1058
   8223SM   H2F10931   4.099   4.357  12.390 -0.7925  4.2682  0.7919
   8223SM   H2G10932   4.223   4.457  12.456 -0.8131  0.4504 -0.4399
   8223SM   C3F10933   4.243   4.242  12.516  0.2659  0.3380  0.4108
   8223SM   H3F10934   4.353   4.224  12.512  0.1134 -0.4630 -1.6819
   8223SM   H3G10935   4.189   4.149  12.488 -1.0011  0.1696  3.1257
   8223SM   C4F10936   4.194   4.263  12.662  0.0663  0.1811  0.3020
   8223SM   H4F10937   4.086   4.240  12.675  0.0812 -1.0117 -1.4773
   8223SM   H4G10938   4.208   4.371  12.685  0.1489  0.2113  0.1093
   8223SM   C5F10939   4.270   4.175  12.763  0.6445 -0.2075  0.5647
   8223SM   H5F10940   4.369   4.218  12.788  0.8889  0.2603 -1.1081
   8223SM   H5G10941   4.285   4.071  12.726  0.0841  0.2761 -1.0887
   8223SM   C6F10942   4.195   4.157  12.900  0.1388  0.7379  0.4888
   8223SM   H6F10943   4.097   4.104  12.889  0.8456 -0.8682  1.5943
   8223SM   H6G10944   4.184   4.260  12.939  1.1798  2.0396 -2.3889
   8223SM   C7F10945   4.287   4.086  12.999  0.2271 -0.1335 -0.0969
   8223SM   H7F10946   4.388   4.130  12.987 -0.8520  2.6351  0.3913
   8223SM   H7G10947   4.288   3.983  12.957  1.4545 -0.0451 -0.3276
   8223SM   C8F10948   4.238   4.079  13.144 -0.6785  0.2018  0.2510
   8223SM   H8F10949   4.254   4.176  13.196 -0.4419  1.4881 -2.0929
   8223SM   H8G10950   4.307   4.008  13.196  1.1560  1.7692  0.0817
   8223SM   C9F10951   4.096   4.027  13.166 -0.1237 -0.1659 -0.2677
   8223SM   H9F10952   4.081   3.925  13.125  0.5690 -0.6424  0.6500
   8223SM   H9G10953   4.025   4.096  13.115 -0.4835  0.8199  1.4861
   8223SM  C10F10954   4.040   4.020  13.310 -0.3068  0.3313  0.2313
   8223SM  H10F10955   3.949   3.956  13.310  0.8172 -1.3665 -1.4788
   8223SM  H10G10956   4.016   4.121  13.349 -1.3432 -0.1295  0.8416
   8223SM  C11F10957   4.126   3.943  13.411 -0.1576 -0.9565  0.5027
   8223SM  H11F10958   4.211   4.012  13.432 -0.7718  0.6230 -1.7277
   8223SM  H11G10959   4.178   3.860  13.357  1.7721 -0.8391  2.0683
   8223SM  C12F10960   4.056   3.903  13.539 -0.0474  0.2945 -1.3104
   8223SM  H12F10961   3.966   3.840  13.519 -0.8821  0.6385  1.0122
   8223SM  H12G10962   4.018   3.990  13.596 -0.9770 -1.7673  1.4520
   8223SM  C13F10963   4.154   3.830  13.621  0.2579  0.4752  0.2192
   8223SM  H13F10964   4.250   3.883  13.641  1.5412 -1.0681 -1.5515
   8223SM  H13G10965   4.170   3.726  13.585 -0.9610 -1.0202  3.5469
   8223SM  C14F10966   4.082   3.805  13.755  0.0303 -0.0633 -0.3048
   8223SM  H14F10967   3.993   3.744  13.726 -0.3622  0.7987 -1.0058
   8223SM  H14G10968   4.038   3.892  13.809  0.1563  0.5662 -1.1975
   8223SM  C15F10969   4.159   3.725  13.854 -0.1217 -0.2384  0.3813
   8223SM  H15F10970   4.193   3.630  13.807 -1.4313 -0.2693 -0.5484
   8223SM  H15G10971   4.077   3.698  13.924 -1.7928 -2.2532 -2.1590
   8223SM  C16F10972   4.271   3.805  13.925  0.2645 -0.3990 -0.0191
   8223SM  H16F10973   4.211   3.898  13.937  0.7264 -0.1601  0.4664
   8223SM  H16G10974   4.354   3.825  13.855 -2.0249  1.5201 -2.4064
   8223SM  C17F10975   4.302   3.767  14.069  0.2774  0.2304 -0.1246
   8223SM  H17F10976   4.204   3.747  14.117 -1.0662 -0.1439 -2.8397
   8223SM  H17G10977   4.354   3.848  14.125  0.4717 -0.3985  0.6191
   8223SM  C18F10978   4.392   3.647  14.091  0.1245 -0.6076  0.3597
   8223SM  H18F10979   4.382   3.634  14.201  0.1527  2.3013  0.7796
   8223SM  H18G10980   4.500   3.665  14.072  0.3136 -1.3696  0.6896
   8223SM  C19F10981   4.355   3.529  14.005 -0.9003 -0.0958  0.5625
   8223SM  H19F10982   4.356   3.549  13.896 -2.4996 -0.4340  0.4627
   8223SM  H19G10983   4.251   3.496  14.024 -0.9536 -2.8281 -3.3672
   8223SM  C20F10984   4.447   3.410  14.043 -0.5333  0.4938  0.2419
   8223SM  H20F10985   4.550   3.443  14.019 -0.9199  1.3431 -0.2541
   8223SM  H20G10986   4.413   3.330  13.974  0.7528 -0.4995  0.7175
   8223SM  C21F10987   4.445   3.379  14.199  0.4000  0.5546 -0.3055
   8223SM  H21F10988   4.342   3.407  14.228 -0.0861  0.3554 -1.7520
   8223SM  H21G10989   4.523   3.438  14.253  2.1368 -0.6084 -1.4140
   8223SM  C22F10990   4.464   3.227  14.235  0.3577  0.4544 -0.3102
   8223SM  H22F10991   4.556   3.182  14.193  1.5898  1.7963  0.8658
   8223SM  H22G10992   4.384   3.174  14.178  1.2709 -0.2527 -0.9589
   8223SM  C23F10993   4.451   3.197  14.382 -0.4191 -0.9551  0.0528
   8223SM  H23F10994   4.522   3.263  14.438 -2.5572  0.6419  1.0283
   8223SM  H23G10995   4.479   3.094  14.413  2.6085  0.6002  3.1395
   8223SM  H23H10996   4.350   3.225  14.420  0.2678  0.7693  0.6944
   8323SM     N10997   4.668   4.267  11.629 -0.5623 -0.1846  0.3407
   8323SM   C1510998   4.705   4.137  11.581 -0.0209  0.3729  0.8848
   8323SM  H15A10999   4.680   4.127  11.477  0.1482  0.3986  0.8414
   8323SM  H15B11000   4.648   4.054  11.619 -1.7209  0.2734 -1.6652
   8323SM  H15C11001   4.810   4.115  11.596 -0.0844  0.9703  2.3458
   8323SM   C1411002   4.782   4.349  11.576 -0.8321 -0.1436 -0.3232
   8323SM  H14A11003   4.872   4.340  11.635  0.0751  1.4530 -1.4139
   8323SM  H14B11004   4.751   4.452  11.564  0.3174  0.2663  0.1139
   8323SM  H14C11005   4.810   4.305  11.482  0.7378 -3.0763  1.3787
   8323SM   C1311006   4.546   4.309  11.567 -0.0136  0.3346  0.2951
   8323SM  H13A11007   4.540   4.285  11.462 -2.2962 -1.2041  0.7031
   8323SM  H13B11008   4.520   4.413  11.582  0.2636  0.5091 -0.3766
   8323SM  H13C11009   4.460   4.253  11.601  0.2272 -1.9010 -2.4535
   8323SM   C1211010   4.659   4.276  11.782 -0.6639 -0.2612  0.1470
   8323SM  H12A11011   4.567   4.224  11.804  0.2459 -2.2700 -0.5025
   8323SM  H12B11012   4.642   4.379  11.807  0.7412 -0.0260  0.2088
   8323SM   C1111013   4.759   4.202  11.870  0.9122  0.1493  0.2456
   8323SM  H11A11014   4.758   4.249  11.971 -0.8503  0.5317  0.0672
   8323SM  H11B11015   4.864   4.222  11.838  1.4700 -1.1046  1.1649
   8323SM     P11016   4.600   4.014  11.952  0.2007 -0.0729 -0.4269
   8323SM   O1311017   4.484   4.091  11.905 -0.0950 -0.7337  0.1391
   8323SM   O1411018   4.598   3.867  11.937 -0.7909  0.0089  0.1052
   8323SM   O1111019   4.621   4.045  12.110  0.4633 -0.4977  0.1853
   8323SM   O1211020   4.731   4.064  11.878  0.4670 -0.4167 -0.1081
   8323SM   C1S11021   4.711   3.960  12.180 -0.8598  0.1848  0.5640
   8323SM   H1S11022   4.815   3.975  12.144 -0.6100  1.8338  1.8514
   8323SM   H1T11023   4.691   3.851  12.169  1.8875 -0.2092 -1.5233
   8323SM    NF11024   4.839   3.942  12.391  0.0153 -0.1449  0.0654
   8323SM   HNF11025   4.810   3.856  12.433 -1.0364  0.9939  1.8292
   8323SM   C2S11026   4.726   4.009  12.330  0.2595  0.2684  0.7440
   8323SM   H2S11027   4.751   4.117  12.325 -0.2730  0.3537 -2.1856
   8323SM   C3S11028   4.593   3.978  12.398 -0.5058 -0.6929 -0.1372
   8323SM   H3S11029   4.567   3.872  12.377 -0.4008 -0.8172  0.3506
   8323SM    O311030   4.482   4.057  12.346  0.3642  0.1321  0.0849
   8323SM   HO311031   4.512   4.072  12.256 -0.3108  2.4463  0.1695
   8323SM   C4S11032   4.599   4.004  12.542 -0.0816 -0.1937  0.4936
   8323SM   H4S11033   4.583   4.111  12.561 -2.6930 -0.6419  1.2000
   8323SM   C5S11034   4.619   3.908  12.639  0.6809 -0.4237 -0.3401
   8323SM   H5S11035   4.643   3.803  12.618 -0.3596 -1.1627  1.8944
   8323SM   C6S11036   4.617   3.939  12.785 -0.1751  0.1908  0.5838
   8323SM   H6S11037   4.570   4.039  12.800 -3.3639 -1.1326  0.3747
   8323SM   H6T11038   4.723   3.938  12.816 -0.0716 -2.2600  0.3131
   8323SM   C7S11039   4.532   3.845  12.870 -0.1446 -0.0996 -0.0772
   8323SM   H7S11040   4.545   3.742  12.830 -0.0941 -0.0146 -0.2799
   8323SM   H7T11041   4.428   3.879  12.852  0.7834  3.1531  0.1790
   8323SM   C8S11042   4.569   3.857  13.018 -0.4703 -0.9572 -1.1449
   8323SM   H8S11043   4.540   3.959  13.050  0.3649 -1.1154  0.1711
   8323SM   H8T11044   4.671   3.835  13.055 -0.2198 -0.6075 -1.6169
   8323SM   C9S11045   4.468   3.766  13.095  0.3676 -0.3024 -0.0301
   8323SM   H9S11046   4.481   3.665  13.052  0.0350 -1.0029  1.4720
   8323SM   H9T11047   4.365   3.794  13.064  0.7030  0.1821 -0.7420
   8323SM  C10S11048   4.493   3.769  13.244 -0.6532 -0.4407 -0.1933
   8323SM  H10S11049   4.435   3.857  13.279  0.1404 -0.0749  0.2262
   8323SM  H10T11050   4.598   3.766  13.280 -0.4805 -0.3176 -0.6820
   8323SM  C11S11051   4.431   3.655  13.334 -0.4543  0.2928 -0.9023
   8323SM  H11S11052   4.461   3.560  13.285 -1.0104 -0.3177 -0.0860
   8323SM  H11T11053   4.322   3.650  13.316 -0.5883  1.8551 -0.6604
   8323SM  C12S11054   4.442   3.666  13.486  0.0428  0.0745  0.4969
   8323SM  H12S11055   4.378   3.593  13.540 -0.7087 -1.2096 -1.9749
   8323SM  H12T11056   4.406   3.769  13.504 -0.1299  0.0756  0.1595
   8323SM  C13S11057   4.581   3.650  13.540  0.0227  0.1235 -0.3501
   8323SM  H13S11058   4.660   3.713  13.492  0.2421 -2.0215 -3.0067
   8323SM  H13T11059   4.610   3.548  13.508  1.8601  0.8889 -1.3145
   8323SM  C14S11060   4.577   3.662  13.694  0.0676 -0.6185 -0.0300
   8323SM  H14S11061   4.513   3.581  13.735 -1.5087  1.2228  1.4027
   8323SM  H14T11062   4.533   3.758  13.731  1.1473  0.4151 -1.3231
   8323SM  C15S11063   4.705   3.639  13.768  0.2276 -0.0001  0.5643
   8323SM  H15S11064   4.765   3.552  13.734  2.8549  1.2482  1.7132
   8323SM  H15T11065   4.679   3.628  13.875 -0.6461 -0.6896  0.2950
   8323SM  C16S11066   4.804   3.757  13.751 -0.0341 -0.4978 -0.2161
   8323SM  H16S11067   4.744   3.848  13.772 -1.3037 -1.2854 -0.3240
   8323SM  H16T11068   4.836   3.775  13.646 -0.9612 -2.9222 -0.9936
   8323SM  C17S11069   4.933   3.737  13.832  1.2587 -0.5956  0.0906
   8323SM  H17S11070   4.904   3.689  13.928 -0.2978 -1.2094 -0.6409
   8323SM  H17T11071   4.976   3.838  13.850  0.7751 -0.0619 -1.5437
   8323SM  C18S11072   5.027   3.640  13.758 -0.3595  0.3697  0.9923
   8323SM  H18S11073   4.989   3.540  13.726 -1.2021  0.5106  1.5214
   8323SM  H18T11074   5.129   3.627  13.800 -0.7506 -1.0271  1.5598
   8323SM  H18U11075   5.043   3.693  13.661  2.2903 -1.5173  0.2901
   8323SM   C1F11076   4.966   3.980  12.370 -0.8465  0.7744  0.0757
   8323SM    OF11077   4.986   4.088  12.321 -0.2023 -0.2179  0.2387
   8323SM   C2F11078   5.078   3.875  12.405 -0.2737  0.6553  0.5052
   8323SM   H2F11079   5.112   3.813  12.319  2.5361 -0.1536  2.0496
   8323SM   H2G11080   5.033   3.806  12.480 -1.0830 -0.7213 -1.1661
   8323SM   C3F11081   5.209   3.935  12.467 -0.0166  0.4202 -0.3162
   8323SM   H3F11082   5.246   4.006  12.389 -1.1212  2.5275  0.9688
   8323SM   H3G11083   5.290   3.864  12.491 -0.0596  1.3110  2.8864
   8323SM   C4F11084   5.189   4.020  12.599  0.0086 -0.1240  0.7775
   8323SM   H4F11085   5.154   4.122  12.571  3.2450  1.4467  1.9477
   8323SM   H4G11086   5.294   4.032  12.633  0.2787 -1.2124  0.3624
   8323SM   C5F11087   5.116   3.947  12.714 -0.4933 -0.2920 -0.9042
   8323SM   H5F11088   5.155   3.847  12.741 -2.0997 -0.9755 -1.0210
   8323SM   H5G11089   5.013   3.920  12.682  0.4232 -2.0673 -2.5037
   8323SM   C6F11090   5.117   4.038  12.842  1.2976  0.2201 -0.4562
   8323SM   H6F11091   5.057   4.126  12.811  1.3230 -0.7689 -3.6267
   8323SM   H6G11092   5.217   4.060  12.884  1.0893  0.0517  0.1448
   8323SM   C7F11093   5.045   3.965  12.963  0.2298  0.0331  0.3800
   8323SM   H7F11094   5.094   3.865  12.964  0.9280  0.3407 -0.9001
   8323SM   H7G11095   4.938   3.961  12.935  0.8999 -0.0136 -2.4132
   8323SM   C8F11096   5.066   4.042  13.095  0.6976  0.8100  0.6314
   8323SM   H8F11097   5.015   4.140  13.106 -2.1129 -0.5002 -0.0895
   8323SM   H8G11098   5.176   4.060  13.105  0.9162 -0.5407  0.9209
   8323SM   C9F11099   5.028   3.968  13.226  0.1720  0.0214  0.8080
   8323SM   H9F11100   5.057   3.860  13.227  0.2938  0.0247 -0.7994
   8323SM   H9G11101   4.920   3.985  13.244  0.3705  2.3969  0.1196
   8323SM  C10F11102   5.084   4.032  13.355  0.1734 -0.0403 -0.2359
   8323SM  H10F11103   5.024   4.125  13.367 -0.7988 -0.8697  1.7439
   8323SM  H10G11104   5.189   4.069  13.350 -0.3928  1.5315 -2.0536
   8323SM  C11F11105   5.057   3.951  13.490  0.2392 -0.8286 -0.5851
   8323SM  H11F11106   5.093   3.847  13.473  0.7606 -1.3649  3.0474
   8323SM  H11G11107   4.949   3.938  13.512 -0.0324  1.6949 -0.1676
   8323SM  C12F11108   5.133   4.014  13.611  0.5509 -0.2931 -0.1602
   8323SM  H12F11109   5.237   4.037  13.579  1.5950 -2.9252  1.0321
   8323SM  H12G11110   5.131   3.925  13.678 -1.7947 -1.6860 -1.9045
   8323SM  C13F11111   5.058   4.134  13.675  0.1384 -0.1859  0.2145
   8323SM  H13F11112   4.949   4.111  13.688 -0.1257  1.0575  0.3221
   8323SM  H13G11113   5.061   4.216  13.600  1.1067  0.8894  1.3703
   8323SM  C14F11114   5.107   4.172  13.814 -0.5238 -0.1953 -0.3346
   8323SM  H14F11115   5.084   4.279  13.831  3.0829  0.6040  0.3137
   8323SM  H14G11116   5.218   4.161  13.815 -0.6744 -2.1151  0.0855
   8323SM  C15F11117   5.031   4.102  13.922 -0.0417 -0.5043 -0.3506
   8323SM  H15F11118   5.052   3.993  13.927 -1.0200 -0.7132 -0.5232
   8323SM  H15G11119   4.924   4.114  13.897  0.6194  1.4573 -2.5618
   8323SM  C16F11120   5.074   4.161  14.062 -1.2021  0.5510 -0.9717
   8323SM  H16F11121   5.088   4.271  14.062  1.6247  0.3551  1.8899
   8323SM  H16G11122   5.171   4.116  14.090 -1.9753 -0.1273  0.6963
   8323SM  C17F11123   4.969   4.135  14.170 -0.2770  0.1579 -0.3010
   8323SM  H17F11124   4.865   4.154  14.137 -0.6206 -2.1061 -0.6863
   8323SM  H17G11125   4.984   4.203  14.257  0.0828 -0.2113 -0.0711
   8323SM  C18F11126   4.951   3.997  14.232  0.5174  0.3790  0.6328
   8323SM  H18F11127   4.897   4.019  14.327 -1.1000 -0.7599  0.0313
   8323SM  H18G11128   5.055   3.961  14.248  0.8065  1.7561  2.1379
   8323SM  C19F11129   4.878   3.901  14.142  0.0053 -0.2327  0.6503
   8323SM  H19F11130   4.957   3.854  14.079 -2.6403 -2.8520 -0.9601
   8323SM  H19G11131   4.810   3.953  14.071  0.3940 -0.8356 -0.1781
   8323SM  C20F11132   4.808   3.786  14.208  0.0886  0.3881 -0.4470
   8323SM  H20F11133   4.876   3.739  14.283 -0.0556  1.7913  0.5856
   8323SM  H20G11134   4.785   3.711  14.129  2.2020 -1.2443  0.3684
   8323SM  C21F11135   4.683   3.827  14.286  0.3405 -0.0021 -0.1722
   8323SM  H21F11136   4.606   3.872  14.220  0.1958  0.9662  0.6311
   8323SM  H21G11137   4.717   3.901  14.361 -2.5847  0.7965  0.5107
   8323SM  C22F11138   4.631   3.714  14.363 -0.2655  0.7160 -0.2551
   8323SM  H22F11139   4.709   3.672  14.431 -0.6614 -0.4660 -0.5173
   8323SM  H22G11140   4.580   3.639  14.300 -3.2229  1.8901  0.5700
   8323SM  C23F11141   4.510   3.758  14.453 -0.2125 -0.0429 -0.1194
   8323SM  H23F11142   4.548   3.828  14.531  0.1570 -1.1353  0.7102
   8323SM  H23G11143   4.461   3.676  14.510  1.1126  0.0133  1.1863
   8323SM  H23H11144   4.440   3.823  14.397  1.9742  1.9392 -0.7371
   8423SM     N11145   4.403   3.018  11.829 -0.0045 -0.1092 -0.4866
   8423SM   C1511146   4.470   3.088  11.943 -0.2212  0.0622  0.1394
   8423SM  H15A11147   4.543   3.022  11.988  0.4826  0.2384 -0.7359
   8423SM  H15B11148   4.397   3.120  12.016 -0.6474 -1.1808  0.2922
   8423SM  H15C11149   4.508   3.184  11.911 -1.3883  0.0974 -1.2370
   8423SM   C1411150   4.293   3.098  11.769  0.3996 -0.5810 -0.1977
   8423SM  H14A11151   4.328   3.184  11.715  1.8490 -1.5982 -0.9485
   8423SM  H14B11152   4.219   3.132  11.840  2.3512  2.8859  0.3910
   8423SM  H14C11153   4.243   3.038  11.694  3.3579 -1.7172 -1.4056
   8423SM   C1311154   4.501   2.992  11.719 -0.3180  0.3941  0.1349
   8423SM  H13A11155   4.555   2.899  11.727  1.0836  1.0856 -0.8831
   8423SM  H13B11156   4.577   3.069  11.721 -0.9039  0.9823  0.0821
   8423SM  H13C11157   4.465   2.984  11.618  0.6371 -1.0010 -0.1197
   8423SM   C1211158   4.345   2.881  11.881  0.0502 -0.4093 -0.4057
   8423SM  H12A11159   4.300   2.833  11.794 -2.0124  1.8804 -0.7063
   8423SM  H12B11160   4.269   2.910  11.952  1.0152  2.0107 -0.2627
   8423SM   C1111161   4.447   2.787  11.956 -0.1972 -0.3110  0.7398
   8423SM  H11A11162   4.386   2.712  12.012 -0.7731 -1.5518 -1.4340
   8423SM  H11B11163   4.506   2.850  12.026  0.4369  2.6392 -2.1760
   8423SM     P11164   4.476   2.601  11.773  0.0924  0.2865 -0.2495
   8423SM   O1311165   4.343   2.641  11.720  0.6134  0.1910  0.4647
   8423SM   O1411166   4.576   2.552  11.680  0.4661  0.0244  0.2310
   8423SM   O1111167   4.447   2.476  11.874  0.0326 -0.8439 -0.2895
   8423SM   O1211168   4.534   2.712  11.874 -0.1387  0.5951  0.4701
   8423SM   C1S11169   4.546   2.400  11.951  0.7494 -0.0858  0.3775
   8423SM   H1S11170   4.647   2.433  11.919  0.1744 -0.6304 -2.2324
   8423SM   H1T11171   4.559   2.294  11.923  0.8782 -0.0938  0.4648
   8423SM    NF11172   4.639   2.363  12.185 -0.4005 -0.4381 -0.6119
   8423SM   HNF11173   4.629   2.278  12.237  1.5335 -0.6250 -0.4790
   8423SM   C2S11174   4.524   2.410  12.109 -0.3022  0.2569 -0.2014
   8423SM   H2S11175   4.506   2.518  12.127 -3.0120  0.3238 -2.6435
   8423SM   C3S11176   4.396   2.330  12.148 -0.1841 -0.1133 -0.6786
   8423SM   H3S11177   4.417   2.225  12.115 -0.0291  0.0774 -1.1969
   8423SM    O311178   4.278   2.366  12.082 -0.6375  0.0362  0.3046
   8423SM   HO311179   4.317   2.423  12.016  2.7875 -0.0660  2.0007
   8423SM   C4S11180   4.384   2.343  12.296 -0.8804  0.1482  0.2053
   8423SM   H4S11181   4.384   2.445  12.338  1.9388  0.1011  0.4943
   8423SM   C5S11182   4.372   2.237  12.378  0.0594  0.0964 -0.1974
   8423SM   H5S11183   4.365   2.134  12.342  0.9677 -0.8074  2.0220
   8423SM   C6S11184   4.358   2.247  12.524 -0.0605  0.4480 -0.4382
   8423SM   H6S11185   4.257   2.219  12.562 -0.4587  0.2862 -1.5453
   8423SM   H6T11186   4.378   2.348  12.564 -1.0957 -0.1651  1.8103
   8423SM   C7S11187   4.461   2.144  12.585 -0.1526 -0.7113 -0.1011
   8423SM   H7S11188   4.565   2.163  12.550 -0.0163 -2.0207 -0.4634
   8423SM   H7T11189   4.449   2.057  12.517 -0.4892  0.9761 -2.3488
   8423SM   C8S11190   4.452   2.113  12.735 -0.5933 -0.3133  0.0446
   8423SM   H8S11191   4.351   2.116  12.781 -0.0639 -2.9902  1.6456
   8423SM   H8T11192   4.500   2.195  12.793  0.4866 -1.0724  0.2626
   8423SM   C9S11193   4.521   1.979  12.775 -0.2834  0.7918  0.2253
   8423SM   H9S11194   4.629   1.976  12.748 -0.1177  1.5983  0.7409
   8423SM   H9T11195   4.478   1.894  12.719  1.9266 -0.6392  0.5849
   8423SM  C10S11196   4.499   1.966  12.929  0.3845  0.5258 -0.7658
   8423SM  H10S11197   4.390   1.958  12.947  0.5007  1.0378  0.2412
   8423SM  H10T11198   4.522   2.064  12.976 -0.9042  2.4117 -3.7825
   8423SM  C11S11199   4.584   1.853  12.990  0.2151  1.1697  1.1113
   8423SM  H11S11200   4.687   1.846  12.949 -0.7879 -1.6162 -1.3118
   8423SM  H11T11201   4.538   1.755  12.962 -0.5324  1.2559  1.9856
   8423SM  C12S11202   4.587   1.842  13.148 -0.1337 -0.4154 -0.7028
   8423SM  H12S11203   4.495   1.802  13.196 -0.5108  0.4293 -0.6925
   8423SM  H12T11204   4.600   1.950  13.172  2.6876 -0.4201 -1.8368
   8423SM  C13S11205   4.716   1.772  13.191 -0.4741  0.2963  0.0570
   8423SM  H13S11206   4.805   1.809  13.135  0.3340 -1.7315 -0.0828
   8423SM  H13T11207   4.714   1.667  13.156 -0.0256 -0.2557  1.6083
   8423SM  C14S11208   4.726   1.752  13.339  0.2795 -0.6702  0.4187
   8423SM  H14S11209   4.641   1.681  13.346  0.1880 -0.6834 -0.6239
   8423SM  H14T11210   4.716   1.844  13.399  1.8819 -0.8694  1.0432
   8423SM  C15S11211   4.852   1.678  13.379  0.4294 -0.4760 -0.2770
   8423SM  H15S11212   4.936   1.704  13.312 -0.7355 -1.6341 -2.2693
   8423SM  H15T11213   4.838   1.569  13.367 -2.0409 -0.0927 -1.3752
   8423SM  C16S11214   4.893   1.710  13.528  0.8964 -0.7309  0.3935
   8423SM  H16S11215   4.801   1.692  13.587 -0.2367  2.9118 -0.0036
   8423SM  H16T11216   4.910   1.820  13.533  0.6958 -0.7490  1.8920
   8423SM  C17S11217   5.004   1.624  13.587 -0.3118 -0.1789  0.5130
   8423SM  H17S11218   5.087   1.630  13.513 -0.6976  0.7368  0.1335
   8423SM  H17T11219   4.973   1.517  13.581 -0.0205 -0.3433  1.7548
   8423SM  C18S11220   5.055   1.670  13.724 -0.3848 -0.1515  0.3829
   8423SM  H18S11221   5.081   1.778  13.724 -2.2205  0.3427  1.5494
   8423SM  H18T11222   5.140   1.608  13.761  1.4298  1.0006 -1.6265
   8423SM  H18U11223   4.972   1.661  13.797 -1.2422 -1.1897 -0.6811
   8423SM   C1F11224   4.752   2.438  12.184  0.6289 -0.7652  0.6023
   8423SM    OF11225   4.757   2.542  12.124  0.2687  0.2895 -0.2812
   8423SM   C2F11226   4.874   2.380  12.241 -0.2693  0.4615 -0.0319
   8423SM   H2F11227   4.947   2.460  12.266  0.5200 -0.5485  0.9959
   8423SM   H2G11228   4.921   2.317  12.163  0.1219  2.1161 -1.1708
   8423SM   C3F11229   4.846   2.293  12.360  0.6413  0.3845  0.4027
   8423SM   H3F11230   4.779   2.209  12.330  1.0030  0.2324  0.0087
   8423SM   H3G11231   4.791   2.360  12.430 -3.0540 -1.1343 -0.7767
   8423SM   C4F11232   4.973   2.240  12.430  0.3987  0.5759  0.4676
   8423SM   H4F11233   5.055   2.315  12.440 -1.1484  2.4361 -0.2374
   8423SM   H4G11234   5.025   2.161  12.371 -1.6031 -1.0484  0.7894
   8423SM   C5F11235   4.933   2.187  12.566 -0.1279 -0.8626 -0.9986
   8423SM   H5F11236   4.859   2.104  12.554  0.8459 -1.6865 -1.4551
   8423SM   H5G11237   4.882   2.261  12.632  2.0052 -0.4867  0.3109
   8423SM   C6F11238   5.052   2.119  12.641  0.8086  0.2327  0.3709
   8423SM   H6F11239   5.125   2.203  12.649  2.7633 -1.4189  0.8388
   8423SM   H6G11240   5.103   2.036  12.587 -0.1322  0.2468 -0.5552
   8423SM   C7F11241   5.012   2.079  12.779 -1.1449  0.3534 -0.2344
   8423SM   H7F11242   4.954   1.985  12.765 -2.8466  1.4618 -0.9927
   8423SM   H7G11243   4.942   2.154  12.820 -0.8357  1.3483 -1.4591
   8423SM   C8F11244   5.128   2.060  12.880 -0.5626 -0.6287  0.4825
   8423SM   H8F11245   5.143   2.157  12.932 -0.3647  0.0138 -0.7389
   8423SM   H8G11246   5.219   2.023  12.828 -0.0800 -0.6340  1.3122
   8423SM   C9F11247   5.090   1.958  12.990  0.2732  0.4498  0.0353
   8423SM   H9F11248   5.067   1.861  12.940  0.7917  0.7389 -0.7877
   8423SM   H9G11249   5.001   1.992  13.047 -0.0532 -0.1231 -0.1244
   8423SM  C10F11250   5.204   1.943  13.092 -0.5668 -0.0561  0.0970
   8423SM  H10F11251   5.230   2.039  13.142 -0.5189 -0.0018 -0.0300
   8423SM  H10G11252   5.283   1.910  13.021  0.2548 -2.3945  1.9451
   8423SM  C11F11253   5.169   1.843  13.202 -0.5413  0.5088  0.6751
   8423SM  H11F11254   5.166   1.741  13.158  1.7495  1.1203 -1.0582
   8423SM  H11G11255   5.066   1.876  13.229 -0.2076  3.4067 -1.2231
   8423SM  C12F11256   5.273   1.846  13.319  0.0798 -0.6739  0.5018
   8423SM  H12F11257   5.373   1.869  13.277 -0.3650 -0.6264 -0.5876
   8423SM  H12G11258   5.278   1.745  13.365  1.3911 -0.3645  1.0752
   8423SM  C13F11259   5.243   1.949  13.432  0.1445  0.7396  0.0142
   8423SM  H13F11260   5.134   1.947  13.453 -0.4166  2.7719 -2.2772
   8423SM  H13G11261   5.271   2.044  13.381 -0.3937 -1.6018 -5.1671
   8423SM  C14F11262   5.312   1.941  13.564 -0.7009  0.2894  0.7954
   8423SM  H14F11263   5.417   1.957  13.531 -1.3421 -0.5962 -1.9581
   8423SM  H14G11264   5.279   1.843  13.603 -0.2117  0.9939  3.1374
   8423SM  C15F11265   5.268   2.058  13.655 -0.8722 -0.4202 -0.3133
   8423SM  H15F11266   5.157   2.059  13.660 -0.9671 -2.4142 -1.1280
   8423SM  H15G11267   5.293   2.152  13.602  0.1384 -0.2328  0.4754
   8423SM  C16F11268   5.351   2.044  13.788 -0.1887 -0.1785 -0.7135
   8423SM  H16F11269   5.458   2.024  13.769  0.0169  0.1028  0.1369
   8423SM  H16G11270   5.313   1.965  13.856  1.5580 -0.6476 -0.2338
   8423SM  C17F11271   5.347   2.171  13.866  0.3120  0.0522  0.3346
   8423SM  H17F11272   5.242   2.209  13.871  0.1834 -0.4214  1.5010
   8423SM  H17G11273   5.405   2.244  13.807 -0.3210  1.9412  1.9384
   8423SM  C18F11274   5.410   2.158  14.005 -0.1573 -0.5511 -0.7595
   8423SM  H18F11275   5.506   2.102  14.000  0.4469  0.0628  2.1735
   8423SM  H18G11276   5.343   2.098  14.069 -1.1692  0.3654 -0.9291
   8423SM  C19F11277   5.440   2.305  14.066 -0.1447 -0.0899  0.1843
   8423SM  H19F11278   5.468   2.287  14.172 -2.4243  2.2822  1.3096
   8423SM  H19G11279   5.345   2.361  14.051 -0.5356 -0.3215  1.6847
   8423SM  C20F11280   5.549   2.390  13.996  0.9861 -0.1249 -0.3846
   8423SM  H20F11281   5.570   2.479  14.058  1.2490  0.3072 -1.0767
   8423SM  H20G11282   5.520   2.430  13.896  0.0950  0.2820  0.0259
   8423SM  C21F11283   5.687   2.319  13.984  0.0364  0.1874 -0.8794
   8423SM  H21F11284   5.663   2.218  13.944 -1.3188  0.2284 -0.2535
   8423SM  H21G11285   5.743   2.303  14.078  1.8917 -0.2672 -1.9983
   8423SM  C22F11286   5.786   2.399  13.901 -0.4870  0.7206  0.5311
   8423SM  H22F11287   5.889   2.359  13.896 -1.3228 -1.4976 -0.2301
   8423SM  H22G11288   5.803   2.507  13.924  1.3249  0.6600 -0.3691
   8423SM  C23F11289   5.750   2.389  13.750  0.4238  0.7448  0.4924
   8423SM  H23F11290   5.829   2.425  13.682  1.0782 -1.5899 -0.0983
   8423SM  H23G11291   5.654   2.443  13.735 -1.0360 -1.9013 -0.3997
   8423SM  H23H11292   5.743   2.279  13.731  0.0798  0.8491  0.0077
   8523SM     N11293   6.212   4.094  11.579 -0.5167  0.2770  0.1681
   8523SM   C1511294   6.141   4.182  11.482 -0.2637 -0.1511 -0.4239
   8523SM  H15A11295   6.133   4.138  11.384 -3.4025 -1.4982  0.3175
   8523SM  H15B11296   6.199   4.273  11.470 -1.1919  0.6855  1.1832
   8523SM  H15C11297   6.044   4.210  11.519 -0.3916  0.5180 -1.2280
   8523SM   C1411298   6.136   3.962  11.580  0.7019  0.6080  1.0201
   8523SM  H14A11299   6.107   3.926  11.483 -2.1435 -0.4314  2.1426
   8523SM  H14B11300   6.040   3.983  11.624 -0.4562 -1.2234 -0.4797
   8523SM  H14C11301   6.182   3.880  11.634  1.2487 -0.5279 -1.0783
   8523SM   C1311302   6.356   4.067  11.543 -1.1405 -0.2675  0.5720
   8523SM  H13A11303   6.403   4.159  11.512 -0.3992 -0.4091  1.2457
   8523SM  H13B11304   6.363   4.009  11.452 -4.3309  0.9175 -0.5860
   8523SM  H13C11305   6.412   4.030  11.628 -1.6170 -1.1284  0.5154
   8523SM   C1211306   6.207   4.151  11.718  0.0717 -0.4822 -0.1991
   8523SM  H12A11307   6.236   4.255  11.724 -2.9346  0.4414  0.1577
   8523SM  H12B11308   6.275   4.098  11.783  1.7490  0.0230 -1.4698
   8523SM   C1111309   6.072   4.142  11.802 -0.3549  0.6440 -0.1760
   8523SM  H11A11310   6.095   4.194  11.897  1.6375 -1.8140  0.8251
   8523SM  H11B11311   6.045   4.038  11.831 -2.0620  1.2695  0.5845
   8523SM     P11312   5.911   4.336  11.781  0.3387 -0.2891 -0.0763
   8523SM   O1311313   6.018   4.435  11.765  0.1117  0.3863 -0.0311
   8523SM   O1411314   5.789   4.376  11.712 -0.1825  0.7027 -0.5396
   8523SM   O1111315   5.865   4.330  11.932  0.7866 -0.1666  0.3715
   8523SM   O1211316   5.958   4.197  11.730  0.0487  0.1377 -0.0445
   8523SM   C1S11317   5.786   4.220  11.982 -0.1259  0.1412 -0.1989
   8523SM   H1S11318   5.856   4.134  11.975 -1.6246 -1.1762  0.2832
   8523SM   H1T11319   5.701   4.192  11.916 -0.2462  1.0098 -0.4210
   8523SM    NF11320   5.655   4.128  12.171 -0.1419  0.3760  0.3514
   8523SM   HNF11321   5.557   4.143  12.185 -0.3391 -1.2152  0.9166
   8523SM   C2S11322   5.728   4.245  12.129  0.5446  0.7865  0.0986
   8523SM   H2S11323   5.813   4.262  12.199 -0.4620 -1.8071  2.0866
   8523SM   C3S11324   5.636   4.372  12.128  0.1307  0.2604 -0.4241
   8523SM   H3S11325   5.552   4.349  12.059 -0.3762  1.0182 -0.0757
   8523SM    O311326   5.702   4.494  12.084 -0.6267  0.6912  0.3371
   8523SM   HO311327   5.767   4.457  12.025 -1.7603 -0.5244 -0.2161
   8523SM   C4S11328   5.584   4.392  12.267  0.1885 -0.2529 -0.0587
   8523SM   H4S11329   5.475   4.380  12.278  0.1936 -0.2476 -0.0021
   8523SM   C5S11330   5.646   4.420  12.379  0.4021 -0.4866 -0.3770
   8523SM   H5S11331   5.756   4.430  12.373  0.4792 -0.7767  0.4340
   8523SM   C6S11332   5.570   4.440  12.508  0.2267 -0.5831  0.4554
   8523SM   H6S11333   5.512   4.535  12.508 -1.2311 -1.4383  1.1979
   8523SM   H6T11334   5.646   4.449  12.589 -0.0873  2.0734  0.5387
   8523SM   C7S11335   5.480   4.317  12.552 -0.0195 -0.1589  0.2209
   8523SM   H7S11336   5.541   4.225  12.564 -0.2296 -0.2284  0.7611
   8523SM   H7T11337   5.405   4.298  12.473 -0.4441 -1.7083  0.9605
   8523SM   C8S11338   5.398   4.352  12.674  0.8747  0.2346  0.2375
   8523SM   H8S11339   5.338   4.265  12.709  1.1191 -0.7171 -1.6060
   8523SM   H8T11340   5.326   4.434  12.653  0.5409 -0.2386 -0.5094
   8523SM   C9S11341   5.482   4.389  12.798 -0.4390 -0.2504  0.1269
   8523SM   H9S11342   5.533   4.487  12.783  0.5586 -0.9123 -0.9854
   8523SM   H9T11343   5.564   4.315  12.804  0.8186  1.1087  0.3294
   8523SM  C10S11344   5.400   4.376  12.930 -0.3588 -0.2462 -0.2587
   8523SM  H10S11345   5.321   4.301  12.909 -1.0429  0.3495  0.1462
   8523SM  H10T11346   5.352   4.469  12.966  0.8459  0.6373 -0.8712
   8523SM  C11S11347   5.485   4.331  13.051 -0.9133  0.6529 -0.3063
   8523SM  H11S11348   5.583   4.382  13.061 -0.2288 -0.5239 -0.7873
   8523SM  H11T11349   5.502   4.224  13.030  0.1483  0.8097 -0.2657
   8523SM  C12S11350   5.401   4.353  13.185 -0.0689 -0.4826 -0.0377
   8523SM  H12S11351   5.296   4.316  13.181 -0.2946  0.2002 -0.5847
   8523SM  H12T11352   5.380   4.462  13.188 -1.2950 -0.6448 -1.2516
   8523SM  C13S11353   5.465   4.298  13.319  0.1055  0.6458 -0.3894
   8523SM  H13S11354   5.569   4.334  13.326  0.1192  0.5744 -0.2309
   8523SM  H13T11355   5.475   4.188  13.307  0.8074  0.4177  1.8037
   8523SM  C14S11356   5.398   4.333  13.448  0.4617 -0.1350 -0.2783
   8523SM  H14S11357   5.297   4.286  13.448  0.2078  0.2698  2.1168
   8523SM  H14T11358   5.382   4.443  13.451 -2.6081 -0.4691  3.5226
   8523SM  C15S11359   5.476   4.305  13.577  0.2325  0.0514 -1.0595
   8523SM  H15S11360   5.583   4.333  13.569  0.2210  1.1450  1.5318
   8523SM  H15T11361   5.468   4.196  13.599  1.2552  0.4570  1.7151
   8523SM  C16S11362   5.412   4.380  13.691  0.2898  0.5083  0.1990
   8523SM  H16S11363   5.302   4.364  13.691  0.2811  0.2382  2.1731
   8523SM  H16T11364   5.430   4.489  13.690 -0.7953  0.7419  1.7474
   8523SM  C17S11365   5.475   4.336  13.820 -0.0791  0.4152  0.3299
   8523SM  H17S11366   5.585   4.355  13.819  0.7323 -3.5034  0.2785
   8523SM  H17T11367   5.463   4.226  13.818 -2.4650  0.6386  0.0864
   8523SM  C18S11368   5.406   4.386  13.938  0.0056 -0.7634 -0.2783
   8523SM  H18S11369   5.470   4.363  14.025 -0.8218  1.4646  1.0149
   8523SM  H18T11370   5.303   4.345  13.947  0.1676 -1.2823 -0.7457
   8523SM  H18U11371   5.392   4.496  13.928  1.8395 -0.4855 -0.1453
   8523SM   C1F11372   5.711   4.008  12.194 -0.5530 -0.4863 -0.2800
   8523SM    OF11373   5.832   4.001  12.179  0.0676  0.2822  0.3029
   8523SM   C2F11374   5.619   3.894  12.209  1.5187  0.0933 -0.3126
   8523SM   H2F11375   5.605   3.842  12.111  1.1052  1.8893 -1.2425
   8523SM   H2G11376   5.519   3.928  12.243  0.9958 -1.1823 -0.5280
   8523SM   C3F11377   5.658   3.797  12.326  0.0868 -0.0735  0.4986
   8523SM   H3F11378   5.765   3.770  12.313  0.1115 -0.1885  0.9245
   8523SM   H3G11379   5.610   3.697  12.322  0.7893 -0.3862 -0.2480
   8523SM   C4F11380   5.652   3.852  12.463  0.0567 -0.7949 -0.6127
   8523SM   H4F11381   5.545   3.878  12.478  0.5572  0.1335  1.9438
   8523SM   H4G11382   5.717   3.941  12.478 -0.9491  0.0687 -1.2784
   8523SM   C5F11383   5.706   3.763  12.573 -0.4045 -0.2017  0.5391
   8523SM   H5F11384   5.803   3.729  12.529 -1.0807 -0.6143 -0.6560
   8523SM   H5G11385   5.644   3.671  12.571 -1.6295  0.5789  1.4292
   8523SM   C6F11386   5.700   3.832  12.709 -0.0012  0.6669 -0.5494
   8523SM   H6F11387   5.763   3.922  12.727  2.5545 -1.2770  0.8702
   8523SM   H6G11388   5.744   3.763  12.784 -0.0282 -1.2645 -2.2430
   8523SM   C7F11389   5.556   3.848  12.766 -0.6439 -0.0809 -0.5371
   8523SM   H7F11390   5.512   3.746  12.758  0.2429 -0.5157 -0.0481
   8523SM   H7G11391   5.492   3.915  12.705 -0.4774  0.8192  0.2465
   8523SM   C8F11392   5.550   3.895  12.913  0.1285 -0.4729  0.5448
   8523SM   H8F11393   5.444   3.915  12.940 -0.2210 -1.6462  0.0999
   8523SM   H8G11394   5.611   3.988  12.920 -1.0616  0.5929 -2.0377
   8523SM   C9F11395   5.604   3.798  13.018  0.3279  0.1074  0.1612
   8523SM   H9F11396   5.670   3.846  13.093  0.4443  0.4314 -0.1481
   8523SM   H9G11397   5.665   3.714  12.977 -0.1572 -0.6637  0.9738
   8523SM  C10F11398   5.490   3.725  13.098 -0.7966  0.0286 -0.6643
   8523SM  H10F11399   5.528   3.629  13.137 -1.5261 -0.7187 -1.7427
   8523SM  H10G11400   5.412   3.697  13.024  1.0169 -1.1819 -2.2089
   8523SM  C11F11401   5.431   3.811  13.211  0.3844  0.8016  0.0019
   8523SM  H11F11402   5.387   3.903  13.168  0.1471  1.3178  1.3195
   8523SM  H11G11403   5.513   3.837  13.281  0.6798 -0.3681  0.1157
   8523SM  C12F11404   5.330   3.723  13.290  0.0954  0.0084 -0.4851
   8523SM  H12F11405   5.248   3.677  13.232 -1.1007  1.7018 -0.1985
   8523SM  H12G11406   5.274   3.810  13.331  0.7477  1.0274 -1.6982
   8523SM  C13F11407   5.403   3.634  13.390  0.8269  0.3492 -0.1121
   8523SM  H13F11408   5.435   3.697  13.476 -0.8942 -0.1071  0.9022
   8523SM  H13G11409   5.496   3.586  13.351 -0.2212  0.1585 -2.4953
   8523SM  C14F11410   5.309   3.525  13.439 -0.4563 -0.2807  0.0487
   8523SM  H14F11411   5.291   3.450  13.359  0.3401 -0.7972  0.3449
   8523SM  H14G11412   5.208   3.568  13.456  0.3235  1.4917  0.5257
   8523SM  C15F11413   5.353   3.449  13.571  0.2806 -0.6177  0.4112
   8523SM  H15F11414   5.266   3.390  13.607 -0.7892  2.1410  2.6695
   8523SM  H15G11415   5.383   3.521  13.650  1.3229 -1.5459  0.8944
   8523SM  C16F11416   5.476   3.365  13.555 -0.1114  0.1493  0.3694
   8523SM  H16F11417   5.555   3.422  13.501 -2.5153  0.9569 -2.6210
   8523SM  H16G11418   5.463   3.266  13.506 -3.5300  0.4286  0.4709
   8523SM  C17F11419   5.528   3.327  13.691  0.3184  0.3894  0.2132
   8523SM  H17F11420   5.448   3.263  13.736 -2.6199  1.9039 -2.4330
   8523SM  H17G11421   5.537   3.412  13.761  2.0080  0.6107 -0.2450
   8523SM  C18F11422   5.669   3.269  13.688  0.2577 -0.4208 -0.3432
   8523SM  H18F11423   5.749   3.346  13.696 -1.1232  0.9025  1.7688
   8523SM  H18G11424   5.690   3.231  13.586  0.6145  0.6552 -0.6800
   8523SM  C19F11425   5.693   3.160  13.788 -0.0425  0.2522  0.7548
   8523SM  H19F11426   5.782   3.097  13.769 -0.9077 -1.6318  2.6064
   8523SM  H19G11427   5.607   3.091  13.795 -0.2940  0.4565 -0.1760
   8523SM  C20F11428   5.731   3.221  13.930  0.5545 -0.1509 -0.7211
   8523SM  H20F11429   5.660   3.297  13.968  1.1961 -0.2076  0.6660
   8523SM  H20G11430   5.826   3.270  13.900 -0.5195  0.4674 -3.3933
   8523SM  C21F11431   5.729   3.119  14.044  0.5966 -0.1245  0.1549
   8523SM  H21F11432   5.786   3.029  14.012  0.4526 -0.4378  0.7605
   8523SM  H21G11433   5.623   3.084  14.051  0.1965  1.0099  0.0012
   8523SM  C22F11434   5.780   3.160  14.179 -0.2265  0.1187  0.2566
   8523SM  H22F11435   5.847   3.245  14.155 -2.6989  2.0846  0.0119
   8523SM  H22G11436   5.842   3.079  14.225 -2.8217 -2.2924 -0.1753
   8523SM  C23F11437   5.684   3.199  14.286 -0.8774  0.0845  0.1089
   8523SM  H23F11438   5.737   3.232  14.378 -0.3644  2.7664 -1.0656
   8523SM  H23G11439   5.602   3.125  14.297 -1.8512  0.9466 -1.0224
   8523SM  H23H11440   5.645   3.296  14.249 -0.2261  0.6790  0.9428
   8623SM     N11441   3.329   1.403  11.898 -0.0181  0.1140  0.5192
   8623SM   C1511442   3.234   1.291  11.870 -0.4342  0.8926 -0.2699
   8623SM  H15A11443   3.200   1.242  11.959  0.6079 -1.1850 -0.9484
   8623SM  H15B11444   3.295   1.220  11.817  0.8715 -0.0501  2.3261
   8623SM  H15C11445   3.147   1.319  11.813  0.3197  1.4113 -1.2032
   8623SM   C1411446   3.386   1.452  11.770 -0.0268  0.5104 -0.7461
   8623SM  H14A11447   3.430   1.362  11.730  3.0875  0.7947  1.6451
   8623SM  H14B11448   3.455   1.531  11.796 -3.1533  3.0062  0.7541
   8623SM  H14C11449   3.307   1.494  11.709  0.6339  0.9575 -1.3070
   8623SM   C1311450   3.263   1.511  11.970  0.9765  0.1485  0.3245
   8623SM  H13A11451   3.179   1.547  11.913 -0.9326 -1.5174  1.9222
   8623SM  H13B11452   3.333   1.591  11.987 -1.8786  2.9944 -0.2632
   8623SM  H13C11453   3.227   1.484  12.068 -2.4460 -2.5369 -1.4343
   8623SM   C1211454   3.444   1.355  11.981 -0.6640  0.9768 -0.2987
   8623SM  H12A11455   3.482   1.268  11.928 -0.8543  0.7273 -0.0303
   8623SM  H12B11456   3.402   1.315  12.072 -0.6111 -0.4216 -0.8541
   8623SM   C1111457   3.544   1.457  12.035 -0.7102  0.0845 -0.0054
   8623SM  H11A11458   3.620   1.402  12.093 -1.5719  1.6274  2.7489
   8623SM  H11B11459   3.502   1.525  12.112 -1.3190 -1.7287  1.3321
   8623SM     P11460   3.644   1.683  11.928 -0.2120  0.2263 -0.2395
   8623SM   O1311461   3.753   1.702  11.831  0.0506 -0.7971 -0.5607
   8623SM   O1411462   3.507   1.735  11.885 -0.8470 -0.3596 -0.0566
   8623SM   O1111463   3.676   1.732  12.076  0.4268 -0.3013  0.0197
   8623SM   O1211464   3.624   1.525  11.935 -0.2887 -0.2476  0.0355
   8623SM   C1S11465   3.636   1.862  12.124 -0.0132 -0.3492  0.2212
   8623SM   H1S11466   3.526   1.866  12.136 -0.2164  0.7095 -1.5638
   8623SM   H1T11467   3.653   1.937  12.043 -1.4343 -0.8743 -0.5923
   8623SM    NF11468   3.647   2.018  12.309  0.6229  0.1003  0.1506
   8623SM   HNF11469   3.685   2.110  12.313 -0.4554  0.5552  0.4670
   8623SM   C2S11470   3.719   1.902  12.254  0.7447  0.1373  0.2664
   8623SM   H2S11471   3.713   1.818  12.326 -1.0016  0.0838  0.0968
   8623SM   C3S11472   3.867   1.929  12.216  0.3120  0.1650 -0.1197
   8623SM   H3S11473   3.860   2.004  12.135 -0.8044  0.4248  0.2089
   8623SM    O311474   3.923   1.803  12.162  0.3970 -0.1260 -0.0797
   8623SM   HO311475   3.841   1.763  12.131  0.4820  0.0262 -0.5102
   8623SM   C4S11476   3.933   1.985  12.338  0.5417 -0.1788 -0.6809
   8623SM   H4S11477   3.973   2.087  12.326  1.1467 -0.0371  1.9569
   8623SM   C5S11478   3.941   1.933  12.461  0.5794 -0.0837 -0.9724
   8623SM   H5S11479   3.908   1.830  12.484  2.1654 -0.1965  1.1330
   8623SM   C6S11480   3.999   1.994  12.591 -0.4536 -0.3956  0.0751
   8623SM   H6S11481   4.068   2.081  12.579 -0.4611 -0.0084  2.3613
   8623SM   H6T11482   4.053   1.910  12.639  1.1039  0.8535  0.5911
   8623SM   C7S11483   3.906   2.040  12.698 -0.1925 -0.1528  0.2451
   8623SM   H7S11484   3.833   1.958  12.715 -0.1125 -0.1733  0.4982
   8623SM   H7T11485   3.845   2.128  12.668 -2.0116 -1.9450 -1.5854
   8623SM   C8S11486   3.974   2.068  12.828 -0.1969 -0.3664  0.2532
   8623SM   H8S11487   4.051   1.989  12.840  0.6951  0.3799 -0.4416
   8623SM   H8T11488   3.895   2.059  12.906 -0.3851 -2.2730 -0.1070
   8623SM   C9S11489   4.022   2.208  12.856 -0.3441 -0.8462  0.4038
   8623SM   H9S11490   3.945   2.282  12.827  0.4949 -0.1372 -0.0580
   8623SM   H9T11491   4.107   2.217  12.785 -0.4243 -1.0428  0.2825
   8623SM  C10S11492   4.062   2.225  13.006 -0.3559  0.3156  0.1263
   8623SM  H10S11493   3.975   2.206  13.073 -0.5121 -0.4698 -0.2869
   8623SM  H10T11494   4.088   2.332  13.018  2.2856 -0.5250  2.9421
   8623SM  C11S11495   4.180   2.141  13.061 -0.0121 -0.2085 -0.0189
   8623SM  H11S11496   4.268   2.154  12.995 -0.8251 -0.1138 -1.1153
   8623SM  H11T11497   4.156   2.033  13.049 -2.1283  0.2162  0.0265
   8623SM  C12S11498   4.221   2.184  13.206  0.3544  0.3243 -0.0218
   8623SM  H12S11499   4.124   2.183  13.261 -0.7506  0.6953 -1.8577
   8623SM  H12T11500   4.260   2.288  13.215 -1.6986  1.0933  0.5867
   8623SM  C13S11501   4.324   2.102  13.265  0.5649  0.1002  0.1761
   8623SM  H13S11502   4.418   2.101  13.206  0.4056 -0.3465 -0.0714
   8623SM  H13T11503   4.288   1.998  13.254  0.8738 -0.0126  0.2157
   8623SM  C14S11504   4.351   2.114  13.411  0.3765 -0.2843  0.5321
   8623SM  H14S11505   4.260   2.114  13.475  2.5390 -0.1645  3.8574
   8623SM  H14T11506   4.409   2.208  13.423 -0.8860  1.0517 -2.5237
   8623SM  C15S11507   4.433   1.998  13.477 -0.1035 -0.1141 -0.1305
   8623SM  H15S11508   4.539   1.999  13.442 -0.5422 -0.1975 -1.4906
   8623SM  H15T11509   4.393   1.901  13.442 -0.7205  0.5303 -1.2562
   8623SM  C16S11510   4.447   2.008  13.627  0.5383  0.0003 -0.7176
   8623SM  H16S11511   4.468   1.908  13.669  0.0564 -0.0425 -0.5731
   8623SM  H16T11512   4.349   2.037  13.671  1.5064  1.0816  0.8494
   8623SM  C17S11513   4.544   2.113  13.665  0.0732 -0.0914  0.2110
   8623SM  H17S11514   4.536   2.208  13.608 -1.3116 -0.6821 -0.6145
   8623SM  H17T11515   4.647   2.075  13.643  0.4529 -0.6191  2.6295
   8623SM  C18S11516   4.537   2.135  13.816 -0.0189  0.3463  0.1673
   8623SM  H18S11517   4.435   2.169  13.846 -0.6461  0.4724 -1.9642
   8623SM  H18T11518   4.618   2.207  13.842  2.3158 -1.7241 -1.0404
   8623SM  H18U11519   4.570   2.044  13.870  2.7422  0.9249 -0.4281
   8623SM   C1F11520   3.534   2.008  12.374  0.7842 -0.3268 -0.5827
   8623SM    OF11521   3.473   1.903  12.378  0.4026 -1.0184 -0.6420
   8623SM   C2F11522   3.475   2.129  12.447 -0.9099 -0.1049  0.3605
   8623SM   H2F11523   3.418   2.180  12.367  2.4837  0.1181 -2.1420
   8623SM   H2G11524   3.556   2.199  12.477 -1.3269  0.0420  1.1737
   8623SM   C3F11525   3.395   2.086  12.573  0.0066 -0.2068  0.3040
   8623SM   H3F11526   3.331   1.997  12.556 -1.0144  0.9377 -2.5629
   8623SM   H3G11527   3.331   2.175  12.592  2.4837  1.7211  0.1272
   8623SM   C4F11528   3.487   2.078  12.699  0.7395 -0.2000 -0.2503
   8623SM   H4F11529   3.555   2.165  12.710 -0.3806  0.8275 -1.1437
   8623SM   H4G11530   3.546   1.987  12.677 -0.9380 -1.1983 -0.7421
   8623SM   C5F11531   3.406   2.062  12.829 -0.0442 -0.1802  0.4552
   8623SM   H5F11532   3.316   1.997  12.832  0.9921 -1.6549  1.8806
   8623SM   H5G11533   3.374   2.166  12.849  0.0309  0.0776 -0.6891
   8623SM   C6F11534   3.490   2.029  12.951  0.4016  0.2687 -0.3209
   8623SM   H6F11535   3.586   2.085  12.945 -0.1305  1.6811  2.8103
   8623SM   H6G11536   3.523   1.923  12.951  1.3376  0.5456 -0.7150
   8623SM   C7F11537   3.425   2.060  13.090  0.8960  0.2029 -0.5619
   8623SM   H7F11538   3.342   1.988  13.104 -0.3895  0.8734 -3.7685
   8623SM   H7G11539   3.378   2.161  13.093  1.6438  0.5421  0.0968
   8623SM   C8F11540   3.515   2.028  13.215  0.7692 -0.4698  0.1390
   8623SM   H8F11541   3.607   2.090  13.216  0.1161  0.5413  1.5650
   8623SM   H8G11542   3.549   1.924  13.229  0.4392 -0.4143  1.5596
   8623SM   C9F11543   3.423   2.058  13.341  0.2467 -0.1132 -0.0235
   8623SM   H9F11544   3.334   1.992  13.341  0.6737 -0.7161  0.9806
   8623SM   H9G11545   3.393   2.165  13.337 -1.1900 -0.5313 -1.6644
   8623SM  C10F11546   3.499   2.038  13.481  0.5298 -0.2878  0.1743
   8623SM  H10F11547   3.566   2.121  13.513 -1.2769  0.3399  2.6886
   8623SM  H10G11548   3.554   1.942  13.478  0.7829 -0.1406  0.0167
   8623SM  C11F11549   3.399   2.041  13.596 -0.1783 -0.6819  0.0409
   8623SM  H11F11550   3.323   1.964  13.568  0.6104 -2.1745  1.8047
   8623SM  H11G11551   3.341   2.132  13.622 -0.2961 -1.3954  2.5537
   8623SM  C12F11552   3.454   1.978  13.727  0.0902 -0.0862 -0.2369
   8623SM  H12F11553   3.523   1.897  13.696 -1.7915 -1.5262 -0.8466
   8623SM  H12G11554   3.369   1.934  13.784 -0.1274  2.0076  1.1779
   8623SM  C13F11555   3.538   2.083  13.809 -0.0536 -0.0667  0.6932
   8623SM  H13F11556   3.466   2.164  13.834 -1.1006 -0.3391 -1.2146
   8623SM  H13G11557   3.613   2.121  13.736  0.3168 -0.8171  0.6807
   8623SM  C14F11558   3.608   2.027  13.927 -0.8841  0.5597  0.4315
   8623SM  H14F11559   3.696   2.085  13.962 -0.8685  0.0469  1.2618
   8623SM  H14G11560   3.646   1.925  13.903  0.3641  0.8949  0.8861
   8623SM  C15F11561   3.508   2.027  14.045 -0.2732 -0.1717  0.3929
   8623SM  H15F11562   3.434   1.946  14.025 -1.1266  0.5531  0.5299
   8623SM  H15G11563   3.453   2.124  14.052  1.8905  1.0996  0.7779
   8623SM  C16F11564   3.580   2.018  14.177 -0.2573  0.1782 -0.3971
   8623SM  H16F11565   3.650   2.103  14.192  0.1150 -0.3531  1.0601
   8623SM  H16G11566   3.631   1.919  14.172  0.2557  0.3067  1.4698
   8623SM  C17F11567   3.488   2.012  14.302  0.1249  0.0398 -0.4294
   8623SM  H17F11568   3.545   2.005  14.397 -1.5150 -2.9141  0.4956
   8623SM  H17G11569   3.426   1.920  14.307 -0.5715  0.5541  1.3772
   8623SM  C18F11570   3.396   2.135  14.321  0.0327  0.0505  0.4783
   8623SM  H18F11571   3.326   2.129  14.235  2.4114  0.8761 -1.6461
   8623SM  H18G11572   3.462   2.223  14.307  0.9215 -0.7949 -0.9898
   8623SM  C19F11573   3.328   2.149  14.459 -0.3689  0.5669 -0.2841
   8623SM  H19F11574   3.288   2.049  14.488  3.0159 -0.6863  0.4948
   8623SM  H19G11575   3.246   2.223  14.445  0.6278  2.0910  1.6083
   8623SM  C20F11576   3.430   2.210  14.560 -0.1696  0.0222 -0.1200
   8623SM  H20F11577   3.481   2.298  14.516 -0.0965 -0.1013 -0.2794
   8623SM  H20G11578   3.513   2.139  14.576 -0.4396 -0.1985  0.3591
   8623SM  C21F11579   3.356   2.238  14.693 -0.7095 -1.0524 -0.3140
   8623SM  H21F11580   3.246   2.244  14.675 -0.3769  2.4008 -1.9449
   8623SM  H21G11581   3.379   2.340  14.729 -1.8693 -0.4364 -1.2568
   8623SM  C22F11582   3.387   2.133  14.804 -0.0268  0.7749  0.0559
   8623SM  H22F11583   3.495   2.108  14.795 -0.0001  1.6002 -3.2893
   8623SM  H22G11584   3.320   2.049  14.774 -0.1206  0.6337  0.6572
   8623SM  C23F11585   3.356   2.178  14.952 -0.5743 -0.1002  0.0406
   8623SM  H23F11586   3.438   2.243  14.989 -0.9552  0.1033  0.5454
   8623SM  H23G11587   3.363   2.089  15.018  0.9178  1.3257  1.9142
   8623SM  H23H11588   3.253   2.216  14.972 -1.0443 -0.8021 -0.9594
   8723SM     N11589   4.333   2.224  11.639  0.0655  0.4221  0.0642
   8723SM   C1511590   4.480   2.261  11.619  0.3979  0.0083  0.3476
   8723SM  H15A11591   4.542   2.174  11.638 -1.2142 -1.2770  0.0128
   8723SM  H15B11592   4.512   2.348  11.675 -0.1465 -1.2660  2.7861
   8723SM  H15C11593   4.490   2.280  11.513 -1.8379 -1.2339 -0.1527
   8723SM   C1411594   4.246   2.342  11.592 -0.5456  0.7730 -0.0653
   8723SM  H14A11595   4.145   2.303  11.591 -0.2878  0.0937 -0.9802
   8723SM  H14B11596   4.262   2.369  11.489  1.3685  0.0925  0.0105
   8723SM  H14C11597   4.239   2.424  11.662 -1.5915  0.1370  0.6034
   8723SM   C1311598   4.308   2.107  11.539  0.1409 -0.0711 -0.9008
   8723SM  H13A11599   4.378   2.027  11.558  0.6357  0.4167 -0.6236
   8723SM  H13B11600   4.301   2.129  11.434 -2.2675  0.5534 -0.6609
   8723SM  H13C11601   4.212   2.069  11.571  0.9726 -0.3261  1.4750
   8723SM   C1211602   4.310   2.180  11.781  0.0878  0.2257 -0.2600
   8723SM  H12A11603   4.206   2.151  11.785 -0.3510  1.2344 -2.4781
   8723SM  H12B11604   4.317   2.262  11.851 -0.2426 -1.0735  1.3421
   8723SM   C1111605   4.393   2.068  11.836 -0.1023 -0.3007 -0.5464
   8723SM  H11A11606   4.373   2.051  11.944  2.2338  0.4067  0.0675
   8723SM  H11B11607   4.502   2.089  11.844 -0.1320 -0.1905 -0.4324
   8723SM     P11608   4.463   1.818  11.786 -0.1503  0.0954 -0.2493
   8723SM   O1311609   4.404   1.720  11.687 -0.4582 -0.2858  0.4984
   8723SM   O1411610   4.608   1.864  11.773  0.4323  0.5556  0.0842
   8723SM   O1111611   4.431   1.762  11.926 -0.1738 -0.6485 -0.8907
   8723SM   O1211612   4.381   1.945  11.764  0.9305  0.1912  0.1800
   8723SM   C1S11613   4.309   1.694  11.941  0.3256  0.4725 -0.7522
   8723SM   H1S11614   4.313   1.594  11.892 -1.7662  0.3870 -0.8609
   8723SM   H1T11615   4.220   1.748  11.901  1.4017  2.1345 -0.9967
   8723SM    NF11616   4.145   1.600  12.101  0.3981  0.0763  0.4767
   8723SM   HNF11617   4.075   1.650  12.151 -0.7618 -0.8675 -0.1550
   8723SM   C2S11618   4.272   1.661  12.096 -0.2015  0.4353 -0.2767
   8723SM   H2S11619   4.354   1.596  12.132 -0.1648  1.7952  2.3795
   8723SM   C3S11620   4.284   1.784  12.184 -0.2612 -0.4885 -0.4401
   8723SM   H3S11621   4.210   1.863  12.161  3.1415  3.3248  0.3817
   8723SM    O311622   4.409   1.857  12.178  0.0629  0.1251 -0.4673
   8723SM   HO311623   4.438   1.833  12.089 -1.5436 -0.8592 -0.7648
   8723SM   C4S11624   4.267   1.742  12.331  0.4066 -0.2623 -0.2514
   8723SM   H4S11625   4.165   1.756  12.370  0.1521 -0.1662 -0.9308
   8723SM   C5S11626   4.366   1.700  12.414  0.5911  0.0213 -0.5799
   8723SM   H5S11627   4.471   1.696  12.380  0.1407 -0.9362 -1.9618
   8723SM   C6S11628   4.339   1.666  12.559 -0.5044 -0.7316  0.0415
   8723SM   H6S11629   4.334   1.760  12.619  2.7251 -0.2448 -0.2937
   8723SM   H6T11630   4.433   1.617  12.593 -0.4542  0.0972  1.1589
   8723SM   C7S11631   4.217   1.579  12.581 -0.6960  0.1155 -0.2883
   8723SM   H7S11632   4.217   1.498  12.505  0.3964  0.2252 -0.4206
   8723SM   H7T11633   4.116   1.625  12.573 -0.8039 -0.3126 -1.4776
   8723SM   C8S11634   4.223   1.511  12.724 -0.0329 -0.2768 -0.5557
   8723SM   H8S11635   4.306   1.439  12.737  1.0847  1.3109  1.8816
   8723SM   H8T11636   4.129   1.453  12.733 -1.1423  1.6161  0.8593
   8723SM   C9S11637   4.223   1.606  12.851  0.5947  0.7422 -0.0121
   8723SM   H9S11638   4.123   1.653  12.848  0.3246  0.2471  0.9320
   8723SM   H9T11639   4.295   1.691  12.846  1.7902 -0.0343  2.3346
   8723SM  C10S11640   4.223   1.527  12.984 -0.2096 -0.3403  0.2451
   8723SM  H10S11641   4.312   1.460  12.988  0.6623  0.8477  2.6522
   8723SM  H10T11642   4.135   1.461  12.995 -0.1880 -0.2140  1.2706
   8723SM  C11S11643   4.223   1.632  13.100 -0.6651 -0.1876  0.0261
   8723SM  H11S11644   4.135   1.700  13.099 -0.7025 -0.2355 -0.0239
   8723SM  H11T11645   4.315   1.692  13.086 -0.4498 -0.6767 -0.7614
   8723SM  C12S11646   4.236   1.559  13.233  0.0673  0.8595 -0.4717
   8723SM  H12S11647   4.299   1.473  13.202  0.5026  0.5862  1.0934
   8723SM  H12T11648   4.138   1.515  13.257  0.8959 -1.4892 -1.1234
   8723SM  C13S11649   4.312   1.625  13.351  0.1794  0.8841 -0.0840
   8723SM  H13S11650   4.244   1.701  13.396  1.1020  2.5697 -1.4619
   8723SM  H13T11651   4.404   1.673  13.311  0.9284 -1.0128 -0.7337
   8723SM  C14S11652   4.356   1.522  13.456  0.0992 -0.3782  0.4808
   8723SM  H14S11653   4.420   1.442  13.412  0.0564 -0.2584  0.2031
   8723SM  H14T11654   4.262   1.471  13.485 -0.4097 -0.1934 -0.7935
   8723SM  C15S11655   4.436   1.579  13.573 -0.4184 -0.7008  0.0179
   8723SM  H15S11656   4.392   1.674  13.608 -2.0163 -1.1795 -0.6089
   8723SM  H15T11657   4.539   1.604  13.538  0.1768 -2.5391  0.2936
   8723SM  C16S11658   4.448   1.484  13.690 -0.2134  0.0721 -0.4092
   8723SM  H16S11659   4.490   1.385  13.662  0.1390 -0.4838  1.8418
   8723SM  H16T11660   4.342   1.474  13.723 -0.7561 -2.3524 -2.6289
   8723SM  C17S11661   4.533   1.551  13.801 -0.2037 -0.5408 -0.0185
   8723SM  H17S11662   4.530   1.660  13.784  1.6249 -0.7188 -1.8261
   8723SM  H17T11663   4.637   1.525  13.774 -1.1843 -1.9623 -2.9456
   8723SM  C18S11664   4.486   1.508  13.941  0.0746 -0.2441  0.7795
   8723SM  H18S11665   4.474   1.399  13.959 -1.4066 -0.0184  1.3615
   8723SM  H18T11666   4.399   1.569  13.975 -0.7929  0.1548 -1.9340
   8723SM  H18U11667   4.559   1.552  14.012  1.0535  0.4548 -0.6317
   8723SM   C1F11668   4.120   1.475  12.054 -0.6171 -1.2125 -0.1981
   8723SM    OF11669   4.207   1.394  12.020  0.8244 -0.0228  0.4052
   8723SM   C2F11670   3.974   1.431  12.049  0.2161  0.4278 -0.0621
   8723SM   H2F11671   3.949   1.420  11.942  1.3700  2.5889 -0.6052
   8723SM   H2G11672   3.919   1.521  12.082  0.5876  1.0220 -1.0363
   8723SM   C3F11673   3.949   1.296  12.117 -0.2559  0.0231  0.7281
   8723SM   H3F11674   4.008   1.218  12.065  1.3888  1.6869 -0.0350
   8723SM   H3G11675   3.840   1.280  12.106 -0.2208  0.1956  0.0818
   8723SM   C4F11676   3.988   1.286  12.267 -0.0780 -0.1837  0.5831
   8723SM   H4F11677   4.097   1.308  12.272 -0.1452 -0.1607  2.8415
   8723SM   H4G11678   3.977   1.182  12.304  1.2544 -0.5414  0.0085
   8723SM   C5F11679   3.931   1.386  12.368  0.7752  0.6672  0.4206
   8723SM   H5F11680   3.949   1.488  12.327  1.4588 -0.2497 -1.6711
   8723SM   H5G11681   3.991   1.382  12.462  1.3327  2.6877  0.1919
   8723SM   C6F11682   3.781   1.360  12.397  0.0051  0.4807  0.1558
   8723SM   H6F11683   3.765   1.252  12.418  0.7852  0.3542  0.1278
   8723SM   H6G11684   3.710   1.383  12.315 -0.9874  0.9021  1.1113
   8723SM   C7F11685   3.732   1.449  12.507  0.9698  0.0208 -0.3791
   8723SM   H7F11686   3.795   1.421  12.594 -0.9108 -1.3775  0.6112
   8723SM   H7G11687   3.625   1.434  12.532  1.4662 -0.7025  1.4884
   8723SM   C8F11688   3.740   1.599  12.478 -0.3356 -0.0087  1.2867
   8723SM   H8F11689   3.675   1.618  12.391  0.2618  2.4538  1.3188
   8723SM   H8G11690   3.844   1.628  12.452 -0.0644 -1.0066  1.2151
   8723SM   C9F11691   3.683   1.687  12.589 -0.0226 -0.2161 -0.5912
   8723SM   H9F11692   3.582   1.648  12.616  0.2400 -0.3946  0.1471
   8723SM   H9G11693   3.664   1.792  12.558  0.5336 -0.3478 -1.4105
   8723SM  C10F11694   3.770   1.678  12.718 -0.7312  0.6933 -0.2618
   8723SM  H10F11695   3.873   1.713  12.698  0.7353 -3.3726 -0.6506
   8723SM  H10G11696   3.768   1.571  12.747 -0.8640  0.9174  0.6005
   8723SM  C11F11697   3.714   1.754  12.838  0.4658  0.2676 -0.2662
   8723SM  H11F11698   3.627   1.702  12.883  0.8615  2.3363  3.2262
   8723SM  H11G11699   3.674   1.847  12.793 -1.6794  1.1751  3.1702
   8723SM  C12F11700   3.819   1.768  12.951  0.0670  0.5532  0.4264
   8723SM  H12F11701   3.902   1.829  12.909 -1.0180  2.4497  0.9193
   8723SM  H12G11702   3.859   1.665  12.961 -0.2015  0.2124 -1.5490
   8723SM  C13F11703   3.771   1.828  13.086 -0.2253 -0.2084 -0.3700
   8723SM  H13F11704   3.685   1.776  13.133 -1.6310  0.9905 -1.5142
   8723SM  H13G11705   3.731   1.930  13.070  1.5171  0.6598  0.5084
   8723SM  C14F11706   3.891   1.845  13.182 -0.4523  0.4682  0.8199
   8723SM  H14F11707   3.969   1.902  13.128 -2.2279  3.5221  1.2173
   8723SM  H14G11708   3.926   1.743  13.206 -1.7692 -0.0873  0.4834
   8723SM  C15F11709   3.856   1.926  13.313  0.8650  0.2938  0.0969
   8723SM  H15F11710   3.759   1.882  13.342  0.5222  0.5647 -0.5971
   8723SM  H15G11711   3.839   2.028  13.274 -1.8909 -0.6320 -1.4241
   8723SM  C16F11712   3.972   1.913  13.405  0.4357 -0.0631 -0.3193
   8723SM  H16F11713   4.069   1.951  13.365  0.2116 -1.3020 -2.1595
   8723SM  H16G11714   3.994   1.805  13.420  2.4684 -0.1489 -3.0402
   8723SM  C17F11715   3.945   1.982  13.539 -0.3847  0.5572  0.2040
   8723SM  H17F11716   3.837   1.966  13.560 -0.8133 -0.0615 -2.2154
   8723SM  H17G11717   3.962   2.091  13.530 -1.0530  0.5851 -0.9086
   8723SM  C18F11718   4.038   1.923  13.648  0.0190 -0.1765  0.2842
   8723SM  H18F11719   4.144   1.942  13.619 -0.5283  1.3211 -0.8822
   8723SM  H18G11720   4.025   1.816  13.673  0.1451 -0.2012  0.2430
   8723SM  C19F11721   4.005   1.997  13.778  0.0528  0.6303 -0.3960
   8723SM  H19F11722   3.906   1.956  13.808  0.4987  0.0462  0.3073
   8723SM  H19G11723   4.002   2.107  13.761  2.3764  0.5036 -2.2287
   8723SM  C20F11724   4.105   1.957  13.897  0.7313  0.8883  0.3988
   8723SM  H20F11725   4.161   2.048  13.927  0.4382  0.9504  0.7666
   8723SM  H20G11726   4.185   1.891  13.860 -2.1579 -4.2546  2.2843
   8723SM  C21F11727   4.037   1.888  14.014  0.9557 -0.5783 -0.1727
   8723SM  H21F11728   3.963   1.817  13.971  0.0853  0.4521 -0.4509
   8723SM  H21G11729   3.979   1.960  14.076 -2.2832 -2.7276 -0.4570
   8723SM  C22F11730   4.131   1.809  14.112  0.1218  0.2969 -0.0437
   8723SM  H22F11731   4.196   1.876  14.171  0.2045 -1.4975  2.0409
   8723SM  H22G11732   4.200   1.743  14.054  1.6089  2.0346 -0.3096
   8723SM  C23F11733   4.037   1.739  14.213  0.3271 -0.0207 -0.5642
   8723SM  H23F11734   3.980   1.662  14.156  2.2663 -0.4458 -2.0601
   8723SM  H23G11735   3.974   1.808  14.272  0.9634  0.8481 -0.8902
   8723SM  H23H11736   4.094   1.682  14.290  0.4894  1.5443  0.5210
   8823SM     N11737   0.845   2.011  12.303  0.1271 -0.5019  0.7449
   8823SM   C1511738   0.860   1.900  12.400  0.2494 -0.0320  0.3028
   8823SM  H15A11739   0.941   1.832  12.375 -0.4556 -1.8227  2.5190
   8823SM  H15B11740   0.771   1.843  12.421  0.9267 -1.3256 -0.2053
   8823SM  H15C11741   0.890   1.949  12.491 -0.7043  3.2871 -1.0345
   8823SM   C1411742   0.825   1.967  12.165  0.8992  0.1727 -0.6150
   8823SM  H14A11743   0.818   2.049  12.095 -1.0843 -0.1769 -0.8841
   8823SM  H14B11744   0.743   1.897  12.160  1.3806 -0.4294 -0.1253
   8823SM  H14C11745   0.909   1.911  12.128  0.6332 -0.6667  0.0248
   8823SM   C1311746   0.721   2.086  12.350  0.6993 -0.4384  0.2205
   8823SM  H13A11747   0.637   2.018  12.348 -0.0003  0.4207 -0.1801
   8823SM  H13B11748   0.699   2.173  12.290  3.1271 -0.7599 -1.2955
   8823SM  H13C11749   0.721   2.122  12.452  0.6286  1.5562 -0.4404
   8823SM   C1211750   0.956   2.105  12.304 -0.0312  0.6035 -0.6116
   8823SM  H12A11751   0.941   2.180  12.228 -0.6444  3.1493  1.8581
   8823SM  H12B11752   1.049   2.061  12.272 -0.6762 -1.7083  0.4279
   8823SM   C1111753   0.998   2.188  12.427  0.7976 -0.2303 -0.2264
   8823SM  H11A11754   1.100   2.226  12.409  1.0496 -0.3147  0.9227
   8823SM  H11B11755   1.005   2.115  12.511  1.4753 -0.1218 -0.1836
   8823SM     P11756   0.874   2.415  12.370 -0.4138 -0.2396 -0.0281
   8823SM   O1311757   0.846   2.369  12.234  0.1798 -0.1026  0.5223
   8823SM   O1411758   0.772   2.489  12.435  0.6990 -0.3007 -0.0692
   8823SM   O1111759   1.009   2.494  12.370 -0.6994  0.0337  0.5849
   8823SM   O1211760   0.905   2.290  12.463 -0.0189 -0.0563  0.0028
   8823SM   C1S11761   1.067   2.545  12.498 -0.4306 -0.1123 -0.4606
   8823SM   H1S11762   1.021   2.505  12.590  1.2354  0.6897  0.7725
   8823SM   H1T11763   1.065   2.655  12.506  0.2726 -0.1616  0.6104
   8823SM    NF11764   1.256   2.571  12.635  0.1147  0.1283 -0.1470
   8823SM   HNF11765   1.322   2.646  12.626  1.7834 -1.3486 -0.6429
   8823SM   C2S11766   1.219   2.510  12.513 -0.1951  0.1399  0.4536
   8823SM   H2S11767   1.215   2.399  12.525 -0.4030  0.2602  1.6933
   8823SM   C3S11768   1.308   2.549  12.387  0.4686 -0.6174  0.2693
   8823SM   H3S11769   1.315   2.660  12.387 -1.2431 -0.4400  2.4926
   8823SM    O311770   1.252   2.498  12.264  0.2384  0.1337 -0.4175
   8823SM   HO311771   1.166   2.466  12.293  0.4173 -0.9753 -1.0282
   8823SM   C4S11772   1.440   2.490  12.400 -0.3346 -0.0074  0.2755
   8823SM   H4S11773   1.440   2.382  12.381  0.8319  0.1984 -1.0918
   8823SM   C5S11774   1.557   2.562  12.423  0.4092  0.4742 -0.2972
   8823SM   H5S11775   1.554   2.672  12.424 -2.5300  0.4835 -0.9223
   8823SM   C6S11776   1.693   2.505  12.442  0.5187 -0.4035  0.5001
   8823SM   H6S11777   1.750   2.558  12.521  0.7455  1.6388 -0.9496
   8823SM   H6T11778   1.759   2.522  12.355  1.8289 -0.6000  1.4292
   8823SM   C7S11779   1.719   2.355  12.457  0.2886 -0.3536  0.4679
   8823SM   H7S11780   1.829   2.337  12.458  0.4052  0.2599  1.9562
   8823SM   H7T11781   1.675   2.290  12.379 -0.1134  0.0404  0.3636
   8823SM   C8S11782   1.657   2.293  12.587 -0.3323 -0.1828  0.6273
   8823SM   H8S11783   1.546   2.292  12.581 -0.3052  1.3830 -0.9586
   8823SM   H8T11784   1.688   2.355  12.673  1.5649  1.6025 -1.2256
   8823SM   C9S11785   1.720   2.152  12.603  0.2031 -0.2621  0.0884
   8823SM   H9S11786   1.831   2.158  12.601  0.1148  2.5436 -1.5155
   8823SM   H9T11787   1.688   2.096  12.512  2.0091 -0.4918 -0.4548
   8823SM  C10S11788   1.664   2.084  12.727 -0.3732 -0.0641 -0.5552
   8823SM  H10S11789   1.557   2.056  12.714 -0.3611 -0.8093  0.7429
   8823SM  H10T11790   1.672   2.156  12.811 -0.3733  0.9746 -1.4342
   8823SM  C11S11791   1.736   1.954  12.751 -0.6113  0.0283  0.0962
   8823SM  H11S11792   1.843   1.974  12.773 -0.8108 -0.0554  1.1982
   8823SM  H11T11793   1.732   1.892  12.660  1.9556  1.2502 -0.9554
   8823SM  C12S11794   1.684   1.874  12.874  0.0156  0.8315  0.5839
   8823SM  H12S11795   1.729   1.774  12.861  1.9917  1.8223 -0.8469
   8823SM  H12T11796   1.577   1.867  12.846  0.6991 -0.3960 -2.0864
   8823SM  C13S11797   1.710   1.953  12.999  0.2678  1.0894  0.4545
   8823SM  H13S11798   1.663   2.054  12.998 -0.8173  0.5899  0.3171
   8823SM  H13T11799   1.819   1.970  13.013  0.0442  1.5728  1.8207
   8823SM  C14S11800   1.675   1.879  13.127  0.7190  0.1402  0.4463
   8823SM  H14S11801   1.749   1.801  13.154 -0.0270 -0.8488 -0.3235
   8823SM  H14T11802   1.568   1.848  13.126  1.2974 -2.0252 -1.3445
   8823SM  C15S11803   1.688   1.978  13.251  0.6299  0.7539 -0.0377
   8823SM  H15S11804   1.610   2.057  13.249  0.6982  0.8025 -0.9193
   8823SM  H15T11805   1.786   2.028  13.237  1.8106 -1.3828  0.1610
   8823SM  C16S11806   1.685   1.912  13.391  0.2395 -0.2127  0.5854
   8823SM  H16S11807   1.786   1.866  13.398 -0.3995 -2.2934 -2.2138
   8823SM  H16T11808   1.614   1.827  13.398  1.6230 -1.3007  2.4646
   8823SM  C17S11809   1.671   2.014  13.501  0.5442 -0.3344  0.8870
   8823SM  H17S11810   1.577   2.070  13.480  1.6992  1.5946  0.5612
   8823SM  H17T11811   1.753   2.088  13.487  0.7629 -0.7840 -0.3775
   8823SM  C18S11812   1.656   1.959  13.644 -0.2366 -0.8640  0.8485
   8823SM  H18S11813   1.724   1.875  13.668  1.2261  0.2655  0.8362
   8823SM  H18T11814   1.553   1.920  13.653 -1.8615  2.0693 -2.4936
   8823SM  H18U11815   1.671   2.044  13.714 -0.0064 -0.8583  0.7945
   8823SM   C1F11816   1.204   2.534  12.755  0.0580 -0.7207 -0.3516
   8823SM    OF11817   1.143   2.428  12.770 -0.3437  1.0663 -0.6646
   8823SM   C2F11818   1.229   2.634  12.864 -1.0114 -0.6085 -0.3774
   8823SM   H2F11819   1.280   2.726  12.827 -0.9216  0.1405  1.5177
   8823SM   H2G11820   1.306   2.589  12.930  0.5023  3.0889  0.6424
   8823SM   C3F11821   1.106   2.655  12.960 -0.1419 -0.2114 -0.5727
   8823SM   H3F11822   1.068   2.556  12.992 -1.1561 -0.4128 -2.2920
   8823SM   H3G11823   1.032   2.715  12.903  0.3397  1.6652  0.6545
   8823SM   C4F11824   1.150   2.729  13.086  0.0055  0.2014 -0.7184
   8823SM   H4F11825   1.065   2.787  13.129  1.3397  2.6369 -1.1782
   8823SM   H4G11826   1.228   2.804  13.059 -0.6468  1.0995 -0.1951
   8823SM   C5F11827   1.213   2.639  13.204  0.0629 -0.2394  0.1944
   8823SM   H5F11828   1.279   2.560  13.164 -1.6968 -2.5904  1.6740
   8823SM   H5G11829   1.125   2.575  13.230 -1.7233  1.4136 -1.4362
   8823SM   C6F11830   1.253   2.720  13.332  0.4432  0.1722  0.0915
   8823SM   H6F11831   1.190   2.812  13.331  2.6580  1.7467 -0.7822
   8823SM   H6G11832   1.361   2.743  13.323  0.2645  0.9627 -0.0574
   8823SM   C7F11833   1.236   2.642  13.465  0.3359  0.3223  0.0339
   8823SM   H7F11834   1.284   2.543  13.449 -0.5887 -0.0492 -0.5596
   8823SM   H7G11835   1.128   2.624  13.486  0.4282  0.5404  0.7003
   8823SM   C8F11836   1.296   2.730  13.582 -0.0739  0.3279  0.0845
   8823SM   H8F11837   1.223   2.813  13.593 -1.0892 -0.4845 -0.4087
   8823SM   H8G11838   1.395   2.776  13.560  0.5949 -0.7956  0.6490
   8823SM   C9F11839   1.304   2.652  13.711  0.2847 -0.6489 -0.4077
   8823SM   H9F11840   1.382   2.576  13.689 -1.3547 -1.4774 -4.3184
   8823SM   H9G11841   1.209   2.603  13.738 -0.8284  2.4663  1.8329
   8823SM  C10F11842   1.347   2.739  13.830 -0.9024  0.5984 -0.4733
   8823SM  H10F11843   1.444   2.791  13.815  0.1874 -0.3865  2.4719
   8823SM  H10G11844   1.360   2.674  13.919 -0.9216  0.9796 -0.1873
   8823SM  C11F11845   1.246   2.851  13.874 -0.4019 -0.4097  0.1543
   8823SM  H11F11846   1.149   2.799  13.890 -0.1811 -0.4825  1.3216
   8823SM  H11G11847   1.244   2.925  13.791  1.4692 -0.5222 -0.0372
   8823SM  C12F11848   1.303   2.910  14.006 -0.3047  0.0622 -0.3451
   8823SM  H12F11849   1.412   2.920  13.989 -0.0673 -1.9025 -0.2079
   8823SM  H12G11850   1.286   2.833  14.084  0.1796 -0.7940 -1.0627
   8823SM  C13F11851   1.247   3.045  14.049  0.0297  0.2709  0.0170
   8823SM  H13F11852   1.323   3.085  14.119 -1.4386 -0.5572  2.1972
   8823SM  H13G11853   1.154   3.028  14.108 -0.3254 -2.6641 -1.2187
   8823SM  C14F11854   1.223   3.154  13.948  0.0422 -0.1251  0.2249
   8823SM  H14F11855   1.157   3.132  13.861 -2.5660 -0.3926  2.1707
   8823SM  H14G11856   1.324   3.171  13.904  0.0813 -2.7881 -0.9097
   8823SM  C15F11857   1.163   3.284  14.012 -0.1858 -0.2078  0.2450
   8823SM  H15F11858   1.216   3.291  14.110 -0.3093  0.1333  0.2919
   8823SM  H15G11859   1.053   3.284  14.028 -0.6101  2.6060 -1.8805
   8823SM  C16F11860   1.195   3.404  13.920  0.8418  0.8282  0.2426
   8823SM  H16F11861   1.114   3.406  13.845 -0.4245  1.1634  1.5718
   8823SM  H16G11862   1.288   3.372  13.869  1.4171 -0.8500  2.1679
   8823SM  C17F11863   1.217   3.535  13.988 -0.7793  0.4248  0.0190
   8823SM  H17F11864   1.256   3.513  14.089 -1.0647  1.3424  0.3450
   8823SM  H17G11865   1.120   3.588  14.001 -0.8340  0.8145 -1.6426
   8823SM  C18F11866   1.330   3.623  13.922  0.1800 -0.8765 -0.0988
   8823SM  H18F11867   1.303   3.678  13.829  3.0968  1.3960  0.2374
   8823SM  H18G11868   1.398   3.543  13.886 -0.8415 -2.6794  1.7923
   8823SM  C19F11869   1.400   3.712  14.027 -0.4795 -0.1419 -0.0483
   8823SM  H19F11870   1.491   3.748  13.975 -0.1215 -1.9294 -0.7115
   8823SM  H19G11871   1.431   3.659  14.119  1.3715 -0.2174 -0.6852
   8823SM  C20F11872   1.318   3.836  14.059  0.0901 -0.0448  0.2155
   8823SM  H20F11873   1.224   3.798  14.105  0.1920 -0.4151  0.1210
   8823SM  H20G11874   1.289   3.879  13.960 -0.3904  1.6750  1.0617
   8823SM  C21F11875   1.390   3.935  14.143  0.6595 -0.1931  0.3518
   8823SM  H21F11876   1.414   3.892  14.242  1.5756 -0.0392  0.2068
   8823SM  H21G11877   1.328   4.026  14.158 -0.5123 -0.5990 -1.5901
   8823SM  C22F11878   1.532   3.970  14.095  1.0601 -0.6387 -0.6978
   8823SM  H22F11879   1.534   4.010  13.991  1.0011 -0.1372 -0.5117
   8823SM  H22G11880   1.586   3.874  14.103 -2.0846 -2.4730  0.1944
   8823SM  C23F11881   1.597   4.084  14.178 -0.1170 -0.7874  0.1190
   8823SM  H23F11882   1.523   4.167  14.180 -1.4966 -1.9800  0.9497
   8823SM  H23G11883   1.691   4.117  14.129 -0.6658 -1.0932 -1.1784
   8823SM  H23H11884   1.621   4.035  14.275 -0.7780 -1.9466 -0.2781
   8923SM     N11885   5.584   2.170  11.791  0.2423 -0.2389  0.0880
   8923SM   C1511886   5.502   2.157  11.916 -0.2515  0.2190  0.1365
   8923SM  H15A11887   5.407   2.206  11.907 -0.1339  0.5435  0.6150
   8923SM  H15B11888   5.560   2.206  11.994 -1.4417 -0.4191  1.4678
   8923SM  H15C11889   5.484   2.055  11.947 -2.2835  0.7996  0.9821
   8923SM   C1411890   5.718   2.111  11.814 -0.0422  0.6279 -1.0000
   8923SM  H14A11891   5.762   2.081  11.720  1.1538  1.9455 -0.8939
   8923SM  H14B11892   5.710   2.020  11.872  1.1816  1.0766 -0.0778
   8923SM  H14C11893   5.784   2.184  11.859 -1.2722  1.2196 -0.1110
   8923SM   C1311894   5.516   2.090  11.677  0.0404 -0.0633  0.0655
   8923SM  H13A11895   5.550   2.120  11.579 -0.3777 -0.2656 -0.1459
   8923SM  H13B11896   5.408   2.081  11.678  0.1850 -2.2116 -0.0184
   8923SM  H13C11897   5.551   1.988  11.687  0.1252  0.1336  2.0604
   8923SM   C1211898   5.594   2.303  11.733  0.1302  0.0074  0.6499
   8923SM  H12A11899   5.501   2.340  11.692  1.1364  0.7839 -1.0310
   8923SM  H12B11900   5.660   2.308  11.648  1.0754 -0.2817  1.3464
   8923SM   C1111901   5.640   2.410  11.826 -0.1468 -0.3177 -0.5995
   8923SM  H11A11902   5.573   2.404  11.914 -1.0240  1.1733 -1.1298
   8923SM  H11B11903   5.618   2.509  11.781  0.1306  0.5520  1.0909
   8923SM     P11904   5.838   2.489  11.965 -0.0461  0.4828 -0.2011
   8923SM   O1311905   5.986   2.471  11.973 -0.4990  0.0116 -0.2173
   8923SM   O1411906   5.788   2.626  11.933 -0.2867 -0.5199 -0.8205
   8923SM   O1111907   5.775   2.448  12.105  0.6135 -0.4186 -0.3493
   8923SM   O1211908   5.778   2.389  11.860  0.1491  0.2881  0.6867
   8923SM   C1S11909   5.800   2.315  12.151  0.1139  0.1972 -0.0688
   8923SM   H1S11910   5.911   2.308  12.154  0.1516 -0.2274 -1.5195
   8923SM   H1T11911   5.760   2.242  12.078  2.1083 -0.7451 -0.2953
   8923SM    NF11912   5.819   2.185  12.358  0.7265  0.3143 -0.5790
   8923SM   HNF11913   5.773   2.097  12.363  1.1276  0.1181 -0.2912
   8923SM   C2S11914   5.745   2.289  12.291 -0.0506  0.0041  0.2258
   8923SM   H2S11915   5.763   2.379  12.355  0.1364  1.1025 -1.3258
   8923SM   C3S11916   5.598   2.254  12.281  1.2678 -0.0833  0.3952
   8923SM   H3S11917   5.575   2.172  12.210 -4.8336  0.9184  0.6364
   8923SM    O311918   5.518   2.354  12.215  0.2562  0.2136 -0.1943
   8923SM   HO311919   5.581   2.421  12.189  1.2804 -0.6822 -0.0681
   8923SM   C4S11920   5.543   2.227  12.414  0.8431 -0.2233 -0.4288
   8923SM   H4S11921   5.563   2.305  12.489 -2.0304  1.1594 -0.9825
   8923SM   C5S11922   5.472   2.123  12.455 -0.3595  0.0903  0.3275
   8923SM   H5S11923   5.442   2.046  12.382 -0.9659 -0.4587  1.1443
   8923SM   C6S11924   5.425   2.102  12.598  0.1711 -0.0448  0.6145
   8923SM   H6S11925   5.340   2.031  12.606  1.5653 -1.8941 -0.1112
   8923SM   H6T11926   5.370   2.192  12.633 -1.0349 -0.2774 -0.6236
   8923SM   C7S11927   5.544   2.058  12.692 -0.3691 -0.3653  0.4696
   8923SM   H7S11928   5.613   2.146  12.696 -0.1994 -0.5272  1.1979
   8923SM   H7T11929   5.586   1.971  12.637 -0.9783 -0.3458 -0.0369
   8923SM   C8S11930   5.508   2.023  12.832 -0.6730  0.5607 -0.4562
   8923SM   H8S11931   5.443   1.932  12.825  1.3359 -0.9565 -0.3363
   8923SM   H8T11932   5.446   2.105  12.874 -0.7100 -0.3871  1.4806
   8923SM   C9S11933   5.633   1.987  12.921  0.4646  0.4626 -0.4520
   8923SM   H9S11934   5.702   2.074  12.922  0.1288  0.7359 -0.6874
   8923SM   H9T11935   5.682   1.894  12.884 -0.2837 -0.7601  1.4844
   8923SM  C10S11936   5.584   1.963  13.063  0.0830 -0.6487 -0.0128
   8923SM  H10S11937   5.538   1.862  13.063 -0.4463 -0.4227 -1.4010
   8923SM  H10T11938   5.496   2.023  13.096  0.2973 -0.6536  0.5883
   8923SM  C11S11939   5.693   1.979  13.168 -0.4721 -0.0873  0.4065
   8923SM  H11S11940   5.703   2.090  13.170 -0.0297 -0.0934 -0.6199
   8923SM  H11T11941   5.788   1.928  13.141 -0.6564  0.5441 -1.6248
   8923SM  C12S11942   5.652   1.927  13.309  0.0433  0.1021  0.4599
   8923SM  H12S11943   5.625   1.820  13.298 -3.3940  0.6630  2.1274
   8923SM  H12T11944   5.562   1.984  13.339 -0.8851 -0.8786 -0.3493
   8923SM  C13S11945   5.767   1.943  13.403  0.6460 -0.1943 -0.2246
   8923SM  H13S11946   5.819   2.040  13.390  0.1539  0.5285  2.5732
   8923SM  H13T11947   5.843   1.862  13.392 -1.9175 -2.9521  1.0083
   8923SM  C14S11948   5.715   1.933  13.545 -0.0483  0.1738 -0.9100
   8923SM  H14S11949   5.665   1.834  13.552 -0.8851  0.4162 -2.9596
   8923SM  H14T11950   5.628   1.999  13.565 -0.0334  0.0550 -0.4254
   8923SM  C15S11951   5.830   1.951  13.646 -0.1428  0.0061 -0.4418
   8923SM  H15S11952   5.875   2.053  13.641 -0.9972  0.6131  2.4174
   8923SM  H15T11953   5.911   1.879  13.624  2.1482  1.5728  2.1414
   8923SM  C16S11954   5.789   1.939  13.797 -0.0792  0.0833  1.1568
   8923SM  H16S11955   5.769   1.830  13.806  1.6825 -0.3155  0.7639
   8923SM  H16T11956   5.689   1.984  13.812 -1.9101 -3.2505 -0.1080
   8923SM  C17S11957   5.899   1.972  13.892 -0.0668  0.1314  0.3313
   8923SM  H17S11958   5.912   2.082  13.884  1.9320 -0.1225 -0.5320
   8923SM  H17T11959   5.993   1.920  13.863 -1.5684 -2.1291 -0.8081
   8923SM  C18S11960   5.855   1.944  14.038  0.6485  0.2142 -0.1103
   8923SM  H18S11961   5.772   2.012  14.068  2.7743  2.0166  2.0577
   8923SM  H18T11962   5.940   1.951  14.110 -0.6753  0.1160  1.5183
   8923SM  H18U11963   5.811   1.842  14.035 -0.1614  0.5664 -0.4123
   8923SM   C1F11964   5.944   2.191  12.398  0.0697  0.4727 -0.0999
   8923SM    OF11965   5.999   2.304  12.390 -0.2830  0.3508 -0.1758
   8923SM   C2F11966   6.007   2.061  12.442 -0.1461 -0.0649 -0.3963
   8923SM   H2F11967   6.073   2.019  12.363 -0.6437 -1.9088  0.1064
   8923SM   H2G11968   5.924   1.987  12.446  0.8773 -1.2306  0.6034
   8923SM   C3F11969   6.084   2.069  12.573 -0.1049  0.1402 -0.3960
   8923SM   H3F11970   6.155   2.154  12.577  1.1017 -0.8415  0.1691
   8923SM   H3G11971   6.151   1.980  12.575 -0.1752  0.0941  0.4060
   8923SM   C4F11972   5.996   2.078  12.700 -0.0027 -0.3031 -0.4488
   8923SM   H4F11973   5.959   1.976  12.723  3.3915 -1.8609 -1.2638
   8923SM   H4G11974   5.911   2.149  12.699  0.5691  0.3994 -0.0377
   8923SM   C5F11975   6.078   2.116  12.826 -0.5657  0.6348 -1.6611
   8923SM   H5F11976   6.019   2.118  12.920  1.1016  0.9956 -0.5682
   8923SM   H5G11977   6.112   2.220  12.804 -1.1942  1.1594 -0.2894
   8923SM   C6F11978   6.201   2.025  12.851  1.5040 -0.1083  0.2820
   8923SM   H6F11979   6.277   2.051  12.775  1.5921 -2.6194 -0.5864
   8923SM   H6G11980   6.183   1.919  12.824  0.4991  0.0818  0.1836
   8923SM   C7F11981   6.275   2.025  12.983  0.7094 -0.7480  0.3663
   8923SM   H7F11982   6.283   2.132  13.011 -1.7335  0.1881 -1.9947
   8923SM   H7G11983   6.372   1.979  12.956  1.3825  1.7534 -1.9802
   8923SM   C8F11984   6.199   1.949  13.097  0.9587  0.3061 -0.3138
   8923SM   H8F11985   6.176   1.846  13.061 -0.3940  0.0914  1.0746
   8923SM   H8G11986   6.103   1.997  13.127  1.4072  0.2088  1.3775
   8923SM   C9F11987   6.275   1.933  13.231  0.3900  0.3793 -0.0065
   8923SM   H9F11988   6.296   2.035  13.270 -1.6316  0.6779  0.4209
   8923SM   H9G11989   6.362   1.873  13.196 -0.6263 -0.8832 -0.4549
   8923SM  C10F11990   6.209   1.850  13.349  0.7137 -0.1868 -0.1527
   8923SM  H10F11991   6.213   1.750  13.302  1.4545 -0.8305  1.2444
   8923SM  H10G11992   6.106   1.886  13.368  1.6052  2.6894 -0.2176
   8923SM  C11F11993   6.298   1.837  13.473 -0.2659 -0.1619 -0.0067
   8923SM  H11F11994   6.307   1.935  13.524  0.5159  0.2800 -0.9632
   8923SM  H11G11995   6.405   1.819  13.449  0.9833  4.0107  1.5365
   8923SM  C12F11996   6.248   1.732  13.572 -0.4173 -0.0299  0.5543
   8923SM  H12F11997   6.259   1.631  13.526 -1.8426 -1.2366  2.7238
   8923SM  H12G11998   6.139   1.750  13.586 -0.3454  1.2994 -0.3940
   8923SM  C13F11999   6.318   1.736  13.711 -0.0169  0.3453 -0.4606
   8923SM  H13F12000   6.362   1.837  13.726 -0.1169  0.0278  2.6888
   8923SM  H13G12001   6.406   1.669  13.712  0.7973  1.3769  0.0961
   8923SM  C14F12002   6.227   1.703  13.832 -0.0808  0.7067  0.1016
   8923SM  H14F12003   6.222   1.592  13.830  0.2210  0.6986 -1.2170
   8923SM  H14G12004   6.124   1.742  13.821 -1.1627 -1.4565  1.7204
   8923SM  C15F12005   6.271   1.743  13.971  0.7264 -0.4774  0.7798
   8923SM  H15F12006   6.184   1.734  14.040  0.8325  2.8921  1.5396
   8923SM  H15G12007   6.298   1.851  13.979  1.7035 -0.7034  0.6977
   8923SM  C16F12008   6.400   1.666  14.019 -0.5401 -0.0705 -0.2669
   8923SM  H16F12009   6.480   1.704  13.952 -1.0084 -0.5154 -1.0990
   8923SM  H16G12010   6.384   1.558  13.999 -0.7757 -0.3920  1.5444
   8923SM  C17F12011   6.433   1.691  14.170  0.0276  0.9310  0.5672
   8923SM  H17F12012   6.449   1.798  14.193 -0.8149  1.2426 -0.2300
   8923SM  H17G12013   6.530   1.640  14.192 -0.5122 -0.6153 -0.4431
   8923SM  C18F12014   6.336   1.636  14.265  0.9501 -0.0139  0.0415
   8923SM  H18F12015   6.340   1.525  14.267  0.0983 -0.0432  0.4923
   8923SM  H18G12016   6.234   1.664  14.231  0.8976 -0.6665 -0.3515
   8923SM  C19F12017   6.356   1.679  14.410  0.2988 -0.1092  0.3027
   8923SM  H19F12018   6.295   1.607  14.469 -1.9217 -0.0375 -1.7310
   8923SM  H19G12019   6.306   1.777  14.424 -2.0257 -1.2182  0.2559
   8923SM  C20F12020   6.507   1.675  14.468  0.2422 -0.6056 -0.3342
   8923SM  H20F12021   6.570   1.754  14.423  0.4994  0.0342  1.1013
   8923SM  H20G12022   6.556   1.580  14.435  1.0129 -0.1515 -0.5219
   8923SM  C21F12023   6.512   1.680  14.623  0.1101 -0.5662 -0.3705
   8923SM  H21F12024   6.601   1.621  14.654  0.9202 -0.0098 -1.5104
   8923SM  H21G12025   6.424   1.627  14.664  0.1504 -0.7986 -0.5789
   8923SM  C22F12026   6.523   1.822  14.670  0.4392 -0.1724 -0.6068
   8923SM  H22F12027   6.428   1.871  14.640 -0.7981 -1.9383  0.2214
   8923SM  H22G12028   6.604   1.878  14.618  1.9719 -1.2600  0.5143
   8923SM  C23F12029   6.526   1.850  14.826  0.3251 -0.2110 -0.0770
   8923SM  H23F12030   6.536   1.957  14.855  0.7807 -0.0481 -0.7828
   8923SM  H23G12031   6.609   1.790  14.870  0.8725  0.6551  0.1061
   8923SM  H23H12032   6.431   1.807  14.863 -0.0440 -1.4719 -2.2883
   9023SM     N12033   5.837   1.451  12.027 -0.0128 -0.1770 -0.5886
   9023SM   C1512034   5.736   1.526  12.108  0.6958  0.9163 -0.0971
   9023SM  H15A12035   5.676   1.455  12.162  0.1088  0.8904 -0.7732
   9023SM  H15B12036   5.670   1.589  12.051  0.7417  0.3905 -0.7502
   9023SM  H15C12037   5.785   1.593  12.177  2.7151 -1.0722  0.5383
   9023SM   C1412038   5.757   1.351  11.942  0.0800  0.7077  0.2323
   9023SM  H14A12039   5.730   1.265  12.002  0.5396  0.9398  0.7680
   9023SM  H14B12040   5.811   1.309  11.858 -1.4175 -0.9670  0.0347
   9023SM  H14C12041   5.665   1.389  11.901  0.4740  0.3656 -1.0134
   9023SM   C1312042   5.887   1.542  11.925  0.9676 -0.6430  0.0090
   9023SM  H13A12043   5.995   1.543  11.933  1.1207  2.4052 -1.1842
   9023SM  H13B12044   5.858   1.641  11.955 -0.4056 -1.1645  0.5012
   9023SM  H13C12045   5.852   1.526  11.824 -1.9630 -0.0091  0.8185
   9023SM   C1212046   5.943   1.381  12.098 -0.3304 -0.0049  0.0016
   9023SM  H12A12047   6.017   1.353  12.024 -0.3767  1.4141 -0.6118
   9023SM  H12B12048   5.911   1.291  12.149  1.3389 -0.3897  0.4373
   9023SM   C1112049   6.017   1.450  12.212 -0.1151 -0.4425  0.3109
   9023SM  H11A12050   6.094   1.377  12.244  0.0927  0.0410  0.9337
   9023SM  H11B12051   5.949   1.470  12.298 -1.0585  1.1814 -0.7469
   9023SM     P12052   6.085   1.714  12.222  0.1195  0.3840 -0.2508
   9023SM   O1312053   6.214   1.781  12.189 -0.3408 -0.1680 -0.5642
   9023SM   O1412054   5.953   1.773  12.194  0.4865 -0.1490 -0.2083
   9023SM   O1112055   6.078   1.680  12.374  0.0167  0.7968  1.0104
   9023SM   O1212056   6.093   1.565  12.163  0.2994 -0.7086 -0.2048
   9023SM   C1S12057   6.185   1.640  12.447 -0.1701  0.3076  0.4981
   9023SM   H1S12058   6.277   1.698  12.425 -1.9472  2.6270 -1.3677
   9023SM   H1T12059   6.212   1.533  12.446  1.8239  0.7655  0.4664
   9023SM    NF12060   6.275   1.628  12.671 -0.3730 -0.1885 -0.9541
   9023SM   HNF12061   6.269   1.553  12.737 -0.5940  0.8890  0.3085
   9023SM   C2S12062   6.159   1.664  12.593  0.1766  0.1517 -0.0265
   9023SM   H2S12063   6.138   1.771  12.614  0.4297  0.1336  0.3272
   9023SM   C3S12064   6.027   1.585  12.640  0.3380 -1.0422  0.1768
   9023SM   H3S12065   6.036   1.476  12.623  4.3181 -0.7682 -0.5106
   9023SM    O312066   5.914   1.622  12.561 -0.1057  0.0060 -0.2950
   9023SM   HO312067   5.954   1.653  12.479 -0.4437 -1.1645 -0.9264
   9023SM   C4S12068   6.001   1.609  12.784 -0.2978 -0.1923  0.1752
   9023SM   H4S12069   6.065   1.545  12.846 -1.0661  0.3114  1.5213
   9023SM   C5S12070   5.919   1.699  12.843  0.7802 -0.3156 -0.6237
   9023SM   H5S12071   5.866   1.768  12.776 -0.2920  0.7053  1.1856
   9023SM   C6S12072   5.891   1.715  12.989 -0.6591 -0.5801  0.1839
   9023SM   H6S12073   5.781   1.719  13.004 -0.8399  0.0722 -1.1479
   9023SM   H6T12074   5.911   1.820  13.018 -1.8076 -0.3692  0.2501
   9023SM   C7S12075   5.967   1.621  13.089 -0.0256 -0.2797  0.7199
   9023SM   H7S12076   6.078   1.632  13.085 -0.2123  1.7535 -0.5862
   9023SM   H7T12077   5.948   1.513  13.073  0.2480 -0.2200 -0.0728
   9023SM   C8S12078   5.919   1.656  13.233 -0.2135  0.6807  0.3502
   9023SM   H8S12079   5.809   1.655  13.223 -0.2538  0.6004  0.8149
   9023SM   H8T12080   5.962   1.756  13.256  2.4398 -0.6001  1.3407
   9023SM   C9S12081   5.967   1.556  13.333  0.0504  0.6665 -0.3202
   9023SM   H9S12082   6.076   1.572  13.347 -0.0548  0.5673  0.6987
   9023SM   H9T12083   5.949   1.449  13.308  2.0850  0.4503 -1.0116
   9023SM  C10S12084   5.897   1.581  13.463 -0.7519  0.6857 -0.5489
   9023SM  H10S12085   5.787   1.567  13.457 -1.2816  2.2898  2.7921
   9023SM  H10T12086   5.923   1.684  13.497 -1.0604  1.0287 -1.3459
   9023SM  C11S12087   5.953   1.491  13.583 -0.6134  0.2739 -0.9009
   9023SM  H11S12088   6.058   1.528  13.588  0.0271 -1.6136  1.1108
   9023SM  H11T12089   5.954   1.382  13.564  0.8944  0.1496 -0.2894
   9023SM  C12S12090   5.888   1.531  13.711 -0.3171  0.0632 -0.0368
   9023SM  H12S12091   5.781   1.504  13.706 -0.8737  1.7417  1.6302
   9023SM  H12T12092   5.892   1.641  13.722 -0.6678  0.0773 -0.0488
   9023SM  C13S12093   5.945   1.457  13.832 -0.2343  0.1178 -0.3884
   9023SM  H13S12094   6.054   1.436  13.839 -0.5589 -1.1024  3.7403
   9023SM  H13T12095   5.907   1.352  13.836 -1.3862  0.5150 -0.3907
   9023SM  C14S12096   5.892   1.527  13.960  0.3018 -0.2852  0.3939
   9023SM  H14S12097   5.782   1.524  13.950  0.2359  0.4832  0.8206
   9023SM  H14T12098   5.937   1.628  13.974  2.7491 -1.1557 -0.6440
   9023SM  C15S12099   5.927   1.466  14.103 -0.0226 -0.0777  1.2723
   9023SM  H15S12100   6.037   1.476  14.107  0.3679 -0.0513 -3.3815
   9023SM  H15T12101   5.897   1.360  14.095 -2.9442  0.6784  0.9112
   9023SM  C16S12102   5.859   1.546  14.211 -0.2850  0.3777  0.3958
   9023SM  H16S12103   5.760   1.500  14.229 -0.2797 -0.5731 -1.7456
   9023SM  H16T12104   5.848   1.651  14.177  2.3260  0.4966 -0.3256
   9023SM  C17S12105   5.952   1.540  14.338  0.3773  0.2766  0.6507
   9023SM  H17S12106   5.930   1.635  14.391  0.3303  0.6117  0.0366
   9023SM  H17T12107   6.058   1.555  14.306 -0.2114  0.4444 -1.3872
   9023SM  C18S12108   5.939   1.408  14.420  0.1643 -0.2880  0.2712
   9023SM  H18S12109   5.968   1.319  14.361  0.9683  0.6140 -0.7223
   9023SM  H18T12110   5.835   1.384  14.451  0.1095  2.4155  2.6176
   9023SM  H18U12111   5.994   1.421  14.516  2.0684  2.4424 -1.0479
   9023SM   C1F12112   6.394   1.698  12.669 -0.4666  1.2954 -0.4560
   9023SM    OF12113   6.412   1.793  12.604 -0.0979  0.1717  0.8834
   9023SM   C2F12114   6.498   1.645  12.764  0.0263 -1.0487 -0.1650
   9023SM   H2F12115   6.597   1.668  12.719 -0.6175 -0.7861 -1.4884
   9023SM   H2G12116   6.488   1.534  12.771 -1.7968 -0.8641  0.8761
   9023SM   C3F12117   6.508   1.723  12.896  0.3253 -0.7202  0.1470
   9023SM   H3F12118   6.412   1.719  12.952 -0.4782 -1.1442 -1.1983
   9023SM   H3G12119   6.523   1.830  12.868 -4.6532 -0.1109 -1.2574
   9023SM   C4F12120   6.602   1.670  13.002  0.0969  0.3417 -0.7033
   9023SM   H4F12121   6.689   1.612  12.965 -2.6250 -3.1137 -2.2149
   9023SM   H4G12122   6.547   1.596  13.063 -0.0041  0.2761 -0.8747
   9023SM   C5F12123   6.660   1.779  13.082 -0.3344 -0.8201 -0.5242
   9023SM   H5F12124   6.578   1.851  13.103  0.9540 -0.0286  2.2776
   9023SM   H5G12125   6.743   1.840  13.039  1.6467 -1.6665  1.8470
   9023SM   C6F12126   6.688   1.730  13.231  0.7385 -0.0921  0.6950
   9023SM   H6F12127   6.783   1.672  13.231  0.7663 -0.0603  1.6726
   9023SM   H6G12128   6.602   1.662  13.251  0.7274 -0.1585  0.4376
   9023SM   C7F12129   6.703   1.839  13.331  0.5553  0.2918 -0.2283
   9023SM   H7F12130   6.621   1.914  13.329  1.6869  1.5588 -0.9813
   9023SM   H7G12131   6.803   1.886  13.317  0.7705  0.8166  2.4473
   9023SM   C8F12132   6.691   1.781  13.480 -0.6075  0.1578 -0.0524
   9023SM   H8F12133   6.629   1.689  13.486 -0.1280 -0.1155  1.0226
   9023SM   H8G12134   6.641   1.858  13.543  1.0647  2.7342 -1.7096
   9023SM   C9F12135   6.823   1.735  13.539 -0.1110 -0.2596  0.2120
   9023SM   H9F12136   6.881   1.830  13.544 -2.3468  1.1499  1.7171
   9023SM   H9G12137   6.875   1.653  13.487  2.4533  1.5400 -0.2591
   9023SM  C10F12138   6.822   1.687  13.686  0.1487  0.6025 -0.6845
   9023SM  H10F12139   6.927   1.660  13.707 -0.2165  1.9285  3.8681
   9023SM  H10G12140   6.755   1.599  13.702  0.6553  0.3856  0.3122
   9023SM  C11F12141   6.778   1.805  13.775 -0.1171 -0.0448  0.0771
   9023SM  H11F12142   6.685   1.857  13.742 -0.5374 -1.3310 -0.8355
   9023SM  H11G12143   6.862   1.878  13.773 -0.4395  0.3431  0.6359
   9023SM  C12F12144   6.781   1.783  13.926  0.0575 -0.0010 -0.8846
   9023SM  H12F12145   6.879   1.735  13.946  0.7866  0.7036 -2.5730
   9023SM  H12G12146   6.695   1.721  13.960 -0.6628  2.0381  1.2739
   9023SM  C13F12147   6.763   1.914  14.009 -0.2142  0.2370 -0.3756
   9023SM  H13F12148   6.664   1.961  13.990  0.7389  2.2170 -0.8049
   9023SM  H13G12149   6.851   1.974  13.975 -0.5693  0.2963 -1.2233
   9023SM  C14F12150   6.788   1.879  14.155  0.1854 -0.2724 -0.2536
   9023SM  H14F12151   6.865   1.800  14.172 -1.9163 -2.4940 -0.5035
   9023SM  H14G12152   6.688   1.836  14.175 -0.3015  0.3481 -1.2920
   9023SM  C15F12153   6.806   2.009  14.236 -0.6117 -0.0840 -0.3552
   9023SM  H15F12154   6.720   2.077  14.218 -0.5829  0.3408  1.0273
   9023SM  H15G12155   6.893   2.049  14.179 -0.5700  0.2034 -0.0932
   9023SM  C16F12156   6.834   1.993  14.385  0.1341  0.4668 -0.7842
   9023SM  H16F12157   6.923   1.929  14.403  1.1876  1.4469 -2.1672
   9023SM  H16G12158   6.747   1.943  14.432  1.3027  0.5490  1.6058
   9023SM  C17F12159   6.873   2.131  14.443  0.1790 -0.1132 -0.3175
   9023SM  H17F12160   6.801   2.205  14.403  2.5464  1.8706 -1.1495
   9023SM  H17G12161   6.973   2.166  14.409  0.5072 -1.2905 -0.5896
   9023SM  C18F12162   6.867   2.141  14.593 -0.4084  0.3699 -0.4461
   9023SM  H18F12163   6.768   2.101  14.622  0.0601  0.6909  1.7563
   9023SM  H18G12164   6.864   2.249  14.619 -0.3274  0.0010  1.2013
   9023SM  C19F12165   6.976   2.078  14.680  0.2034 -0.1237 -0.2753
   9023SM  H19F12166   7.067   2.128  14.640  1.6463 -2.0039  0.4886
   9023SM  H19G12167   6.990   1.968  14.666  2.6343  0.0558  0.2792
   9023SM  C20F12168   6.955   2.098  14.834  0.3925 -0.1186 -0.0478
   9023SM  H20F12169   6.980   2.204  14.860  0.6631 -0.0133 -0.7039
   9023SM  H20G12170   7.026   2.031  14.888  1.5018  0.4079 -0.8086
   9023SM  C21F12171   6.818   2.062  14.897  0.3158  0.2575 -0.5131
   9023SM  H21F12172   6.806   1.954  14.874  0.8383  0.4994 -2.0501
   9023SM  H21G12173   6.738   2.119  14.844 -1.5240  0.3172  2.1423
   9023SM  C22F12174   6.810   2.097  15.049  0.4449 -0.7299 -0.3370
   9023SM  H22F12175   6.821   2.204  15.073  0.4170 -0.4783 -1.3662
   9023SM  H22G12176   6.890   2.045  15.106  0.5197  0.8364  1.0221
   9023SM  C23F12177   6.670   2.048  15.102 -0.4487  0.2891 -0.1199
   9023SM  H23F12178   6.646   2.090  15.202  0.0913  0.0764  0.1013
   9023SM  H23G12179   6.667   1.937  15.107 -0.5181 -0.1561 -5.0250
   9023SM  H23H12180   6.591   2.066  15.026 -0.1450  2.3579 -0.0025
   9123SM     N12181   7.265   5.187  12.003 -0.0452 -0.0156 -0.2850
   9123SM   C1512182   7.352   5.079  12.069  0.5262 -0.2560  0.3205
   9123SM  H15A12183   7.297   4.985  12.068  1.4080 -0.7849  0.5937
   9123SM  H15B12184   7.369   5.107  12.171 -0.3647 -0.0619  0.4257
   9123SM  H15C12185   7.450   5.066  12.025 -0.0601  2.7213 -2.2119
   9123SM   C1412186   7.351   5.300  11.953  0.9658  0.0890 -0.8440
   9123SM  H14A12187   7.416   5.347  12.026 -1.9332  2.1255  0.6732
   9123SM  H14B12188   7.287   5.379  11.917  0.8738  0.3375 -0.1609
   9123SM  H14C12189   7.416   5.265  11.874  1.2812 -1.3943  0.0343
   9123SM   C1312190   7.206   5.126  11.876  0.0380 -0.0273  0.2881
   9123SM  H13A12191   7.169   5.206  11.815 -0.3161  0.4357  1.1032
   9123SM  H13B12192   7.125   5.058  11.899  1.1210 -1.1044  1.1131
   9123SM  H13C12193   7.290   5.073  11.832 -1.1450 -0.1260 -1.9924
   9123SM   C1212194   7.151   5.241  12.086 -0.6692 -0.1023  0.0459
   9123SM  H12A12195   7.084   5.292  12.019 -0.2542  0.2484 -0.1073
   9123SM  H12B12196   7.192   5.311  12.157 -0.6208  0.3988 -0.4748
   9123SM   C1112197   7.059   5.133  12.144 -0.0051  0.2744 -0.3316
   9123SM  H11A12198   6.980   5.185  12.202  0.9842 -1.1335  2.4409
   9123SM  H11B12199   7.113   5.075  12.221  0.0239  0.6989 -0.0309
   9123SM     P12200   6.840   5.075  12.000 -0.1392 -0.1639  0.2606
   9123SM   O1312201   6.831   5.217  11.960 -0.3420  0.2235 -0.0906
   9123SM   O1412202   6.801   4.974  11.899  0.3331  0.0707 -0.1555
   9123SM   O1112203   6.752   5.056  12.133  0.0594  0.7393  0.0021
   9123SM   O1212204   6.995   5.049  12.046  0.2441  0.8788  0.5422
   9123SM   C1S12205   6.771   4.936  12.214  0.4934  0.5079  0.8067
   9123SM   H1S12206   6.875   4.899  12.223 -0.5762 -3.0770 -0.1589
   9123SM   H1T12207   6.712   4.853  12.170  2.7842 -0.9827  0.3842
   9123SM    NF12208   6.747   4.862  12.449  0.5112  0.3742  0.2405
   9123SM   HNF12209   6.686   4.785  12.464  2.0627 -1.0956 -0.7226
   9123SM   C2S12210   6.712   4.964  12.358  1.0711 -0.3063 -0.0623
   9123SM   H2S12211   6.746   5.065  12.389 -0.2837  0.8804 -2.2285
   9123SM   C3S12212   6.559   4.969  12.346  0.3871 -1.3838 -0.5335
   9123SM   H3S12213   6.517   4.873  12.309 -1.5028 -0.8792  0.1606
   9123SM    O312214   6.510   5.063  12.248 -0.2998  0.1512  0.1730
   9123SM   HO312215   6.595   5.087  12.210  0.4497  0.8714  2.2106
   9123SM   C4S12216   6.497   4.994  12.478  0.7975 -0.3719 -0.6155
   9123SM   H4S12217   6.479   4.901  12.534  4.2201 -0.2269  0.9604
   9123SM   C5S12218   6.475   5.104  12.553  0.5329 -0.0895 -0.2393
   9123SM   H5S12219   6.511   5.196  12.506  1.1627 -1.2000 -2.0286
   9123SM   C6S12220   6.404   5.114  12.685  0.3977  0.4138  0.3172
   9123SM   H6S12221   6.298   5.146  12.675 -0.5387 -1.7470  2.4133
   9123SM   H6T12222   6.452   5.196  12.741  1.5999  0.1561 -0.3053
   9123SM   C7S12223   6.378   4.990  12.778 -0.7149 -0.3797  0.6095
   9123SM   H7S12224   6.469   4.926  12.773  0.0920  0.7105  1.1081
   9123SM   H7T12225   6.299   4.929  12.729 -0.1216 -0.3307 -0.4404
   9123SM   C8S12226   6.325   5.032  12.912 -0.1542 -0.0069  0.0668
   9123SM   H8S12227   6.235   5.095  12.894 -0.3328 -0.3755 -0.3478
   9123SM   H8T12228   6.398   5.096  12.967 -1.1499 -0.1077  1.5781
   9123SM   C9S12229   6.287   4.917  13.004  0.6241  0.1653  0.3939
   9123SM   H9S12230   6.377   4.857  13.028 -0.7862 -1.8976  0.8889
   9123SM   H9T12231   6.225   4.843  12.949  0.3910  0.4042  0.3344
   9123SM  C10S12232   6.216   4.958  13.131 -0.0948 -0.2579  0.7103
   9123SM  H10S12233   6.119   4.998  13.094  1.8192  3.1332 -1.0845
   9123SM  H10T12234   6.279   5.036  13.176  1.4609 -0.5263 -0.9008
   9123SM  C11S12235   6.189   4.843  13.225  0.2412 -0.4446 -0.3186
   9123SM  H11S12236   6.292   4.805  13.245 -0.8117 -2.4199  1.9819
   9123SM  H11T12237   6.133   4.762  13.173  0.3380 -0.3318 -0.5974
   9123SM  C12S12238   6.110   4.887  13.348 -0.2067 -0.0333  0.0826
   9123SM  H12S12239   6.006   4.912  13.317  0.0697  0.7873 -0.2217
   9123SM  H12T12240   6.159   4.980  13.384  0.7344  0.0176 -1.2396
   9123SM  C13S12241   6.104   4.769  13.448 -1.5150  0.4608 -0.0129
   9123SM  H13S12242   6.066   4.683  13.389 -1.1966  1.3818 -1.6227
   9123SM  H13T12243   6.032   4.792  13.529 -1.3859  0.1670  0.1906
   9123SM  C14S12244   6.237   4.723  13.513 -0.7083  0.3823 -0.1565
   9123SM  H14S12245   6.291   4.811  13.552 -1.3560  1.2461 -1.1646
   9123SM  H14T12246   6.307   4.679  13.438  2.1959  2.6595  1.0606
   9123SM  C15S12247   6.206   4.621  13.626 -0.0681  0.5429  0.0047
   9123SM  H15S12248   6.124   4.553  13.594  0.7892 -0.9921  0.9633
   9123SM  H15T12249   6.177   4.676  13.719 -0.7081 -1.2898  0.9344
   9123SM  C16S12250   6.336   4.546  13.661 -0.6492  0.4737 -0.4450
   9123SM  H16S12251   6.416   4.620  13.683  1.5179 -1.4202 -1.5643
   9123SM  H16T12252   6.368   4.491  13.570  0.3802  0.0227  0.1786
   9123SM  C17S12253   6.321   4.442  13.766  0.0890  0.8075  0.0363
   9123SM  H17S12254   6.413   4.379  13.766 -0.6035 -0.3076  1.7767
   9123SM  H17T12255   6.229   4.386  13.741  0.5046  0.0476  0.1722
   9123SM  C18S12256   6.319   4.487  13.912 -0.4789 -0.4071 -0.4965
   9123SM  H18S12257   6.295   4.404  13.981 -0.3822  1.5337  2.0296
   9123SM  H18T12258   6.243   4.566  13.932  1.5985  1.4035  0.7502
   9123SM  H18U12259   6.415   4.534  13.943 -0.5748 -0.3167 -0.3361
   9123SM   C1F12260   6.872   4.854  12.491  0.1167  0.1292  0.1233
   9123SM    OF12261   6.954   4.933  12.442 -0.5035 -0.2250  0.3548
   9123SM   C2F12262   6.902   4.749  12.592 -0.2927  0.3546 -0.4926
   9123SM   H2F12263   6.985   4.686  12.552 -1.6582 -1.8764 -0.0240
   9123SM   H2G12264   6.817   4.680  12.610  0.7732 -0.6179  1.0363
   9123SM   C3F12265   6.963   4.813  12.722 -0.5330 -0.6850  0.7742
   9123SM   H3F12266   7.051   4.875  12.696 -1.3367 -0.5449 -1.7937
   9123SM   H3G12267   6.997   4.729  12.787  1.8096 -0.0229  0.4747
   9123SM   C4F12268   6.862   4.894  12.806  0.0640  0.3023  0.0807
   9123SM   H4F12269   6.821   4.986  12.757  0.3675  0.3329 -0.1213
   9123SM   H4G12270   6.907   4.930  12.902 -3.4470 -0.2158  2.0824
   9123SM   C5F12271   6.739   4.822  12.854  0.4914  0.0627 -0.2775
   9123SM   H5F12272   6.685   4.786  12.764  2.3895 -1.0917 -1.0336
   9123SM   H5G12273   6.681   4.901  12.907  0.6283 -0.3795  0.5560
   9123SM   C6F12274   6.757   4.696  12.943  0.1192 -0.6523 -1.0674
   9123SM   H6F12275   6.781   4.719  13.049 -0.9806 -2.6389 -0.3384
   9123SM   H6G12276   6.842   4.630  12.914 -0.3582 -1.9222  0.3059
   9123SM   C7F12277   6.639   4.596  12.943  0.3267  0.4481  0.2197
   9123SM   H7F12278   6.611   4.579  12.837 -0.9537 -0.1960  0.6463
   9123SM   H7G12279   6.552   4.645  12.991  0.0989  0.7271 -0.4722
   9123SM   C8F12280   6.670   4.457  13.009 -0.3725  0.3680  0.2711
   9123SM   H8F12281   6.770   4.426  12.971 -1.1734 -1.3663 -0.5488
   9123SM   H8G12282   6.588   4.386  12.987 -0.9834  0.9395  0.6801
   9123SM   C9F12283   6.686   4.465  13.166 -0.0265 -0.2518 -0.3944
   9123SM   H9F12284   6.593   4.518  13.197  0.4570 -0.9880  2.6166
   9123SM   H9G12285   6.768   4.530  13.203 -0.8358 -0.5787  2.1699
   9123SM  C10F12286   6.706   4.330  13.235 -0.0012  0.2028 -0.0057
   9123SM  H10F12287   6.781   4.272  13.177 -1.0230  0.4757 -1.6467
   9123SM  H10G12288   6.610   4.275  13.233 -0.7582  1.4898 -0.0740
   9123SM  C11F12289   6.753   4.351  13.376 -0.1833  0.0946  0.5870
   9123SM  H11F12290   6.680   4.410  13.435 -1.0890 -1.0521  0.6361
   9123SM  H11G12291   6.850   4.405  13.378 -1.1914  1.9590  1.4945
   9123SM  C12F12292   6.767   4.219  13.454 -0.1932  0.0471 -0.6664
   9123SM  H12F12293   6.843   4.171  13.389  0.9927  0.8485  0.0845
   9123SM  H12G12294   6.677   4.156  13.440  1.2979 -2.2353 -0.5248
   9123SM  C13F12295   6.827   4.238  13.597 -0.7874  0.2316  0.0944
   9123SM  H13F12296   6.898   4.322  13.582 -0.7558 -0.0602 -1.7236
   9123SM  H13G12297   6.880   4.143  13.621  0.0375  0.4741 -0.7119
   9123SM  C14F12298   6.725   4.272  13.702  0.0080  0.7544 -0.3071
   9123SM  H14F12299   6.645   4.196  13.700 -0.3406  1.0993  0.1462
   9123SM  H14G12300   6.675   4.366  13.669 -0.3923  0.4765 -0.4864
   9123SM  C15F12301   6.779   4.297  13.842 -0.2608  0.2288  0.2849
   9123SM  H15F12302   6.849   4.382  13.828 -4.2615  3.7316 -0.6385
   9123SM  H15G12303   6.827   4.200  13.868 -2.6147 -1.7666 -2.2073
   9123SM  C16F12304   6.672   4.347  13.936  0.8043  0.0722 -0.2600
   9123SM  H16F12305   6.623   4.433  13.886 -1.4958 -1.3821 -0.6248
   9123SM  H16G12306   6.723   4.384  14.027 -0.8464 -1.1613  1.2303
   9123SM  C17F12307   6.578   4.235  13.985  0.7536 -0.4889 -0.5612
   9123SM  H17F12308   6.637   4.142  14.000 -0.2183 -0.9400  0.6846
   9123SM  H17G12309   6.493   4.212  13.916  0.1350 -0.3316  0.1365
   9123SM  C18F12310   6.512   4.273  14.120 -0.5905 -0.7223 -0.6676
   9123SM  H18F12311   6.451   4.365  14.103  1.0576  0.2179 -1.7900
   9123SM  H18G12312   6.589   4.293  14.198 -1.1376  1.8687 -0.7027
   9123SM  C19F12313   6.416   4.168  14.186 -0.2885  0.0759  0.2178
   9123SM  H19F12314   6.332   4.149  14.116  1.6509 -3.8159 -1.3784
   9123SM  H19G12315   6.386   4.210  14.284  0.0039  0.6614  0.0657
   9123SM  C20F12316   6.486   4.031  14.207 -0.4709  0.2556 -0.3047
   9123SM  H20F12317   6.568   4.050  14.279 -1.5365  1.1270  0.7140
   9123SM  H20G12318   6.526   3.991  14.111  2.9995  3.0446 -0.2439
   9123SM  C21F12319   6.383   3.934  14.275 -0.5945 -0.0696  0.1228
   9123SM  H21F12320   6.294   3.941  14.209  2.5250  0.6647 -4.4413
   9123SM  H21G12321   6.359   3.972  14.377 -1.1672 -1.5899  0.5809
   9123SM  C22F12322   6.437   3.795  14.297 -0.0659  0.2534 -0.0801
   9123SM  H22F12323   6.383   3.759  14.388  0.4678 -0.0367  0.1224
   9123SM  H22G12324   6.542   3.810  14.329 -0.8932  3.8312  1.5426
   9123SM  C23F12325   6.426   3.705  14.173  0.1891  0.3096 -0.8022
   9123SM  H23F12326   6.316   3.689  14.159  0.0446  1.1441 -0.6803
   9123SM  H23G12327   6.473   3.606  14.187 -0.6966  0.3095  3.2881
   9123SM  H23H12328   6.460   3.765  14.086 -0.9293  1.3962 -0.5133
   9223SM     N12329   6.212   0.890  12.305  0.3238 -0.4866  1.0615
   9223SM   C1512330   6.156   0.945  12.430  0.8251  0.2609  0.0329
   9223SM  H15A12331   6.121   1.045  12.409  1.0243  0.4281  0.5012
   9223SM  H15B12332   6.231   0.934  12.507  1.4037 -2.6946 -0.8070
   9223SM  H15C12333   6.064   0.895  12.457  1.4491 -1.3666 -0.7214
   9223SM   C1412334   6.329   0.966  12.263  0.1474  0.1840 -0.5764
   9223SM  H14A12335   6.391   0.970  12.351  1.4269 -0.1519 -1.4199
   9223SM  H14B12336   6.302   1.064  12.227  0.1972  0.6388  0.5926
   9223SM  H14C12337   6.388   0.921  12.185  0.4079  2.3435 -1.7047
   9223SM   C1312338   6.265   0.754  12.338 -0.1217 -0.3922  0.1049
   9223SM  H13A12339   6.319   0.754  12.432 -0.1999  0.5483  0.1550
   9223SM  H13B12340   6.335   0.721  12.262  1.1894  3.1376 -0.3916
   9223SM  H13C12341   6.185   0.681  12.343  1.0595 -1.8025 -0.6380
   9223SM   C1212342   6.104   0.891  12.193 -0.3779  0.3037  0.4382
   9223SM  H12A12343   6.025   0.824  12.224 -0.1678 -1.3743 -2.3071
   9223SM  H12B12344   6.145   0.854  12.101  0.1244  2.9800 -0.5013
   9223SM   C1112345   6.045   1.025  12.154 -0.7482  0.8288  0.0270
   9223SM  H11A12346   5.978   1.013  12.067 -1.2475 -2.1033  0.6870
   9223SM  H11B12347   6.124   1.093  12.116 -0.6844  0.3212 -0.7715
   9223SM     P12348   5.822   1.050  12.288  0.2322 -0.0889  0.2685
   9223SM   O1312349   5.755   1.101  12.160  0.2348  0.5362  0.4200
   9223SM   O1412350   5.805   0.908  12.326  0.1685  0.6127  0.6344
   9223SM   O1112351   5.785   1.143  12.412 -0.6856  0.4315  0.2116
   9223SM   O1212352   5.975   1.083  12.267 -0.1447  0.6044  0.2187
   9223SM   C1S12353   5.740   1.275  12.395  0.2500 -0.0252  0.0646
   9223SM   H1S12354   5.714   1.308  12.292 -0.4191  2.3615  0.9246
   9223SM   H1T12355   5.831   1.336  12.413  0.6988 -0.7931  0.4265
   9223SM    NF12356   5.642   1.480  12.469 -0.2039 -0.1376  0.1831
   9223SM   HNF12357   5.705   1.541  12.515 -0.8628  1.5528 -1.0392
   9223SM   C2S12358   5.644   1.335  12.494 -0.1791  0.5227 -1.1139
   9223SM   H2S12359   5.543   1.294  12.474 -1.1539  1.7886  0.8550
   9223SM   C3S12360   5.704   1.293  12.642 -0.0168 -0.2396 -0.0180
   9223SM   H3S12361   5.799   1.341  12.673 -1.2438  1.9790  0.5173
   9223SM    O312362   5.719   1.155  12.667  0.3077 -0.1867 -0.1775
   9223SM   HO312363   5.736   1.109  12.584 -0.4762  1.1971 -1.1522
   9223SM   C4S12364   5.602   1.351  12.740  0.1724 -0.3470 -0.5983
   9223SM   H4S12365   5.501   1.316  12.711  1.4125 -3.9570 -1.0897
   9223SM   C5S12366   5.625   1.442  12.838 -0.0285  0.2421  0.4399
   9223SM   H5S12367   5.727   1.482  12.845  0.6741 -0.8920 -2.1770
   9223SM   C6S12368   5.528   1.506  12.932 -0.3418 -0.2303 -0.1982
   9223SM   H6S12369   5.421   1.484  12.913 -0.3042  1.4214 -2.8617
   9223SM   H6T12370   5.526   1.616  12.917 -1.7274 -0.4679 -2.3095
   9223SM   C7S12371   5.559   1.461  13.083 -0.2802  0.1786  0.1870
   9223SM   H7S12372   5.666   1.488  13.094 -0.5764  1.3601  0.2823
   9223SM   H7T12373   5.553   1.352  13.100  0.4947  0.0684 -0.2381
   9223SM   C8S12374   5.482   1.536  13.188 -0.1119 -0.3056  0.2877
   9223SM   H8S12375   5.372   1.525  13.180 -0.1410 -1.8226  2.0239
   9223SM   H8T12376   5.505   1.644  13.181 -0.1069 -0.3300 -0.0871
   9223SM   C9S12377   5.516   1.502  13.328  0.3846 -1.2506  0.3883
   9223SM   H9S12378   5.626   1.514  13.332  0.2291  1.3526 -0.8067
   9223SM   H9T12379   5.500   1.393  13.339 -1.1333 -1.2101 -1.0813
   9223SM  C10S12380   5.448   1.587  13.446 -0.6653  0.0465  0.1752
   9223SM  H10S12381   5.338   1.589  13.435 -0.6086  3.3770 -1.1219
   9223SM  H10T12382   5.473   1.696  13.439  0.3087 -0.1987 -0.4056
   9223SM  C11S12383   5.491   1.538  13.582 -0.4140 -0.2665 -0.0366
   9223SM  H11S12384   5.595   1.571  13.603  0.0901 -1.3499 -0.7630
   9223SM  H11T12385   5.495   1.427  13.587 -2.0048 -0.4261 -1.3458
   9223SM  C12S12386   5.394   1.583  13.686  0.4543  0.5173  1.1342
   9223SM  H12S12387   5.293   1.537  13.677 -0.4416  2.3515  1.1702
   9223SM  H12T12388   5.384   1.694  13.695 -1.7189  0.2221  3.7409
   9223SM  C13S12389   5.456   1.559  13.826  0.4127  0.0978  0.5272
   9223SM  H13S12390   5.552   1.613  13.820  1.1622 -1.0390  1.6113
   9223SM  H13T12391   5.481   1.451  13.838  1.8403  0.1187 -1.7999
   9223SM  C14S12392   5.373   1.618  13.938 -0.3364 -0.5343  0.3202
   9223SM  H14S12393   5.286   1.549  13.946 -0.8859  0.2197  1.0321
   9223SM  H14T12394   5.333   1.718  13.911 -1.1703  0.5065  4.5652
   9223SM  C15S12395   5.446   1.630  14.078  0.6034  0.1905  0.1374
   9223SM  H15S12396   5.534   1.695  14.059 -0.2804  1.1656 -0.8086
   9223SM  H15T12397   5.484   1.533  14.115  1.7444  0.5009 -0.1726
   9223SM  C16S12398   5.359   1.693  14.189 -0.0082 -0.0478 -0.0757
   9223SM  H16S12399   5.324   1.794  14.157  1.2182  0.3431 -0.2293
   9223SM  H16T12400   5.418   1.705  14.282  1.1241  0.3816 -0.8207
   9223SM  C17S12401   5.242   1.607  14.223 -0.4264  0.8392 -0.2013
   9223SM  H17S12402   5.269   1.499  14.215 -2.1697  0.2383  1.4212
   9223SM  H17T12403   5.157   1.628  14.155  0.5761 -0.0482 -1.8285
   9223SM  C18S12404   5.180   1.614  14.364  0.1413 -0.2126 -0.5011
   9223SM  H18S12405   5.105   1.533  14.377  1.6273 -1.4484  0.8104
   9223SM  H18T12406   5.130   1.713  14.373 -0.1767 -0.3136 -1.1535
   9223SM  H18U12407   5.264   1.600  14.436  0.3966 -3.3036 -1.2908
   9223SM   C1F12408   5.562   1.539  12.380  0.3027 -0.2820 -0.0898
   9223SM    OF12409   5.494   1.482  12.289  0.0257 -0.3378  0.0560
   9223SM   C2F12410   5.565   1.693  12.396  0.6216  0.0029  0.5778
   9223SM   H2F12411   5.569   1.724  12.290  2.2349  2.1523  1.1991
   9223SM   H2G12412   5.650   1.735  12.453 -0.1795  0.9522  1.0997
   9223SM   C3F12413   5.433   1.742  12.458  0.3129  0.4354  0.1273
   9223SM   H3F12414   5.454   1.851  12.454  0.5022  0.3869 -0.3172
   9223SM   H3G12415   5.425   1.706  12.562  1.1794  0.6616  0.2781
   9223SM   C4F12416   5.302   1.711  12.383  1.3573  0.0200 -0.5066
   9223SM   H4F12417   5.286   1.601  12.388 -1.8147  0.3584 -0.9500
   9223SM   H4G12418   5.305   1.738  12.276  1.5882  0.9535 -0.2727
   9223SM   C5F12419   5.180   1.787  12.440  0.1042 -1.1510  0.1227
   9223SM   H5F12420   5.205   1.895  12.443 -0.8402 -0.9404  0.7248
   9223SM   H5G12421   5.169   1.765  12.548  2.8239 -2.1237  0.2994
   9223SM   C6F12422   5.050   1.758  12.367  0.2895  0.8660  0.4648
   9223SM   H6F12423   5.023   1.651  12.382 -2.2061  1.6775  2.6781
   9223SM   H6G12424   5.051   1.781  12.259  0.2667 -0.5635  0.1418
   9223SM   C7F12425   4.931   1.839  12.417  0.0957 -0.3026 -0.6893
   9223SM   H7F12426   4.840   1.823  12.355  1.1087  0.2050 -2.3908
   9223SM   H7G12427   4.952   1.946  12.393 -1.7332  0.1210 -0.5923
   9223SM   C8F12428   4.880   1.810  12.557 -0.4951 -0.2274  0.5369
   9223SM   H8F12429   4.822   1.897  12.593  1.0926  1.2863 -0.3632
   9223SM   H8G12430   4.968   1.810  12.625  0.5713  1.0885 -0.7658
   9223SM   C9F12431   4.801   1.680  12.560 -0.0507 -0.2100 -0.2183
   9223SM   H9F12432   4.866   1.597  12.524  1.3503 -0.9157  3.4580
   9223SM   H9G12433   4.706   1.684  12.502 -0.1475  1.5720  0.0173
   9223SM  C10F12434   4.752   1.630  12.696 -0.4255 -0.5862  0.4643
   9223SM  H10F12435   4.683   1.705  12.741 -1.3856 -0.9051 -0.4422
   9223SM  H10G12436   4.838   1.611  12.764 -0.7429 -1.8103  0.5497
   9223SM  C11F12437   4.670   1.502  12.671  0.1550  0.0786  0.3277
   9223SM  H11F12438   4.741   1.421  12.643  0.1468  0.7318 -1.7828
   9223SM  H11G12439   4.602   1.516  12.584  1.5155 -2.4578 -1.2936
   9223SM  C12F12440   4.591   1.460  12.789 -0.4560 -0.2978 -0.0008
   9223SM  H12F12441   4.529   1.372  12.765  0.3527 -0.1662 -2.9643
   9223SM  H12G12442   4.521   1.542  12.814  0.7045  1.0156 -0.8789
   9223SM  C13F12443   4.679   1.421  12.912  0.3785 -0.8750  0.3186
   9223SM  H13F12444   4.746   1.505  12.941 -0.3970 -0.0234 -0.2679
   9223SM  H13G12445   4.751   1.341  12.883 -1.1006 -2.0032 -0.3585
   9223SM  C14F12446   4.592   1.374  13.026  0.6763 -0.0730  0.2225
   9223SM  H14F12447   4.523   1.296  12.989 -0.1500  0.2031  1.1604
   9223SM  H14G12448   4.533   1.458  13.068 -1.1833 -1.8210  1.2705
   9223SM  C15F12449   4.671   1.321  13.148 -0.7164 -0.1114  0.0043
   9223SM  H15F12450   4.717   1.409  13.198 -0.2299 -1.1580  1.4745
   9223SM  H15G12451   4.746   1.254  13.100 -0.7866  0.8392 -1.5002
   9223SM  C16F12452   4.583   1.238  13.239 -0.1882 -0.2333 -0.5427
   9223SM  H16F12453   4.549   1.161  13.167  2.9629 -0.8889 -1.4749
   9223SM  H16G12454   4.487   1.283  13.273 -0.8687  1.0133 -3.7111
   9223SM  C17F12455   4.667   1.165  13.350  0.1371 -0.5018  0.0520
   9223SM  H17F12456   4.764   1.136  13.303  0.5288  0.6402  0.1276
   9223SM  H17G12457   4.605   1.075  13.371 -1.4167  0.0534 -1.8327
   9223SM  C18F12458   4.690   1.243  13.480  0.0076  0.7267 -0.4691
   9223SM  H18F12459   4.592   1.276  13.519 -0.7782  0.2642 -1.9848
   9223SM  H18G12460   4.749   1.336  13.460 -0.8061  0.8287 -2.6932
   9223SM  C19F12461   4.762   1.156  13.579  0.0414 -0.5388 -0.3780
   9223SM  H19F12462   4.820   1.086  13.515  0.6858 -0.6901  0.3515
   9223SM  H19G12463   4.685   1.097  13.633 -0.5508  1.4149  1.0316
   9223SM  C20F12464   4.861   1.224  13.677  0.3166  0.1917 -0.2290
   9223SM  H20F12465   4.810   1.267  13.766  0.5374 -0.8516  0.4269
   9223SM  H20G12466   4.915   1.312  13.635  0.8499  0.2798  0.5948
   9223SM  C21F12467   4.978   1.134  13.722 -0.0141  0.1191  0.3915
   9223SM  H21F12468   5.026   1.186  13.807  1.1979 -1.0903  0.4811
   9223SM  H21G12469   5.056   1.133  13.642  1.1485 -1.8281  1.4548
   9223SM  C22F12470   4.936   0.990  13.747 -1.1421  0.3696 -0.0325
   9223SM  H22F12471   4.907   0.928  13.660 -0.6865  2.7613 -1.9809
   9223SM  H22G12472   4.848   0.998  13.815 -0.5825  1.3114  0.6016
   9223SM  C23F12473   5.041   0.906  13.827 -0.6865 -0.0208  0.9511
   9223SM  H23F12474   5.018   0.798  13.823 -0.6331 -0.0009 -0.1754
   9223SM  H23G12475   5.040   0.947  13.931  1.4801  0.2287  0.9196
   9223SM  H23H12476   5.141   0.921  13.782 -1.0987 -1.7005 -0.6221
   9323SM     N12477   6.901   4.633  11.779  0.0265 -1.0386 -0.8042
   9323SM   C1512478   7.012   4.721  11.736  0.4329  0.2663 -0.1753
   9323SM  H15A12479   7.048   4.699  11.636 -0.1661 -0.2367 -0.2890
   9323SM  H15B12480   7.095   4.721  11.805  0.5810  2.6855 -0.2446
   9323SM  H15C12481   6.982   4.824  11.720  2.5991  0.5449 -3.4846
   9323SM   C1412482   6.801   4.635  11.670  0.4090 -0.5050 -0.3103
   9323SM  H14A12483   6.766   4.738  11.664  0.5515 -0.4460 -0.1304
   9323SM  H14B12484   6.723   4.568  11.702  0.6259  1.3487  5.2062
   9323SM  H14C12485   6.853   4.606  11.580 -0.5676 -0.8870 -0.7618
   9323SM   C1312486   6.943   4.490  11.804 -0.1781 -0.0139 -0.1861
   9323SM  H13A12487   6.958   4.436  11.712  0.1876 -0.9733  0.4109
   9323SM  H13B12488   6.861   4.436  11.850 -0.3571 -0.6417 -1.2211
   9323SM  H13C12489   7.030   4.486  11.869 -1.9484 -1.2815  2.2817
   9323SM   C1212490   6.844   4.687  11.907  0.7628 -0.3789  0.1568
   9323SM  H12A12491   6.834   4.794  11.911  0.9033 -0.3193 -0.9720
   9323SM  H12B12492   6.917   4.671  11.986  0.2448  1.6585  1.0976
   9323SM   C1112493   6.709   4.625  11.954 -0.4440  0.4435 -0.1226
   9323SM  H11A12494   6.621   4.630  11.887 -1.7007 -0.7553  1.3633
   9323SM  H11B12495   6.669   4.684  12.039  2.1509  1.8480  0.2367
   9323SM     P12496   6.794   4.464  12.140  0.2434  0.0697  0.6274
   9323SM   O1312497   6.831   4.321  12.146  0.1988  0.0249 -0.5836
   9323SM   O1412498   6.905   4.553  12.169  0.1930  0.0924  0.0164
   9323SM   O1112499   6.684   4.498  12.255 -0.0583 -0.0392 -0.0483
   9323SM   O1212500   6.730   4.496  11.998  0.0636  0.3547 -0.0980
   9323SM   C1S12501   6.548   4.445  12.231 -0.5240  0.2537 -0.6790
   9323SM   H1S12502   6.558   4.343  12.187  1.2942  0.3535 -0.5503
   9323SM   H1T12503   6.485   4.505  12.162 -1.6677 -2.6795 -2.4060
   9323SM    NF12504   6.318   4.420  12.331 -0.3042 -0.4464  0.1740
   9323SM   HNF12505   6.261   4.502  12.334  1.9622  1.3026 -1.2299
   9323SM   C2S12506   6.459   4.444  12.360 -0.4810 -0.1075 -0.1428
   9323SM   H2S12507   6.492   4.359  12.424  0.8819 -1.3588 -2.3681
   9323SM   C3S12508   6.472   4.582  12.433  0.0129 -0.6858 -0.4509
   9323SM   H3S12509   6.416   4.650  12.365  0.2348 -1.6610 -1.6432
   9323SM    O312510   6.603   4.632  12.457  0.0534  0.2981 -0.8544
   9323SM   HO312511   6.661   4.562  12.427  0.1375  0.8314 -1.9567
   9323SM   C4S12512   6.399   4.564  12.565 -0.9809 -0.1438  0.0181
   9323SM   H4S12513   6.448   4.490  12.630  1.3343  0.6791 -0.7008
   9323SM   C5S12514   6.280   4.614  12.591 -1.1157  0.3271 -0.1428
   9323SM   H5S12515   6.233   4.682  12.518  0.3328  0.2268 -1.2185
   9323SM   C6S12516   6.198   4.595  12.716 -0.2978 -0.1501 -0.1419
   9323SM   H6S12517   6.131   4.511  12.687  0.8841 -0.1813 -3.0906
   9323SM   H6T12518   6.145   4.686  12.752  0.4681 -0.0152  0.7018
   9323SM   C7S12519   6.267   4.542  12.843 -0.0871  0.0143 -0.5090
   9323SM   H7S12520   6.342   4.619  12.871  1.0173 -1.1196 -0.2626
   9323SM   H7T12521   6.324   4.450  12.821 -1.6522 -1.1262 -0.0235
   9323SM   C8S12522   6.185   4.502  12.962 -0.1369 -0.3063  0.3588
   9323SM   H8S12523   6.143   4.399  12.950  0.3711 -0.4654 -0.0996
   9323SM   H8T12524   6.113   4.585  12.975  1.5274  1.0546  1.1123
   9323SM   C9S12525   6.277   4.488  13.085 -0.6879 -0.3021  0.3144
   9323SM   H9S12526   6.325   4.580  13.122 -0.2316 -0.2045 -0.5013
   9323SM   H9T12527   6.365   4.423  13.064  0.1249  0.5647  0.9896
   9323SM  C10S12528   6.214   4.406  13.207 -0.2258  0.2264 -0.9351
   9323SM  H10S12529   6.144   4.331  13.164 -1.5724  1.4462 -0.9444
   9323SM  H10T12530   6.163   4.484  13.267 -2.7679 -1.3289 -0.9533
   9323SM  C11S12531   6.327   4.344  13.288  0.1194 -0.0714 -0.0486
   9323SM  H11S12532   6.388   4.425  13.331  0.2843 -0.2746  0.0995
   9323SM  H11T12533   6.399   4.285  13.228  0.5825  2.5142 -2.1968
   9323SM  C12S12534   6.272   4.259  13.408  0.1654 -0.6457  0.2105
   9323SM  H12S12535   6.190   4.200  13.362 -0.7420  0.4495  0.3836
   9323SM  H12T12536   6.216   4.330  13.472 -2.8458 -2.6098 -0.0354
   9323SM  C13S12537   6.379   4.179  13.486 -0.0220  0.3554  0.2553
   9323SM  H13S12538   6.448   4.248  13.540 -0.7367  1.0000  0.3639
   9323SM  H13T12539   6.445   4.118  13.421 -1.4107  0.0148 -0.8683
   9323SM  C14S12540   6.319   4.072  13.583 -0.5606  0.3126 -0.3388
   9323SM  H14S12541   6.245   4.128  13.645  0.4386  3.0993 -1.5029
   9323SM  H14T12542   6.403   4.047  13.651 -1.3110  1.0222  0.8960
   9323SM  C15S12543   6.268   3.941  13.523 -0.8325 -0.6851  1.2569
   9323SM  H15S12544   6.191   3.975  13.450  1.6342  1.7336 -0.4354
   9323SM  H15T12545   6.348   3.902  13.457  0.6924  0.6105  2.2568
   9323SM  C16S12546   6.233   3.827  13.617  0.6148 -0.0938  0.3475
   9323SM  H16S12547   6.191   3.742  13.559 -2.6451  1.5085  0.1509
   9323SM  H16T12548   6.151   3.864  13.681  1.5031 -0.1364  1.5517
   9323SM  C17S12549   6.336   3.777  13.715 -0.6541  0.3074  0.2081
   9323SM  H17S12550   6.423   3.840  13.747  1.0615 -1.7245 -0.2347
   9323SM  H17T12551   6.380   3.687  13.669 -2.3557 -0.9479  0.9364
   9323SM  C18S12552   6.270   3.741  13.844 -0.3061  0.3508 -0.4286
   9323SM  H18S12553   6.232   3.833  13.893  0.7850  1.1554 -1.0443
   9323SM  H18T12554   6.340   3.678  13.904  1.8153  1.3275 -1.7470
   9323SM  H18U12555   6.182   3.674  13.839 -0.0153  0.0319 -2.9722
   9323SM   C1F12556   6.269   4.298  12.301 -0.1086 -0.3968 -0.2732
   9323SM    OF12557   6.338   4.205  12.271  0.4112  0.2758  0.2365
   9323SM   C2F12558   6.114   4.283  12.296 -0.3595 -0.9277 -0.0717
   9323SM   H2F12559   6.071   4.249  12.199 -2.3339 -2.7804  1.3745
   9323SM   H2G12560   6.081   4.388  12.311  1.0454  0.2369 -3.8994
   9323SM   C3F12561   6.056   4.183  12.395 -0.2284 -0.1777  1.0051
   9323SM   H3F12562   6.101   4.082  12.382 -0.8165 -0.1796 -1.7943
   9323SM   H3G12563   5.950   4.159  12.370  0.6811 -4.1954  0.3766
   9323SM   C4F12564   6.069   4.215  12.540  0.2713 -0.7621 -0.2957
   9323SM   H4F12565   6.044   4.323  12.545  1.4532 -0.4740 -0.3198
   9323SM   H4G12566   6.174   4.204  12.574  0.4353  1.3724  0.0183
   9323SM   C5F12567   5.984   4.132  12.634  0.2220 -0.0079  0.4755
   9323SM   H5F12568   6.019   4.026  12.635  1.0888  0.2599 -0.0630
   9323SM   H5G12569   5.878   4.125  12.601  0.0316  2.3070  0.4721
   9323SM   C6F12570   5.988   4.195  12.772  0.4059  0.0573 -1.0386
   9323SM   H6F12571   5.938   4.294  12.771  0.4351  0.0705 -1.2700
   9323SM   H6G12572   6.090   4.207  12.812 -1.2009  2.9375  2.7417
   9323SM   C7F12573   5.898   4.116  12.873  0.4842 -0.7206  0.5624
   9323SM   H7F12574   5.925   4.009  12.870 -1.6350 -1.3464  1.9580
   9323SM   H7G12575   5.793   4.135  12.840  0.6723  0.7235  0.7026
   9323SM   C8F12576   5.912   4.188  13.016 -0.0663  0.1947 -0.3541
   9323SM   H8F12577   5.906   4.297  12.994 -0.9508  0.8230  2.6000
   9323SM   H8G12578   6.019   4.166  13.034 -0.9320 -4.0930  0.7680
   9323SM   C9F12579   5.831   4.144  13.135 -0.2308 -0.1991  0.1458
   9323SM   H9F12580   5.864   4.041  13.159  0.9325 -0.0288 -0.6472
   9323SM   H9G12581   5.723   4.127  13.113 -0.8569  1.3014  1.8497
   9323SM  C10F12582   5.854   4.229  13.262 -0.2439 -0.1338 -0.6755
   9323SM  H10F12583   5.801   4.326  13.257 -1.0214 -0.3220  2.2234
   9323SM  H10G12584   5.963   4.246  13.258 -0.0730 -1.1221 -0.4972
   9323SM  C11F12585   5.814   4.167  13.402  0.0024  0.5102  0.4117
   9323SM  H11F12586   5.829   4.057  13.399 -0.0813  0.5044  0.1932
   9323SM  H11G12587   5.708   4.185  13.427  0.3459 -0.2747  2.7148
   9323SM  C12F12588   5.901   4.225  13.510 -0.4197  0.0056 -0.5169
   9323SM  H12F12589   5.886   4.335  13.523  1.5182 -0.0428  3.1273
   9323SM  H12G12590   6.009   4.213  13.489 -0.2737  1.2424 -0.5409
   9323SM  C13F12591   5.880   4.155  13.643  0.5180  0.6103  0.0183
   9323SM  H13F12592   5.893   4.045  13.647 -3.6210 -0.0267  0.4093
   9323SM  H13G12593   5.771   4.171  13.662  0.3316  0.1974 -0.6568
   9323SM  C14F12594   5.960   4.228  13.750  0.0452  0.7026 -0.1452
   9323SM  H14F12595   5.930   4.335  13.751 -1.6073  0.2655  0.4592
   9323SM  H14G12596   6.066   4.226  13.717 -0.7929 -3.5011 -3.5316
   9323SM  C15F12597   5.948   4.167  13.893 -0.0460 -0.4453 -0.0262
   9323SM  H15F12598   6.040   4.202  13.945 -0.3716  0.4991 -0.0699
   9323SM  H15G12599   5.945   4.056  13.890 -2.9533 -0.4717  0.7155
   9323SM  C16F12600   5.816   4.215  13.958 -0.1913 -0.1459 -0.0220
   9323SM  H16F12601   5.735   4.225  13.881 -0.5886  2.1776  0.6121
   9323SM  H16G12602   5.826   4.321  13.990 -1.1238 -0.9786  3.4497
   9323SM  C17F12603   5.762   4.139  14.079 -0.7440  0.3101 -1.4218
   9323SM  H17F12604   5.833   4.144  14.164  0.1114 -1.2104 -2.0191
   9323SM  H17G12605   5.749   4.035  14.044 -0.4743 -1.0425  2.1302
   9323SM  C18F12606   5.632   4.192  14.127 -0.5637 -0.1533 -0.4921
   9323SM  H18F12607   5.565   4.174  14.040 -1.1213  2.0629 -0.5892
   9323SM  H18G12608   5.647   4.300  14.150  0.8591 -0.4000 -0.1847
   9323SM  C19F12609   5.575   4.122  14.257  0.0124  0.1016 -0.1171
   9323SM  H19F12610   5.635   4.132  14.351  0.3377 -0.2263 -0.2874
   9323SM  H19G12611   5.582   4.013  14.239 -0.3878 -0.1622  1.1973
   9323SM  C20F12612   5.429   4.151  14.298  0.0148  0.4795 -0.0923
   9323SM  H20F12613   5.429   4.090  14.391 -3.3270 -1.2671 -1.0814
   9323SM  H20G12614   5.347   4.116  14.233 -0.6450 -0.9957  1.4601
   9323SM  C21F12615   5.411   4.297  14.345 -0.2600  0.2417  0.1545
   9323SM  H21F12616   5.377   4.359  14.259  1.3506 -0.3617 -0.9632
   9323SM  H21G12617   5.513   4.332  14.373  0.5780 -2.9759  1.5368
   9323SM  C22F12618   5.310   4.324  14.456  0.3109  0.2948  0.1974
   9323SM  H22F12619   5.348   4.271  14.546 -0.4811 -1.7176 -0.5941
   9323SM  H22G12620   5.203   4.299  14.439 -0.0641  1.3162  0.9562
   9323SM  C23F12621   5.319   4.473  14.503  0.1110 -0.0707  0.1496
   9323SM  H23F12622   5.250   4.542  14.450  1.5132  1.2835  0.0356
   9323SM  H23G12623   5.423   4.509  14.490  0.1083 -0.5406 -1.3534
   9323SM  H23H12624   5.292   4.474  14.611  2.6643  1.2154  0.8370
   9423SM     N12625   5.124   6.726  11.714  0.1235 -0.1003 -0.0535
   9423SM   C1512626   5.228   6.837  11.703 -0.4850 -0.0055 -0.5090
   9423SM  H15A12627   5.197   6.909  11.628  0.4987  0.8699 -0.0987
   9423SM  H15B12628   5.324   6.799  11.674  0.0962 -0.3823  1.7118
   9423SM  H15C12629   5.233   6.894  11.795 -1.4317 -1.3483  0.4143
   9423SM   C1412630   4.987   6.783  11.753 -0.1717 -0.5738 -1.2160
   9423SM  H14A12631   4.960   6.868  11.693 -0.7157 -0.4015 -0.7447
   9423SM  H14B12632   5.003   6.809  11.857 -2.3820 -0.6513 -0.8012
   9423SM  H14C12633   4.910   6.707  11.757 -1.0791  0.3387 -0.8540
   9423SM   C1312634   5.110   6.658  11.582  0.3593  0.8928  0.1711
   9423SM  H13A12635   5.102   6.737  11.509 -0.5333  0.2746 -0.4211
   9423SM  H13B12636   5.018   6.602  11.571  1.0849 -0.2424 -0.3326
   9423SM  H13C12637   5.188   6.586  11.562 -1.3809 -0.3533 -3.0979
   9423SM   C1212638   5.173   6.613  11.805  0.4906 -0.1113 -0.4270
   9423SM  H12A12639   5.268   6.576  11.770  0.4049 -0.7411 -0.0186
   9423SM  H12B12640   5.097   6.536  11.813  0.6673 -0.3509 -0.9835
   9423SM   C1112641   5.185   6.650  11.959 -0.1640  0.0141  1.1391
   9423SM  H11A12642   5.246   6.742  11.955  0.5805 -0.5138 -0.4575
   9423SM  H11B12643   5.244   6.573  12.013  1.1737 -0.0072 -0.2862
   9423SM     P12644   4.970   6.549  12.068  0.1406 -0.0840  0.1301
   9423SM   O1312645   4.832   6.595  12.113  0.4374 -0.6866 -0.0976
   9423SM   O1412646   4.986   6.448  11.962  0.2060  0.0261 -0.4761
   9423SM   O1112647   5.045   6.487  12.200  0.2932 -0.3663 -0.0243
   9423SM   O1212648   5.054   6.674  12.027 -0.3365 -1.0553 -0.0433
   9423SM   C1S12649   5.084   6.580  12.300 -0.2232 -0.6018 -0.0867
   9423SM   H1S12650   5.003   6.643  12.342  2.2350  1.6929  1.5451
   9423SM   H1T12651   5.172   6.639  12.267 -1.1978  0.0050 -1.7134
   9423SM    NF12652   5.169   6.574  12.525  0.3788  0.4986  0.1151
   9423SM   HNF12653   5.257   6.622  12.521 -0.4674  2.1480  0.3381
   9423SM   C2S12654   5.146   6.493  12.412  0.1057 -0.9186 -0.3914
   9423SM   H2S12655   5.077   6.408  12.433  1.3344 -1.4809  1.6300
   9423SM   C3S12656   5.274   6.426  12.353 -0.2991  0.0839 -0.5284
   9423SM   H3S12657   5.347   6.500  12.313 -0.0458  0.0144 -0.2013
   9423SM    O312658   5.262   6.334  12.246 -0.0623 -0.0225  0.6143
   9423SM   HO312659   5.172   6.350  12.217  0.3346  2.2389  0.4499
   9423SM   C4S12660   5.349   6.349  12.466 -0.5361  0.4353  1.0448
   9423SM   H4S12661   5.432   6.395  12.521 -0.1850 -2.1092  2.8435
   9423SM   C5S12662   5.337   6.223  12.498 -0.4741  0.0095 -0.3787
   9423SM   H5S12663   5.255   6.168  12.449  0.0782 -2.2776  1.1044
   9423SM   C6S12664   5.414   6.152  12.612  1.1479  0.6552  0.1965
   9423SM   H6S12665   5.346   6.130  12.696  0.9813 -1.5950 -0.4832
   9423SM   H6T12666   5.499   6.212  12.653  0.5168 -0.4128  3.3751
   9423SM   C7S12667   5.471   6.018  12.562 -1.0587  0.2538  0.1918
   9423SM   H7S12668   5.520   6.035  12.464 -0.1611 -0.6491  0.4750
   9423SM   H7T12669   5.389   5.946  12.541 -1.0516  1.2540 -4.2520
   9423SM   C8S12670   5.570   5.949  12.659  0.3895 -0.1426  0.1344
   9423SM   H8S12671   5.651   6.024  12.672 -1.4481  1.4989  3.2493
   9423SM   H8T12672   5.611   5.857  12.613 -1.4944  0.3021 -2.6765
   9423SM   C9S12673   5.505   5.922  12.792 -0.5977  1.8731 -0.0583
   9423SM   H9S12674   5.476   6.023  12.829  0.5455  1.4636  2.1505
   9423SM   H9T12675   5.579   5.882  12.864 -1.4696  0.1371 -0.0789
   9423SM  C10S12676   5.370   5.848  12.784  0.0434 -0.1005 -0.0270
   9423SM  H10S12677   5.375   5.759  12.717 -1.1824 -0.9441  0.9502
   9423SM  H10T12678   5.302   5.921  12.735 -0.7747 -1.2255 -0.6194
   9423SM  C11S12679   5.331   5.801  12.924 -0.6506 -0.9364  0.3233
   9423SM  H11S12680   5.335   5.890  12.990 -0.3215 -1.3470  0.8731
   9423SM  H11T12681   5.401   5.726  12.967  0.4603  0.1654  0.4884
   9423SM  C12S12682   5.194   5.730  12.932  0.0094  0.0030  0.3471
   9423SM  H12S12683   5.157   5.725  13.036  0.6354  0.0954  0.5746
   9423SM  H12T12684   5.202   5.628  12.889  3.5356  0.2733  0.0981
   9423SM  C13S12685   5.078   5.797  12.864 -0.5630  0.4256 -0.1296
   9423SM  H13S12686   5.103   5.827  12.760  2.4734  2.2967  1.0152
   9423SM  H13T12687   5.046   5.886  12.924 -1.9587  0.1642 -0.4387
   9423SM  C14S12688   4.955   5.701  12.855  0.0585  0.4756 -0.5019
   9423SM  H14S12689   4.941   5.653  12.954  0.1578  1.1712 -0.1390
   9423SM  H14T12690   4.974   5.616  12.786 -4.3796 -1.0192 -0.2030
   9423SM  C15S12691   4.828   5.779  12.814  0.4581 -0.8521  0.1169
   9423SM  H15S12692   4.765   5.706  12.761 -0.9458 -0.3821  1.0778
   9423SM  H15T12693   4.838   5.866  12.745 -2.5001  1.4390  2.2702
   9423SM  C16S12694   4.767   5.843  12.940  0.4735  0.0713  0.2152
   9423SM  H16S12695   4.841   5.911  12.987  1.9900  0.7136 -2.8298
   9423SM  H16T12696   4.749   5.759  13.011 -1.9821 -0.7682 -1.2829
   9423SM  C17S12697   4.643   5.928  12.913  0.5206  0.0588 -0.6467
   9423SM  H17S12698   4.579   5.886  12.832  0.5999  0.2966 -0.8346
   9423SM  H17T12699   4.662   6.033  12.880 -0.2560  0.2764 -0.4257
   9423SM  C18S12700   4.552   5.938  13.040  0.2405  0.0905  0.6340
   9423SM  H18S12701   4.502   5.843  13.070 -1.5876  0.1202 -1.9595
   9423SM  H18T12702   4.472   6.009  13.008  0.5656 -1.0364 -3.1480
   9423SM  H18U12703   4.602   5.989  13.125  1.1066  1.9110 -0.9007
   9423SM   C1F12704   5.074   6.630  12.600 -0.5915 -0.2361  0.0163
   9423SM    OF12705   4.957   6.602  12.583 -0.5388  0.4579 -0.0915
   9423SM   C2F12706   5.128   6.725  12.697  0.1818  0.2960  0.6421
   9423SM   H2F12707   5.157   6.817  12.643 -0.2796 -0.0324 -0.1817
   9423SM   H2G12708   5.228   6.687  12.730  0.7582  2.2130  1.2214
   9423SM   C3F12709   5.029   6.754  12.817 -1.0295  0.0868  0.2184
   9423SM   H3F12710   4.926   6.778  12.783 -1.8301 -1.6217  1.2897
   9423SM   H3G12711   5.068   6.843  12.870  1.4447 -1.3628  0.9543
   9423SM   C4F12712   5.031   6.657  12.933 -1.0889  0.2077  0.2436
   9423SM   H4F12713   4.999   6.557  12.897  0.2331 -0.7709  1.6870
   9423SM   H4G12714   4.970   6.698  13.015 -0.3747  0.1669  0.8068
   9423SM   C5F12715   5.174   6.647  12.994 -0.1080  0.0454 -0.1432
   9423SM   H5F12716   5.216   6.748  13.015  0.1816 -0.0511 -0.2570
   9423SM   H5G12717   5.235   6.600  12.914 -2.3271  0.0014 -1.9034
   9423SM   C6F12718   5.181   6.550  13.118 -0.2549 -0.0040  0.1673
   9423SM   H6F12719   5.156   6.449  13.079  1.8485  0.2343 -2.0285
   9423SM   H6G12720   5.091   6.566  13.181 -0.6283 -4.0997  0.9571
   9423SM   C7F12721   5.314   6.558  13.194  0.7380 -0.2703 -0.1298
   9423SM   H7F12722   5.344   6.665  13.199  2.0245 -0.5531 -1.3183
   9423SM   H7G12723   5.383   6.501  13.128  1.1402 -0.3418  0.3518
   9423SM   C8F12724   5.309   6.497  13.333  0.4872  0.1173  0.6559
   9423SM   H8F12725   5.274   6.391  13.334 -1.1200  0.6088 -0.1473
   9423SM   H8G12726   5.224   6.540  13.389 -1.0028 -0.5273 -1.0032
   9423SM   C9F12727   5.435   6.508  13.412 -0.0659 -0.4582  0.9582
   9423SM   H9F12728   5.480   6.609  13.414  0.9334 -0.8080 -0.9121
   9423SM   H9G12729   5.506   6.445  13.353 -0.1785  0.9794 -0.8002
   9423SM  C10F12730   5.411   6.452  13.545  0.6663  0.4193 -0.0937
   9423SM  H10F12731   5.342   6.366  13.530  0.7124  0.7534 -2.7121
   9423SM  H10G12732   5.357   6.531  13.601 -0.1159 -0.2044  0.0510
   9423SM  C11F12733   5.532   6.409  13.627  0.0427  0.2442 -0.0790
   9423SM  H11F12734   5.591   6.501  13.648 -0.9395  0.2346  3.5024
   9423SM  H11G12735   5.607   6.351  13.570  0.2177 -1.0442  1.3907
   9423SM  C12F12736   5.505   6.338  13.756  0.1821 -0.4808  0.8628
   9423SM  H12F12737   5.484   6.232  13.734  1.1596 -0.7479  1.1548
   9423SM  H12G12738   5.409   6.383  13.790  1.2035  0.6464  2.3622
   9423SM  C13F12739   5.623   6.343  13.855  0.6619 -0.0921  0.4013
   9423SM  H13F12740   5.663   6.446  13.842 -1.4346  0.5896 -1.1674
   9423SM  H13G12741   5.690   6.256  13.838  0.1851 -0.5906  0.9975
   9423SM  C14F12742   5.580   6.318  14.003  0.8551 -0.1159  0.2893
   9423SM  H14F12743   5.482   6.366  14.026  0.8461  0.7895 -1.4767
   9423SM  H14G12744   5.662   6.357  14.067  1.6150 -0.8208 -0.2329
   9423SM  C15F12745   5.553   6.174  14.034 -0.0936 -0.7803 -0.6948
   9423SM  H15F12746   5.644   6.115  14.014  1.0683  0.2407  1.3016
   9423SM  H15G12747   5.475   6.128  13.970 -0.3863 -0.4703 -0.5693
   9423SM  C16F12748   5.509   6.148  14.179  0.6370  0.0557  0.2047
   9423SM  H16F12749   5.407   6.189  14.194 -1.0310 -1.8865 -3.9636
   9423SM  H16G12750   5.573   6.194  14.256 -0.4257  0.6940  0.7278
   9423SM  C17F12751   5.503   5.995  14.203  0.3182  0.8543 -0.6096
   9423SM  H17F12752   5.602   5.958  14.237  0.0412  0.6370 -0.0219
   9423SM  H17G12753   5.467   5.937  14.116 -0.3827  1.4692 -0.7382
   9423SM  C18F12754   5.424   5.972  14.329  0.2459 -0.0944 -0.3100
   9423SM  H18F12755   5.318   5.999  14.311  0.7639  3.4930  1.0778
   9423SM  H18G12756   5.462   6.043  14.406 -1.4049  1.0615 -0.5064
   9423SM  C19F12757   5.427   5.822  14.366 -0.5026 -0.5534 -0.1029
   9423SM  H19F12758   5.537   5.811  14.379  0.0309  2.9386 -0.6857
   9423SM  H19G12759   5.394   5.764  14.277 -1.1964  0.9752 -0.8839
   9423SM  C20F12760   5.357   5.779  14.493  0.2778  0.4375  0.2767
   9423SM  H20F12761   5.249   5.795  14.469  0.1552 -1.1672 -0.3160
   9423SM  H20G12762   5.387   5.829  14.588  0.4170  0.8005  0.0455
   9423SM  C21F12763   5.383   5.627  14.521  0.1828  0.4789  0.5251
   9423SM  H21F12764   5.482   5.617  14.570  0.2307 -0.5892  0.2238
   9423SM  H21G12765   5.381   5.569  14.427  1.3253  0.4470  0.5176
   9423SM  C22F12766   5.290   5.570  14.628  0.2729 -0.2001 -0.0533
   9423SM  H22F12767   5.183   5.562  14.598  0.0820 -0.6772  0.7232
   9423SM  H22G12768   5.288   5.641  14.713  2.2211 -0.6525  0.4100
   9423SM  C23F12769   5.350   5.437  14.684  0.4349  0.6929  0.1330
   9423SM  H23F12770   5.337   5.358  14.608  0.0321  0.4036  0.4984
   9423SM  H23G12771   5.306   5.409  14.782  3.1694  1.7631  1.8088
   9423SM  H23H12772   5.456   5.466  14.707  0.6313  0.6880 -0.7586
   9523SM     N12773   1.584   2.271  11.846  0.0702 -0.2006 -0.0907
   9523SM   C1512774   1.535   2.235  11.712  0.1175 -0.0454  0.5326
   9523SM  H15A12775   1.585   2.288  11.633 -0.2123  0.2471  0.5150
   9523SM  H15B12776   1.432   2.258  11.690  0.1942 -0.4223 -0.2449
   9523SM  H15C12777   1.548   2.129  11.698 -1.4568 -0.4781  1.9720
   9523SM   C1412778   1.730   2.231  11.851  0.5411  0.0894  0.2765
   9523SM  H14A12779   1.761   2.250  11.953  0.0316  0.7245  0.3186
   9523SM  H14B12780   1.791   2.286  11.781 -1.4075 -0.2982 -1.8438
   9523SM  H14C12781   1.736   2.125  11.831 -1.3104  0.1919 -1.1102
   9523SM   C1312782   1.569   2.419  11.860  0.0955  0.3220  0.0136
   9523SM  H13A12783   1.619   2.474  11.782 -1.2124  1.3934 -0.1006
   9523SM  H13B12784   1.589   2.446  11.962 -2.8340  2.7319  0.0840
   9523SM  H13C12785   1.466   2.442  11.839  0.7771  0.8599 -3.2480
   9523SM   C1212786   1.506   2.202  11.949  0.0462 -0.4321 -0.1364
   9523SM  H12A12787   1.523   2.098  11.924  0.5745  0.0765 -2.0664
   9523SM  H12B12788   1.400   2.218  11.937  0.0880  1.0117  1.1046
   9523SM   C1112789   1.534   2.229  12.097  0.2091  0.6611 -0.6098
   9523SM  H11A12790   1.452   2.187  12.160 -0.0725 -3.2725 -3.1711
   9523SM  H11B12791   1.530   2.339  12.105 -1.7186  0.7756 -2.1797
   9523SM     P12792   1.680   2.018  12.169 -0.1970 -0.2418  0.1381
   9523SM   O1312793   1.626   1.938  12.055 -0.8927  0.7801 -0.0804
   9523SM   O1412794   1.816   1.987  12.210  0.3189 -0.5851 -0.1748
   9523SM   O1112795   1.584   1.990  12.288 -0.4868 -0.0680 -0.2430
   9523SM   O1212796   1.662   2.178  12.133  0.6390 -0.8875 -0.1496
   9523SM   C1S12797   1.530   1.855  12.309  0.2026  0.1404 -0.1378
   9523SM   H1S12798   1.613   1.781  12.303 -1.3629 -1.7523  0.5582
   9523SM   H1T12799   1.466   1.825  12.224  0.7666 -2.2485  0.2276
   9523SM    NF12800   1.435   1.709  12.471  0.3979  0.4056  0.6471
   9523SM   HNF12801   1.346   1.665  12.462  1.2684 -2.1997  3.0106
   9523SM   C2S12802   1.456   1.850  12.447  0.6183 -0.3173 -0.3259
   9523SM   H2S12803   1.523   1.896  12.523 -0.3557  1.9419 -0.7607
   9523SM   C3S12804   1.328   1.930  12.437 -0.0913 -0.3198  0.1918
   9523SM   H3S12805   1.253   1.867  12.385 -0.6813 -0.9511  1.7545
   9523SM    O312806   1.337   2.057  12.364 -0.4754 -0.1397  0.2522
   9523SM   HO312807   1.427   2.056  12.332 -0.4921  3.6774 -0.4112
   9523SM   C4S12808   1.273   1.957  12.576 -0.1559  0.9721  0.8643
   9523SM   H4S12809   1.235   1.863  12.618  1.1364 -2.1002 -4.0185
   9523SM   C5S12810   1.277   2.073  12.647  0.4580  0.3812  0.1739
   9523SM   H5S12811   1.322   2.167  12.612 -0.5932  1.4600  1.6099
   9523SM   C6S12812   1.221   2.095  12.788  0.0351  0.7550  0.0209
   9523SM   H6S12813   1.155   2.008  12.809  1.9125 -1.1373 -1.3985
   9523SM   H6T12814   1.163   2.189  12.789 -0.1963  0.6093  0.6147
   9523SM   C7S12815   1.323   2.100  12.894 -0.2582 -0.0979  0.2023
   9523SM   H7S12816   1.397   2.181  12.880 -0.3786  0.1000  0.6740
   9523SM   H7T12817   1.374   2.002  12.908 -1.6170 -0.4954  3.2230
   9523SM   C8S12818   1.245   2.146  13.024 -0.0020 -0.3272 -0.0856
   9523SM   H8S12819   1.149   2.090  13.029 -1.3362  1.6904 -1.5532
   9523SM   H8T12820   1.229   2.254  13.003 -0.3723 -0.2102  0.7751
   9523SM   C9S12821   1.329   2.125  13.159 -0.5321  0.8419 -0.4722
   9523SM   H9S12822   1.423   2.182  13.172  0.0999  0.2047 -2.0882
   9523SM   H9T12823   1.358   2.018  13.147  0.9962  1.2429 -0.5674
   9523SM  C10S12824   1.249   2.164  13.282  0.4503 -0.1810 -0.3045
   9523SM  H10S12825   1.161   2.096  13.281  0.8362 -0.7174  0.8639
   9523SM  H10T12826   1.204   2.265  13.273  0.1552 -0.2804  0.0509
   9523SM  C11S12827   1.321   2.133  13.414  0.0082 -0.0980  0.2127
   9523SM  H11S12828   1.411   2.195  13.397  1.3452 -1.6283  1.3823
   9523SM  H11T12829   1.362   2.030  13.417  0.8977  0.2665  0.7258
   9523SM  C12S12830   1.238   2.165  13.539  0.3211  0.5059 -0.2223
   9523SM  H12S12831   1.164   2.085  13.563 -1.0678  0.7273 -3.3233
   9523SM  H12T12832   1.191   2.264  13.523 -0.6452  0.5850  2.5584
   9523SM  C13S12833   1.324   2.180  13.667  0.1929 -0.1376  0.5261
   9523SM  H13S12834   1.409   2.244  13.633  0.0035  0.4327  1.1119
   9523SM  H13T12835   1.373   2.083  13.690  0.2289 -0.0362  0.8715
   9523SM  C14S12836   1.259   2.257  13.781 -0.3480 -0.2480 -0.6337
   9523SM  H14S12837   1.171   2.320  13.760  1.7868  2.7190 -1.2799
   9523SM  H14T12838   1.335   2.330  13.816 -1.9371  1.5052 -0.6829
   9523SM  C15S12839   1.219   2.165  13.900  0.4498 -0.3596 -0.1854
   9523SM  H15S12840   1.307   2.107  13.935  0.1360  0.1356  1.5420
   9523SM  H15T12841   1.153   2.089  13.854 -1.2629  1.4752 -0.9340
   9523SM  C16S12842   1.151   2.236  14.016  0.6169  0.3847  0.0021
   9523SM  H16S12843   1.058   2.282  13.977  0.9584 -1.0568 -2.7275
   9523SM  H16T12844   1.215   2.323  14.044  2.1496 -1.5729  3.2867
   9523SM  C17S12845   1.122   2.149  14.140  0.2952 -0.1367 -0.1937
   9523SM  H17S12846   1.219   2.115  14.182  0.4301 -0.0996 -0.4741
   9523SM  H17T12847   1.081   2.053  14.101  3.0837 -1.4561 -0.1222
   9523SM  C18S12848   1.033   2.210  14.240 -0.1324  0.2107  0.1733
   9523SM  H18S12849   1.056   2.174  14.343  1.3550 -0.7243 -0.4591
   9523SM  H18T12850   0.930   2.181  14.209 -0.6325  0.3741  1.5713
   9523SM  H18U12851   1.054   2.319  14.235  1.3900 -0.0036  1.0872
   9523SM   C1F12852   1.537   1.630  12.498 -0.2865  0.7639  0.2056
   9523SM    OF12853   1.649   1.668  12.534  1.0981  0.8598 -0.3805
   9523SM   C2F12854   1.506   1.487  12.485  0.2101  0.0547 -0.3333
   9523SM   H2F12855   1.540   1.455  12.384  0.6734  0.2765 -0.2502
   9523SM   H2G12856   1.396   1.476  12.484  0.0819  1.0841  0.6473
   9523SM   C3F12857   1.571   1.396  12.583 -0.0317 -0.2797  0.5033
   9523SM   H3F12858   1.674   1.436  12.597 -0.4077  1.1026 -0.4013
   9523SM   H3G12859   1.569   1.291  12.545 -1.0744 -0.6432  1.4931
   9523SM   C4F12860   1.492   1.404  12.711 -0.3933 -0.3569 -0.0933
   9523SM   H4F12861   1.383   1.382  12.709 -0.2145 -1.2996 -0.2535
   9523SM   H4G12862   1.504   1.503  12.760  0.7458 -0.1819 -0.6762
   9523SM   C5F12863   1.548   1.305  12.810 -0.2194  0.2345  0.0171
   9523SM   H5F12864   1.656   1.304  12.784 -0.5479  0.0983 -1.4349
   9523SM   H5G12865   1.507   1.205  12.785 -0.1858  0.3920 -0.6829
   9523SM   C6F12866   1.523   1.341  12.962  0.0662 -0.8732  0.2461
   9523SM   H6F12867   1.532   1.252  13.028  0.6380 -0.3014  0.9687
   9523SM   H6G12868   1.413   1.361  12.962  0.5058  1.8797  0.1577
   9523SM   C7F12869   1.608   1.454  13.019  0.3053  0.5713 -0.3832
   9523SM   H7F12870   1.585   1.548  12.966 -0.7688 -0.3172 -1.5384
   9523SM   H7G12871   1.715   1.425  13.013  0.4358  0.4968  1.4869
   9523SM   C8F12872   1.585   1.497  13.161 -0.3904 -0.1740  0.0745
   9523SM   H8F12873   1.479   1.474  13.185  0.0315 -0.6491  1.5808
   9523SM   H8G12874   1.592   1.608  13.171 -2.1822  0.0099 -0.4092
   9523SM   C9F12875   1.692   1.448  13.261  0.3031  0.6971  0.1078
   9523SM   H9F12876   1.794   1.463  13.220  0.4627 -0.8282 -0.1086
   9523SM   H9G12877   1.684   1.339  13.281 -1.5059  0.9123  0.7304
   9523SM  C10F12878   1.680   1.528  13.391  0.2088 -0.0156  0.0718
   9523SM  H10F12879   1.573   1.545  13.417  0.0837 -1.4491  0.5537
   9523SM  H10G12880   1.726   1.628  13.374  1.3384 -0.4369  0.6128
   9523SM  C11F12881   1.762   1.464  13.509 -0.7074 -0.5316  0.6259
   9523SM  H11F12882   1.871   1.474  13.492 -0.9468  3.5797  0.7097
   9523SM  H11G12883   1.740   1.358  13.535 -1.6639 -0.6855 -0.6890
   9523SM  C12F12884   1.747   1.552  13.629  0.9643  0.5706  0.0456
   9523SM  H12F12885   1.729   1.657  13.598 -0.4073  0.1588 -0.6421
   9523SM  H12G12886   1.830   1.545  13.703 -0.1198 -1.8006  1.1276
   9523SM  C13F12887   1.631   1.513  13.723 -0.0896  0.2263  0.3029
   9523SM  H13F12888   1.650   1.426  13.789 -0.3985 -0.2635 -0.2363
   9523SM  H13G12889   1.541   1.490  13.662  1.6050 -1.5697 -1.6963
   9523SM  C14F12890   1.593   1.622  13.817  0.2495 -0.3182  0.4283
   9523SM  H14F12891   1.492   1.599  13.860 -0.3188  0.1286 -0.6310
   9523SM  H14G12892   1.592   1.709  13.749  0.4111 -0.5479  0.1314
   9523SM  C15F12893   1.696   1.648  13.928  0.7746 -0.0969  0.0099
   9523SM  H15F12894   1.795   1.686  13.895 -0.1669  0.3152 -2.5912
   9523SM  H15G12895   1.704   1.557  13.991 -0.6685 -1.2952 -1.4522
   9523SM  C16F12896   1.649   1.748  14.028 -0.5814  0.2164 -0.3223
   9523SM  H16F12897   1.677   1.725  14.133  0.2758  3.6611  0.3267
   9523SM  H16G12898   1.539   1.752  14.045 -0.4821  0.5284  0.2770
   9523SM  C17F12899   1.690   1.892  13.982  0.4035  0.3495 -0.1774
   9523SM  H17F12900   1.649   1.911  13.881 -0.7529  0.4514  0.3018
   9523SM  H17G12901   1.801   1.890  13.972  0.5636 -4.2810  0.2239
   9523SM  C18F12902   1.646   2.013  14.065  0.7000  0.7507  0.3560
   9523SM  H18F12903   1.709   2.010  14.156  3.0761  0.0654 -1.2294
   9523SM  H18G12904   1.540   1.996  14.093  0.9843  0.2419  1.1620
   9523SM  C19F12905   1.667   2.149  13.989  0.1543  0.6483 -0.0929
   9523SM  H19F12906   1.615   2.147  13.890  1.6503 -2.4216 -0.9471
   9523SM  H19G12907   1.772   2.145  13.954  0.6963 -0.0894  1.5272
   9523SM  C20F12908   1.636   2.277  14.067 -0.0565 -0.6302  0.1978
   9523SM  H20F12909   1.681   2.264  14.168  1.9336 -0.7876 -0.6736
   9523SM  H20G12910   1.526   2.267  14.082 -0.0870 -2.7789 -1.1089
   9523SM  C21F12911   1.679   2.408  13.991 -0.2911  1.0133  0.1816
   9523SM  H21F12912   1.637   2.421  13.889  1.8994  3.5978 -0.5153
   9523SM  H21G12913   1.787   2.391  13.970 -0.2164  0.8377  0.6971
   9523SM  C22F12914   1.667   2.530  14.083  0.0892  0.1114 -0.4941
   9523SM  H22F12915   1.741   2.509  14.163 -1.2350 -2.6132  0.1311
   9523SM  H22G12916   1.562   2.534  14.119 -0.3308  0.7551 -1.7497
   9523SM  C23F12917   1.706   2.652  14.003 -0.2666 -0.0832  1.0062
   9523SM  H23F12918   1.806   2.649  13.953 -1.1930 -0.3141 -0.9398
   9523SM  H23G12919   1.708   2.744  14.065 -0.5143  1.2403 -0.8565
   9523SM  H23H12920   1.638   2.673  13.918 -0.2075 -1.5382  0.5705
   9623SM     N12921   2.966   7.383  11.760  0.1386 -0.1795 -0.2337
   9623SM   C1512922   3.058   7.362  11.644 -0.5680  0.3172 -0.0967
   9623SM  H15A12923   3.033   7.444  11.579 -1.6594  2.2421  2.5749
   9623SM  H15B12924   3.051   7.269  11.590  1.2356 -0.0415  0.2298
   9623SM  H15C12925   3.162   7.376  11.669 -1.0736  2.6657  0.9765
   9623SM   C1412926   2.982   7.521  11.796  0.1786  0.0010  0.0183
   9623SM  H14A12927   2.984   7.583  11.708 -0.7120 -0.7272 -0.5233
   9623SM  H14B12928   3.071   7.540  11.855  0.9396 -2.2282 -0.3324
   9623SM  H14C12929   2.892   7.551  11.849 -1.1040  0.2168 -2.1632
   9623SM   C1312930   2.823   7.366  11.711 -0.0281 -0.2807 -0.4152
   9623SM  H13A12931   2.756   7.415  11.780  0.7673  0.3961 -0.1029
   9623SM  H13B12932   2.807   7.260  11.698  1.6800 -0.5414 -0.5857
   9623SM  H13C12933   2.806   7.427  11.624 -0.2506  0.5676  0.2062
   9623SM   C1212934   3.001   7.288  11.875 -0.5756  0.8386  0.3809
   9623SM  H12A12935   2.971   7.189  11.844 -0.0772  1.3527 -1.8936
   9623SM  H12B12936   2.933   7.323  11.952 -1.4685  1.8944 -0.8409
   9623SM   C1112937   3.146   7.286  11.927 -0.2875 -0.1062 -0.4405
   9623SM  H11A12938   3.210   7.255  11.842  0.6455 -0.3389  0.3174
   9623SM  H11B12939   3.166   7.210  12.005  1.0528  0.4071 -0.2400
   9623SM     P12940   3.139   7.465  12.117  0.3243  0.0244  0.1557
   9623SM   O1312941   3.266   7.475  12.197  0.5654 -0.0015 -0.0324
   9623SM   O1412942   3.061   7.589  12.111  0.1068  0.1936 -0.0927
   9623SM   O1112943   3.041   7.353  12.164 -0.3955 -0.0741 -0.2198
   9623SM   O1212944   3.186   7.416  11.970 -0.5479 -0.0955 -0.2730
   9623SM   C1S12945   3.075   7.278  12.288 -0.5794  0.6858  0.6386
   9623SM   H1S12946   3.180   7.242  12.280 -0.4406  1.0691  0.7229
   9623SM   H1T12947   3.018   7.183  12.284  0.4797  0.0832 -0.9833
   9623SM    NF12948   3.105   7.266  12.522  0.3998  0.1414  0.1070
   9623SM   HNF12949   3.044   7.191  12.546  3.1580 -2.0562  0.8073
   9623SM   C2S12950   3.049   7.353  12.423 -0.2715 -0.6592 -0.0376
   9623SM   H2S12951   3.110   7.445  12.406 -1.7855  0.0451 -2.1336
   9623SM   C3S12952   2.903   7.392  12.442 -0.0256 -0.4418  0.0505
   9623SM   H3S12953   2.835   7.307  12.420 -1.2286  0.1536  1.2877
   9623SM    O312954   2.855   7.498  12.358  0.4063 -0.3209 -0.5944
   9623SM   HO312955   2.922   7.522  12.294 -0.5241  0.4006 -1.3226
   9623SM   C4S12956   2.889   7.433  12.591  0.3238  0.1661  0.3070
   9623SM   H4S12957   2.960   7.514  12.612 -0.3732  0.5400  1.3113
   9623SM   C5S12958   2.791   7.390  12.678  0.6149 -0.6245 -0.2161
   9623SM   H5S12959   2.731   7.303  12.650 -1.3293  0.7190 -0.4414
   9623SM   C6S12960   2.769   7.434  12.822 -0.0475  0.0297  0.3918
   9623SM   H6S12961   2.810   7.354  12.888 -0.9203 -0.2093  0.6579
   9623SM   H6T12962   2.663   7.451  12.848 -0.3452  1.2163 -1.4414
   9623SM   C7S12963   2.855   7.557  12.856  0.4991  0.2413 -0.2471
   9623SM   H7S12964   2.842   7.630  12.773 -1.9686  1.9905  1.5043
   9623SM   H7T12965   2.957   7.521  12.877  1.0615  1.5910 -0.5592
   9623SM   C8S12966   2.789   7.606  12.990 -0.5516  0.2262  0.4677
   9623SM   H8S12967   2.776   7.517  13.054  0.5347  0.3092  0.8214
   9623SM   H8T12968   2.688   7.648  12.968 -0.9471 -0.1621  1.5059
   9623SM   C9S12969   2.856   7.732  13.056 -0.0504  1.1764 -0.4171
   9623SM   H9S12970   2.960   7.707  13.086 -0.5308  0.3961  0.6769
   9623SM   H9T12971   2.796   7.750  13.148 -1.5556  1.2274 -1.3884
   9623SM  C10S12972   2.883   7.848  12.969 -0.1978 -0.0772  0.3327
   9623SM  H10S12973   2.794   7.865  12.905 -0.0487  0.5403  0.2825
   9623SM  H10T12974   2.963   7.822  12.896  0.9929 -0.5594  1.7601
   9623SM  C11S12975   2.921   7.977  13.034 -0.4176 -0.2234 -0.2570
   9623SM  H11S12976   2.850   8.003  13.115  1.7934  1.4768  1.2895
   9623SM  H11T12977   2.921   8.062  12.962 -1.1486 -0.9671 -1.1551
   9623SM  C12S12978   3.065   7.975  13.098 -0.0289 -0.2916 -0.4196
   9623SM  H12S12979   3.142   7.929  13.032  1.3387  1.3956 -0.0618
   9623SM  H12T12980   3.052   7.914  13.190  0.5069 -1.3633 -1.0317
   9623SM  C13S12981   3.103   8.112  13.142  0.1265 -0.3191  0.6454
   9623SM  H13S12982   3.021   8.142  13.211  0.6088 -0.9994  1.5306
   9623SM  H13T12983   3.118   8.177  13.053  0.5759 -1.7985 -0.4014
   9623SM  C14S12984   3.232   8.118  13.231  0.4201  0.8173 -0.1229
   9623SM  H14S12985   3.316   8.081  13.168 -0.8340 -3.8757  0.5913
   9623SM  H14T12986   3.224   8.041  13.311 -1.6877 -1.1157 -2.0319
   9623SM  C15S12987   3.262   8.264  13.289 -0.7773 -0.3425  0.0852
   9623SM  H15S12988   3.238   8.344  13.217 -0.0498  0.6539  0.9121
   9623SM  H15T12989   3.368   8.255  13.323 -0.5131  0.3687 -0.5399
   9623SM  C16S12990   3.191   8.293  13.418 -0.1020 -0.2347  0.6774
   9623SM  H16S12991   3.172   8.207  13.486  2.7340 -1.3915  0.1623
   9623SM  H16T12992   3.097   8.339  13.381  0.3676 -0.6090 -1.0416
   9623SM  C17S12993   3.275   8.408  13.497 -0.0106  0.0320  0.2453
   9623SM  H17S12994   3.272   8.486  13.418 -0.7688 -2.9229 -2.9105
   9623SM  H17T12995   3.373   8.363  13.524 -0.2241  0.5093  1.8877
   9623SM  C18S12996   3.219   8.456  13.629  0.1677  0.3077  0.0720
   9623SM  H18S12997   3.125   8.513  13.622 -1.1297 -1.9582 -3.9457
   9623SM  H18T12998   3.293   8.521  13.680  0.7932  0.7622 -1.3646
   9623SM  H18U12999   3.203   8.374  13.703  2.0152 -0.8139 -0.6768
   9623SM   C1F13000   3.228   7.260  12.548  0.1972 -0.1426  0.5103
   9623SM    OF13001   3.311   7.344  12.508 -0.2182 -0.2061 -0.7328
   9623SM   C2F13002   3.267   7.151  12.642  0.0371 -0.1567  1.0371
   9623SM   H2F13003   3.376   7.136  12.633  0.1422  1.0311 -0.2270
   9623SM   H2G13004   3.212   7.056  12.624 -2.0879  1.1364  0.2322
   9623SM   C3F13005   3.230   7.190  12.793  0.4534 -0.2378  1.1450
   9623SM   H3F13006   3.122   7.209  12.809  0.1327 -1.3672  0.4448
   9623SM   H3G13007   3.280   7.288  12.804 -1.6964  0.9328  0.9189
   9623SM   C4F13008   3.275   7.088  12.899  0.0598  0.1631 -0.7192
   9623SM   H4F13009   3.365   7.029  12.871 -0.4331 -0.8307 -0.2939
   9623SM   H4G13010   3.192   7.015  12.913 -0.2433  0.9682  2.5071
   9623SM   C5F13011   3.291   7.170  13.024 -0.1547 -0.1866  0.3281
   9623SM   H5F13012   3.371   7.244  13.003  2.0830 -2.2176  1.1947
   9623SM   H5G13013   3.345   7.104  13.096  0.0855  0.6530  0.9294
   9623SM   C6F13014   3.163   7.229  13.082 -0.5078 -0.6837  0.6536
   9623SM   H6F13015   3.097   7.143  13.104 -3.0669  0.6617 -1.2331
   9623SM   H6G13016   3.113   7.299  13.011 -0.4704 -2.8751 -1.6691
   9623SM   C7F13017   3.187   7.317  13.204 -0.3004  0.5098  0.4782
   9623SM   H7F13018   3.226   7.413  13.164  0.9833  0.4514  1.4990
   9623SM   H7G13019   3.265   7.259  13.259 -0.3895 -1.0037 -0.9161
   9623SM   C8F13020   3.062   7.347  13.286  0.1029 -0.2959  0.6432
   9623SM   H8F13021   2.979   7.365  13.214  2.7634 -0.3321 -2.6369
   9623SM   H8G13022   3.077   7.439  13.347  1.0510  0.0430 -0.0920
   9623SM   C9F13023   3.023   7.230  13.375  0.0264  0.2470 -0.2172
   9623SM   H9F13024   3.093   7.220  13.460 -1.2954  1.8249  1.1211
   9623SM   H9G13025   3.035   7.141  13.310 -1.2726  0.9397 -1.4726
   9623SM  C10F13026   2.880   7.243  13.429  0.0146 -0.2383  0.3899
   9623SM  H10F13027   2.843   7.145  13.464 -1.8392 -0.1253 -1.1068
   9623SM  H10G13028   2.813   7.276  13.346 -0.1215 -0.8913  0.2371
   9623SM  C11F13029   2.872   7.355  13.540  0.2313 -0.0234  0.3573
   9623SM  H11F13030   2.905   7.456  13.510  1.2501  0.1176  1.8235
   9623SM  H11G13031   2.947   7.332  13.619 -0.4837 -1.9313  0.5418
   9623SM  C12F13032   2.727   7.368  13.587 -0.5086 -0.2062 -0.7855
   9623SM  H12F13033   2.693   7.265  13.609 -1.9856  0.6025  1.0447
   9623SM  H12G13034   2.659   7.405  13.507  0.1365 -0.1245 -1.3087
   9623SM  C13F13035   2.702   7.462  13.704 -0.3202 -0.5832  0.8136
   9623SM  H13F13036   2.604   7.437  13.750 -0.0557 -2.0889  0.6176
   9623SM  H13G13037   2.689   7.559  13.651  2.4901 -0.8509 -0.5452
   9623SM  C14F13038   2.802   7.467  13.826  0.4728  0.0771  0.3709
   9623SM  H14F13039   2.905   7.473  13.785  1.3263  0.9953  2.5170
   9623SM  H14G13040   2.793   7.370  13.881 -1.0192  0.6867  1.2439
   9623SM  C15F13041   2.792   7.593  13.926 -0.3491  0.1821  0.7984
   9623SM  H15F13042   2.695   7.601  13.979 -1.7438 -0.4193 -1.5144
   9623SM  H15G13043   2.811   7.685  13.866 -2.3341 -0.0978 -0.3472
   9623SM  C16F13044   2.907   7.576  14.024  1.0532  1.1791 -0.3051
   9623SM  H16F13045   2.931   7.664  14.087  1.2872  0.9113 -0.0140
   9623SM  H16G13046   2.996   7.550  13.963 -2.2932 -0.7723 -4.9531
   9623SM  C17F13047   2.881   7.457  14.125  0.0387  0.3066 -0.3080
   9623SM  H17F13048   2.863   7.361  14.072  0.7480  0.3374 -0.6209
   9623SM  H17G13049   2.795   7.475  14.193  0.2974  1.5264 -0.2938
   9623SM  C18F13050   3.002   7.451  14.222 -0.3096 -0.0027 -0.0927
   9623SM  H18F13051   3.027   7.551  14.263  2.1071 -0.7767  0.4617
   9623SM  H18G13052   3.093   7.427  14.164 -0.1220  0.2096  0.1153
   9623SM  C19F13053   2.981   7.354  14.333 -0.4154  0.3140 -0.4484
   9623SM  H19F13054   2.957   7.252  14.297  1.3074 -0.0308 -0.6739
   9623SM  H19G13055   2.891   7.395  14.385 -0.6222  0.9670 -1.2926
   9623SM  C20F13056   3.097   7.339  14.430  0.9419  0.8804 -1.0272
   9623SM  H20F13057   3.118   7.442  14.466 -0.2311  0.2570  1.7377
   9623SM  H20G13058   3.187   7.286  14.392  0.0778 -0.5755 -1.1523
   9623SM  C21F13059   3.067   7.252  14.556 -0.4462 -0.1158 -0.3054
   9623SM  H21F13060   3.064   7.144  14.530 -0.4796 -0.0380 -0.6205
   9623SM  H21G13061   2.965   7.279  14.589  0.3199  0.4457  1.7640
   9623SM  C22F13062   3.174   7.266  14.664 -0.3071  0.8757  0.2099
   9623SM  H22F13063   3.193   7.373  14.687  2.1350  0.5423  0.0167
   9623SM  H22G13064   3.266   7.211  14.637 -0.2065  0.7700  0.7441
   9623SM  C23F13065   3.129   7.190  14.792 -0.8099  0.5779  0.1242
   9623SM  H23F13066   3.036   7.241  14.826 -1.7179  0.0990 -1.5446
   9623SM  H23G13067   3.210   7.201  14.867 -0.0492 -1.6561 -0.3105
   9623SM  H23H13068   3.104   7.084  14.770 -0.9908  0.3953  1.1794
   9723SM     N13069   3.772   0.013  12.189 -0.1965 -0.0338  0.5345
   9723SM   C1513070   3.683  -0.064  12.096  0.0488 -0.3279  0.4056
   9723SM  H15A13071   3.601  -0.109  12.151  2.0777 -1.9209  2.3226
   9723SM  H15B13072   3.739  -0.142  12.047  0.2361 -1.1222  1.8090
   9723SM  H15C13073   3.642   0.004  12.023  0.7690 -0.4432 -0.1100
   9723SM   C1413074   3.697   0.131  12.250  0.0192  0.2898  0.0341
   9723SM  H14A13075   3.764   0.195  12.305 -0.1418  0.6404 -0.1753
   9723SM  H14B13076   3.617   0.092  12.312 -0.7179 -1.0902 -1.7240
   9723SM  H14C13077   3.661   0.179  12.161  1.2159  1.5542  0.1965
   9723SM   C1313078   3.787  -0.079  12.306  0.9540  0.3983  0.3338
   9723SM  H13A13079   3.806  -0.019  12.394 -1.4890  0.7146  0.7154
   9723SM  H13B13080   3.863  -0.152  12.280 -0.6818 -0.6476 -1.8224
   9723SM  H13C13081   3.704  -0.145  12.322  2.4771 -1.0306  3.2890
   9723SM   C1213082   3.908   0.052  12.128 -0.0032 -0.9510 -0.6501
   9723SM  H12A13083   3.948   0.095  12.218 -0.5498 -1.1697 -0.2962
   9723SM  H12B13084   3.900   0.121  12.046  0.2351 -1.3528 -1.0151
   9723SM   C1113085   3.989  -0.075  12.081 -0.1048 -0.9194  0.5672
   9723SM  H11A13086   4.076  -0.024  12.033 -0.7749  1.4411  1.6927
   9723SM  H11B13087   3.931  -0.127  12.001 -1.5148  2.0229 -0.4751
   9723SM     P13088   4.158  -0.247  12.208 -0.4674 -0.2224 -0.0692
   9723SM   O1313089   4.138  -0.351  12.310 -0.5449 -0.8260 -0.9225
   9723SM   O1413090   4.210  -0.291  12.076  0.5046 -0.6399  0.0156
   9723SM   O1113091   4.246  -0.125  12.258 -0.1686  0.0627  0.1414
   9723SM   O1213092   4.021  -0.171  12.185  0.2064 -0.3477 -0.3245
   9723SM   C1S13093   4.200  -0.035  12.350 -0.0339 -0.6117  0.3334
   9723SM   H1S13094   4.113  -0.067  12.412 -0.9380 -0.7400 -0.9584
   9723SM   H1T13095   4.160   0.050  12.289  0.7682 -0.6790 -0.3021
   9723SM    NF13096   4.261   0.128  12.517 -0.5211 -0.3896  0.3653
   9723SM   HNF13097   4.302   0.217  12.498  1.2390 -1.3996 -0.8625
   9723SM   C2S13098   4.318   0.024  12.433  0.2748 -0.2006  0.4185
   9723SM   H2S13099   4.352  -0.068  12.486  2.0061 -0.4168 -0.9837
   9723SM   C3S13100   4.434   0.081  12.344  1.1094  0.1693 -0.7825
   9723SM   H3S13101   4.389   0.160  12.281 -0.9648 -0.5996 -0.3244
   9723SM    O313102   4.494  -0.020  12.256 -1.0513  0.1287  0.2319
   9723SM   HO313103   4.440  -0.098  12.272 -0.5589 -0.5362 -1.1487
   9723SM   C4S13104   4.537   0.143  12.435  0.0597 -0.0708  0.1970
   9723SM   H4S13105   4.552   0.091  12.530 -1.7142 -0.3368  0.3761
   9723SM   C5S13106   4.603   0.263  12.419  0.4528 -0.7194 -0.2476
   9723SM   H5S13107   4.571   0.335  12.343 -1.2441  0.2016  1.2458
   9723SM   C6S13108   4.703   0.303  12.523 -0.2493  0.5718 -0.0310
   9723SM   H6S13109   4.788   0.357  12.476  0.8279  0.5259  1.7785
   9723SM   H6T13110   4.743   0.211  12.569  0.6340  0.5200 -0.8683
   9723SM   C7S13111   4.649   0.399  12.635  0.3534 -0.1110  0.1243
   9723SM   H7S13112   4.625   0.494  12.583 -1.1961  0.2880  1.4643
   9723SM   H7T13113   4.730   0.420  12.709 -1.1360  0.8069  1.5805
   9723SM   C8S13114   4.524   0.334  12.711  0.1448 -0.7680 -0.2267
   9723SM   H8S13115   4.532   0.226  12.738 -1.3381 -1.2108 -1.4209
   9723SM   H8T13116   4.434   0.351  12.648 -0.1473  0.7744  0.5696
   9723SM   C9S13117   4.490   0.412  12.840 -0.1525 -0.0530 -0.1036
   9723SM   H9S13118   4.381   0.391  12.847  0.2528 -2.1629  0.5023
   9723SM   H9T13119   4.523   0.516  12.822 -1.7997  0.5921  0.3758
   9723SM  C10S13120   4.537   0.357  12.974 -0.4078  0.1179  0.3924
   9723SM  H10S13121   4.492   0.256  12.982 -1.8117  0.7861  1.5558
   9723SM  H10T13122   4.509   0.428  13.055  0.9850  1.9691 -0.6534
   9723SM  C11S13123   4.692   0.329  12.970  0.5201 -0.1655 -0.6602
   9723SM  H11S13124   4.754   0.416  12.941  0.3173  0.4312  0.6018
   9723SM  H11T13125   4.706   0.259  12.885  2.3428 -0.4997 -0.1261
   9723SM  C12S13126   4.747   0.267  13.098 -0.3086 -0.3255 -0.3864
   9723SM  H12S13127   4.842   0.218  13.068 -0.6654 -0.1485 -1.9055
   9723SM  H12T13128   4.674   0.192  13.135  0.3444 -1.5911 -1.5768
   9723SM  C13S13129   4.769   0.362  13.217  0.2000  0.0500  0.4281
   9723SM  H13S13130   4.678   0.409  13.260  0.7835  0.2411  1.4851
   9723SM  H13T13131   4.841   0.441  13.188  0.9731 -0.9113 -0.3632
   9723SM  C14S13132   4.849   0.281  13.326 -0.0887 -0.5652  0.3687
   9723SM  H14S13133   4.943   0.246  13.277 -1.2143 -0.6489 -1.8290
   9723SM  H14T13134   4.793   0.189  13.353  0.3535 -1.3262 -1.1874
   9723SM  C15S13135   4.865   0.374  13.450  0.1263  0.6126  0.1010
   9723SM  H15S13136   4.763   0.410  13.474 -0.1969  0.2133 -0.6662
   9723SM  H15T13137   4.930   0.462  13.430  0.4961  0.5721  1.0509
   9723SM  C16S13138   4.936   0.310  13.580 -0.6818  0.1542  0.8624
   9723SM  H16S13139   5.039   0.285  13.547 -1.6240  1.2196 -3.5358
   9723SM  H16T13140   4.891   0.214  13.613  2.5960 -1.8494 -0.0104
   9723SM  C17S13141   4.936   0.395  13.707 -0.1462 -0.1257  0.1065
   9723SM  H17S13142   4.830   0.410  13.739  0.0164  0.8575  0.2211
   9723SM  H17T13143   4.983   0.494  13.689  3.1173 -1.8542 -1.8112
   9723SM  C18S13144   5.002   0.329  13.826 -0.2774 -0.2605 -0.0812
   9723SM  H18S13145   4.940   0.246  13.867  0.2313 -0.0262  1.2137
   9723SM  H18T13146   5.017   0.404  13.907 -1.7801 -0.9779  0.9000
   9723SM  H18U13147   5.106   0.292  13.811 -0.5351 -0.0786 -2.5919
   9723SM   C1F13148   4.178   0.106  12.619 -0.4978  0.0644 -0.4821
   9723SM    OF13149   4.156  -0.005  12.652 -0.6865 -0.3360  0.3111
   9723SM   C2F13150   4.116   0.231  12.684  0.6466 -0.0960  0.3529
   9723SM   H2F13151   4.016   0.237  12.636  0.4382 -1.0259  0.6439
   9723SM   H2G13152   4.165   0.328  12.662 -0.6169  0.1510 -1.6423
   9723SM   C3F13153   4.090   0.212  12.839  0.6720  0.2899  0.5163
   9723SM   H3F13154   4.191   0.206  12.884  0.8437  0.9533  0.2311
   9723SM   H3G13155   4.039   0.117  12.866 -2.6160  1.7705 -0.0708
   9723SM   C4F13156   4.029   0.324  12.918 -0.1851 -0.2750 -0.1667
   9723SM   H4F13157   3.926   0.342  12.879 -0.1727  1.0516  0.3464
   9723SM   H4G13158   4.098   0.410  12.905  0.3655 -0.5612  0.7812
   9723SM   C5F13159   4.013   0.305  13.072  0.0346  0.1618 -0.2057
   9723SM   H5F13160   3.952   0.215  13.097 -0.7113  0.3021 -1.4146
   9723SM   H5G13161   3.962   0.393  13.117 -1.1882 -0.3525 -0.5277
   9723SM   C6F13162   4.152   0.292  13.141  0.2646  0.2311  0.6472
   9723SM   H6F13163   4.220   0.379  13.130  1.4081 -0.7823 -0.6171
   9723SM   H6G13164   4.202   0.201  13.103 -0.5638  0.2126 -0.4609
   9723SM   C7F13165   4.129   0.244  13.287 -0.2450 -0.1470 -1.0714
   9723SM   H7F13166   4.076   0.146  13.286  0.1199 -0.4975  1.9510
   9723SM   H7G13167   4.058   0.313  13.337 -1.2888 -2.3354  0.6721
   9723SM   C8F13168   4.263   0.227  13.362 -0.1503 -0.3314  0.0761
   9723SM   H8F13169   4.336   0.177  13.296 -0.0234  0.1748 -0.1745
   9723SM   H8G13170   4.247   0.157  13.447 -0.0334 -0.2669  0.1532
   9723SM   C9F13171   4.324   0.364  13.403 -0.2685 -0.4693  0.0850
   9723SM   H9F13172   4.242   0.419  13.453 -0.2301 -0.3146 -0.0221
   9723SM   H9G13173   4.374   0.410  13.315 -0.0627 -0.5156  0.1770
   9723SM  C10F13174   4.447   0.343  13.494 -0.3059 -0.1342 -0.1163
   9723SM  H10F13175   4.483   0.445  13.516  0.0607  0.0006 -1.2617
   9723SM  H10G13176   4.530   0.290  13.442  1.3740  0.4065  1.8716
   9723SM  C11F13177   4.419   0.273  13.624 -0.1893 -0.1549 -0.2281
   9723SM  H11F13178   4.505   0.270  13.694 -0.1248  0.3274 -0.2861
   9723SM  H11G13179   4.387   0.168  13.606 -1.0768 -0.1654  1.1779
   9723SM  C12F13180   4.296   0.330  13.701 -0.6828 -0.4619 -0.2371
   9723SM  H12F13181   4.208   0.337  13.634  1.4556 -1.4930 -3.3762
   9723SM  H12G13182   4.330   0.428  13.742 -2.2290 -0.8802  2.2724
   9723SM  C13F13183   4.258   0.247  13.833 -0.2851  0.6048  0.5826
   9723SM  H13F13184   4.343   0.235  13.904  1.0087 -2.9332 -1.3112
   9723SM  H13G13185   4.225   0.146  13.800  0.7887  0.6092 -0.5448
   9723SM  C14F13186   4.148   0.318  13.911 -0.4479  0.1377  0.2722
   9723SM  H14F13187   4.188   0.417  13.939  1.5734 -1.2847  2.8413
   9723SM  H14G13188   4.157   0.265  14.008 -2.1247 -0.8244 -0.0503
   9723SM  C15F13189   4.009   0.315  13.850 -0.1688  0.4635 -0.6334
   9723SM  H15F13190   3.976   0.213  13.820 -0.1648  0.3750 -0.3432
   9723SM  H15G13191   4.006   0.365  13.751 -2.7767 -2.0010 -1.9574
   9723SM  C16F13192   3.897   0.367  13.945 -0.1869 -0.0969 -0.4424
   9723SM  H16F13193   3.878   0.475  13.924  0.2928  0.2548  0.8020
   9723SM  H16G13194   3.928   0.359  14.051 -5.2851 -0.4161  1.3052
   9723SM  C17F13195   3.769   0.295  13.917 -0.2469  0.2521  0.1185
   9723SM  H17F13196   3.782   0.187  13.939 -0.0949 -0.5021 -3.1508
   9723SM  H17G13197   3.745   0.298  13.809  1.3063 -0.9181 -0.2795
   9723SM  C18F13198   3.648   0.360  13.993 -0.5424 -0.1423 -0.2729
   9723SM  H18F13199   3.635   0.469  13.981 -0.0568  0.1269  1.4766
   9723SM  H18G13200   3.662   0.339  14.101  0.2242  0.6260 -0.2175
   9723SM  C19F13201   3.508   0.295  13.957  0.8242  0.2545  0.3599
   9723SM  H19F13202   3.516   0.272  13.849  1.1229 -0.8830  0.6095
   9723SM  H19G13203   3.416   0.355  13.975  0.5848  0.4188 -1.2940
   9723SM  C20F13204   3.497   0.154  14.023  0.1837  0.0813  0.3613
   9723SM  H20F13205   3.465   0.171  14.128  1.5667 -1.4570  1.0900
   9723SM  H20G13206   3.601   0.115  14.032  1.2976  3.1175  1.8740
   9723SM  C21F13207   3.408   0.052  13.951  0.4403  0.1882 -0.4697
   9723SM  H21F13208   3.456   0.024  13.855 -0.8071 -1.8036 -0.5691
   9723SM  H21G13209   3.312   0.103  13.927  0.3150  0.9446  1.5007
   9723SM  C22F13210   3.395  -0.072  14.042  0.2862 -0.8945  0.4199
   9723SM  H22F13211   3.332  -0.143  13.984 -1.0626 -0.5419  1.3866
   9723SM  H22G13212   3.341  -0.041  14.134  1.6956 -0.6198  1.1713
   9723SM  C23F13213   3.528  -0.136  14.081  0.2823 -0.4793 -0.1564
   9723SM  H23F13214   3.591  -0.134  13.989 -0.9504 -2.6516 -1.1151
   9723SM  H23G13215   3.517  -0.243  14.106 -0.5634  0.3139  3.4310
   9723SM  H23H13216   3.567  -0.087  14.173  0.9079 -0.5418 -0.3844
   9823SM     N13217   6.642   7.290  11.959 -0.2102 -0.6609 -0.3517
   9823SM   C1513218   6.639   7.221  12.091 -0.5516 -0.2704 -0.1618
   9823SM  H15A13219   6.658   7.119  12.063 -1.0477 -0.4423  0.1331
   9823SM  H15B13220   6.542   7.231  12.137  0.3813 -1.7009  2.3109
   9823SM  H15C13221   6.716   7.256  12.158  0.4882 -0.2016 -1.3433
   9823SM   C1413222   6.538   7.225  11.866  1.0221 -0.2032 -0.1179
   9823SM  H14A13223   6.441   7.208  11.910  0.8248  0.1299 -0.4193
   9823SM  H14B13224   6.575   7.124  11.854 -1.4756 -0.9535 -2.4095
   9823SM  H14C13225   6.540   7.263  11.765  2.1329  1.1417  0.3550
   9823SM   C1313226   6.593   7.434  11.974  0.7979  0.4463 -1.0107
   9823SM  H13A13227   6.621   7.489  12.062  0.8542  0.2936 -0.9321
   9823SM  H13B13228   6.485   7.436  11.976  0.7800 -0.1866  0.5368
   9823SM  H13C13229   6.639   7.494  11.897  1.0613  1.7819  0.1505
   9823SM   C1213230   6.785   7.296  11.896  0.0642  0.7172 -0.5835
   9823SM  H12A13231   6.786   7.341  11.798 -0.0701 -0.8781 -1.3469
   9823SM  H12B13232   6.830   7.200  11.876 -0.2214  0.4222  0.1502
   9823SM   C1113233   6.892   7.368  11.994 -0.2746 -0.3249  0.0118
   9823SM  H11A13234   6.865   7.476  12.002  0.5988  0.0008 -1.2143
   9823SM  H11B13235   6.983   7.381  11.931 -0.4467 -0.5825 -0.2975
   9823SM     P13236   6.993   7.189  12.151  0.0122 -0.3821 -0.2685
   9823SM   O1313237   6.962   7.139  12.289 -0.4131 -0.7445  0.0585
   9823SM   O1413238   6.974   7.097  12.036  0.5482 -0.0040 -0.8141
   9823SM   O1113239   7.141   7.246  12.141 -0.5392 -0.6120 -0.4709
   9823SM   O1213240   6.907   7.320  12.123 -0.0701  0.0637  0.6949
   9823SM   C1S13241   7.177   7.370  12.209 -0.2095 -0.5028  0.4074
   9823SM   H1S13242   7.123   7.463  12.181  3.6906  2.3074  1.2965
   9823SM   H1T13243   7.286   7.381  12.188 -0.3609 -0.6353 -0.4685
   9823SM    NF13244   7.202   7.495  12.416 -0.2284 -0.1360  0.1085
   9823SM   HNF13245   7.294   7.525  12.438 -0.2011  0.3999 -0.6670
   9823SM   C2S13246   7.180   7.365  12.367  0.5931 -0.2344  0.2371
   9823SM   H2S13247   7.083   7.336  12.412  0.6898  0.7789  1.1360
   9823SM   C3S13248   7.298   7.265  12.404 -0.8916 -0.3646 -0.5749
   9823SM   H3S13249   7.394   7.311  12.372 -0.5920 -1.7441 -1.7598
   9823SM    O313250   7.294   7.136  12.351 -0.0722  0.0520  0.2574
   9823SM   HO313251   7.242   7.157  12.273 -2.9733  2.3435  2.5679
   9823SM   C4S13252   7.298   7.244  12.553  0.0317 -0.0587  0.1087
   9823SM   H4S13253   7.211   7.186  12.588 -1.3616  2.5493  1.2537
   9823SM   C5S13254   7.383   7.298  12.637  0.5418 -0.2827 -0.7719
   9823SM   H5S13255   7.460   7.370  12.608  0.9846 -0.0579  0.8633
   9823SM   C6S13256   7.382   7.272  12.784  0.0510  0.1581 -0.1778
   9823SM   H6S13257   7.406   7.366  12.838  1.5069  0.2859 -1.0070
   9823SM   H6T13258   7.464   7.201  12.804  1.4846  0.8425 -3.0570
   9823SM   C7S13259   7.250   7.219  12.844 -0.4502  0.0163 -0.6658
   9823SM   H7S13260   7.232   7.119  12.798 -2.0796  0.4348 -0.9816
   9823SM   H7T13261   7.170   7.288  12.810 -3.0306 -2.0850  0.8073
   9823SM   C8S13262   7.251   7.222  12.999 -0.0175  0.0467  0.0125
   9823SM   H8S13263   7.259   7.330  13.024 -1.4281  0.1067  0.2688
   9823SM   H8T13264   7.337   7.163  13.037  0.4989 -0.6757 -2.1292
   9823SM   C9S13265   7.131   7.157  13.054 -0.4360 -0.1882  0.6462
   9823SM   H9S13266   7.132   7.055  13.012 -3.8584  0.7713 -2.2389
   9823SM   H9T13267   7.031   7.190  13.020 -1.1712 -0.5974  2.3194
   9823SM  C10S13268   7.121   7.143  13.207  0.0652  0.2500  0.7730
   9823SM  H10S13269   7.059   7.224  13.251 -1.4938  0.4243 -1.5540
   9823SM  H10T13270   7.221   7.144  13.256  0.8693  0.8252 -0.8198
   9823SM  C11S13271   7.052   7.013  13.238 -0.1622 -0.5073  0.4360
   9823SM  H11S13272   7.124   6.929  13.239  1.1062  0.5357  2.0939
   9823SM  H11T13273   6.978   6.992  13.158  2.1500  0.0579 -2.0088
   9823SM  C12S13274   6.990   7.011  13.383 -0.2501 -0.1690  0.2036
   9823SM  H12S13275   6.912   7.090  13.379 -0.7442 -0.6960 -1.6004
   9823SM  H12T13276   7.067   7.025  13.462 -1.0275 -1.6567  1.2798
   9823SM  C13S13277   6.938   6.866  13.421  0.6545 -0.6586 -0.5723
   9823SM  H13S13278   7.012   6.787  13.397  0.1031 -1.0928 -0.8637
   9823SM  H13T13279   6.851   6.850  13.353  0.6876  1.6460 -1.2517
   9823SM  C14S13280   6.898   6.846  13.567  0.4386  0.0824  0.7571
   9823SM  H14S13281   6.809   6.909  13.590  1.5666  1.4826  1.4208
   9823SM  H14T13282   6.987   6.880  13.624 -0.7112  0.3637  2.4725
   9823SM  C15S13283   6.850   6.710  13.619  0.5468  0.5829 -0.1031
   9823SM  H15S13284   6.773   6.671  13.549  1.2306 -1.8945  0.4118
   9823SM  H15T13285   6.810   6.727  13.722  1.6903  0.2034  0.4183
   9823SM  C16S13286   6.965   6.617  13.630  0.4798  0.1725 -0.1986
   9823SM  H16S13287   7.044   6.675  13.682  0.2191 -0.6180  1.1239
   9823SM  H16T13288   7.013   6.591  13.533  2.3661  0.8701  0.5052
   9823SM  C17S13289   6.952   6.493  13.721 -0.4386 -1.1679  0.0320
   9823SM  H17S13290   6.880   6.431  13.664 -0.3859 -0.0272 -1.3372
   9823SM  H17T13291   6.916   6.516  13.824  0.3313  1.5168 -0.2152
   9823SM  C18S13292   7.072   6.405  13.733 -0.1256 -0.2332 -0.4625
   9823SM  H18S13293   7.112   6.381  13.632  0.6942 -0.2421 -0.1501
   9823SM  H18T13294   7.044   6.305  13.771 -2.3626  0.4800 -0.1278
   9823SM  H18U13295   7.151   6.444  13.801 -0.6429 -0.5745  0.3422
   9823SM   C1F13296   7.100   7.584  12.423  0.0324  0.0464  0.1113
   9823SM    OF13297   6.984   7.550  12.395  0.4109  0.7091  0.2580
   9823SM   C2F13298   7.133   7.721  12.480  0.3090  0.0505 -0.3143
   9823SM   H2F13299   7.036   7.775  12.477 -0.7960 -1.4518  3.3002
   9823SM   H2G13300   7.200   7.773  12.408 -1.5176  0.0250 -2.1163
   9823SM   C3F13301   7.193   7.714  12.624  0.4324 -0.8508  0.5584
   9823SM   H3F13302   7.213   7.816  12.662 -0.9950 -0.9052  1.5383
   9823SM   H3G13303   7.294   7.668  12.613  0.4715 -0.4224 -1.2001
   9823SM   C4F13304   7.105   7.650  12.720 -0.4822  0.2777  0.0907
   9823SM   H4F13305   7.116   7.540  12.712 -2.2105  0.1674 -1.7669
   9823SM   H4G13306   7.001   7.681  12.698 -0.1829  2.3171  1.3063
   9823SM   C5F13307   7.140   7.690  12.863 -0.0218  0.5218 -0.1711
   9823SM   H5F13308   7.140   7.800  12.882  0.5039  0.8824 -2.0412
   9823SM   H5G13309   7.242   7.654  12.888 -0.2541  0.4875  0.7464
   9823SM   C6F13310   7.050   7.636  12.974  0.4584 -0.2291 -0.1678
   9823SM   H6F13311   7.043   7.529  12.947  0.0430 -0.1367 -0.4183
   9823SM   H6G13312   6.948   7.678  12.968  1.1735  1.7431  0.6040
   9823SM   C7F13313   7.095   7.667  13.120 -0.8171  0.3237 -0.0681
   9823SM   H7F13314   7.080   7.775  13.144 -1.2390  0.1938  0.2587
   9823SM   H7G13315   7.204   7.648  13.128 -0.6462  0.8203 -1.0914
   9823SM   C8F13316   7.030   7.569  13.220 -0.7931 -0.0195  0.0026
   9823SM   H8F13317   7.062   7.464  13.206  2.4748  1.0108 -1.2592
   9823SM   H8G13318   6.922   7.577  13.198 -0.7197 -1.4522 -1.0198
   9823SM   C9F13319   7.059   7.617  13.360  0.1196  0.1133  0.0987
   9823SM   H9F13320   7.027   7.720  13.384  1.2048  0.3706  0.4946
   9823SM   H9G13321   7.170   7.623  13.369 -0.0486  1.9135  1.5939
   9823SM  C10F13322   7.002   7.522  13.463  0.8730 -0.4539  0.0439
   9823SM  H10F13323   7.035   7.417  13.448  1.3589 -0.2870 -0.0785
   9823SM  H10G13324   6.892   7.530  13.454  1.0306  0.7400 -1.2579
   9823SM  C11F13325   7.045   7.566  13.609  0.2157 -0.3725  0.0998
   9823SM  H11F13326   7.014   7.672  13.624  0.0239 -0.4716  0.4066
   9823SM  H11G13327   7.155   7.562  13.620  0.2445  1.0041  0.5246
   9823SM  C12F13328   6.981   7.478  13.727  0.6191  0.3373 -0.3018
   9823SM  H12F13329   7.009   7.372  13.712 -0.9080  0.0408 -1.2647
   9823SM  H12G13330   6.871   7.472  13.729  0.7204 -1.8662  0.1147
   9823SM  C13F13331   7.023   7.533  13.862 -0.2334  0.0465 -0.0642
   9823SM  H13F13332   6.987   7.638  13.867  0.7184  0.3814  0.1227
   9823SM  H13G13333   7.133   7.540  13.875 -0.3389 -0.1814  1.0550
   9823SM  C14F13334   6.974   7.467  13.991 -0.9016  0.7864 -0.7052
   9823SM  H14F13335   7.018   7.365  13.997 -1.6021  0.5538  1.4725
   9823SM  H14G13336   6.865   7.444  13.996 -0.8606  0.7989  2.5708
   9823SM  C15F13337   7.026   7.528  14.126 -0.6378 -0.0829 -0.3979
   9823SM  H15F13338   7.005   7.637  14.124 -0.1898  0.0007 -0.7892
   9823SM  H15G13339   7.136   7.515  14.119 -0.5132  0.5103  0.3138
   9823SM  C16F13340   6.966   7.468  14.247  0.6566 -0.2563  0.1171
   9823SM  H16F13341   7.014   7.502  14.341 -0.0128  1.3438 -0.0874
   9823SM  H16G13342   6.964   7.356  14.246 -1.8457 -0.2586 -0.3212
   9823SM  C17F13343   6.816   7.518  14.260 -0.2217 -0.3102  0.4933
   9823SM  H17F13344   6.759   7.506  14.166 -1.3046 -0.8413  1.1913
   9823SM  H17G13345   6.825   7.621  14.299  1.7630  0.8785 -2.7367
   9823SM  C18F13346   6.738   7.430  14.360  0.4526 -0.5150  0.1633
   9823SM  H18F13347   6.796   7.428  14.454  1.8552  1.0266 -0.6143
   9823SM  H18G13348   6.736   7.326  14.320 -0.4238  0.6950 -3.3814
   9823SM  C19F13349   6.594   7.478  14.398 -0.0671  0.2384 -0.2778
   9823SM  H19F13350   6.540   7.478  14.301  0.2672 -0.1658 -0.4671
   9823SM  H19G13351   6.603   7.583  14.433 -0.5461 -0.2206  1.3025
   9823SM  C20F13352   6.531   7.375  14.493 -0.5079 -0.1628 -0.4912
   9823SM  H20F13353   6.602   7.355  14.576 -0.7643  1.0841  0.0461
   9823SM  H20G13354   6.530   7.275  14.445  1.7886 -0.1524 -0.6934
   9823SM  C21F13355   6.393   7.413  14.553 -0.1411  0.1531  0.1371
   9823SM  H21F13356   6.312   7.398  14.478 -0.6437  2.3311  0.1662
   9823SM  H21G13357   6.387   7.521  14.577  3.1538  0.4711 -0.0507
   9823SM  C22F13358   6.357   7.337  14.682  0.1107 -0.2950  0.9496
   9823SM  H22F13359   6.385   7.232  14.657 -0.7261 -0.2683 -0.1907
   9823SM  H22G13360   6.249   7.336  14.709 -0.0744  0.3602  0.2794
   9823SM  C23F13361   6.431   7.374  14.809  0.9555  0.4986  0.3058
   9823SM  H23F13362   6.540   7.355  14.801  0.7835 -0.5991  0.3575
   9823SM  H23G13363   6.391   7.319  14.897 -1.1442  1.3837 -0.0270
   9823SM  H23H13364   6.420   7.484  14.819 -1.1486  0.3162  0.3719
   9923SM     N13365   0.475   0.304  11.872 -0.2023 -0.4742 -0.1446
   9923SM   C1513366   0.538   0.163  11.863  0.3158  0.2981  0.7851
   9923SM  H15A13367   0.644   0.166  11.880  1.0371 -0.4735 -2.7308
   9923SM  H15B13368   0.516   0.122  11.765 -1.3047  0.6247  0.9859
   9923SM  H15C13369   0.488   0.104  11.938 -2.0249  1.7426  0.4568
   9923SM   C1413370   0.541   0.380  11.769  0.2294 -0.0712 -0.3610
   9923SM  H14A13371   0.524   0.335  11.672 -0.5662 -1.9594  0.6152
   9923SM  H14B13372   0.648   0.377  11.784  0.1413 -1.0703  0.1753
   9923SM  H14C13373   0.497   0.478  11.765 -1.8008 -0.9627 -1.4474
   9923SM   C1313374   0.333   0.308  11.824 -0.2399 -0.1383 -0.1714
   9923SM  H13A13375   0.262   0.246  11.879 -0.1908  1.1157  1.3765
   9923SM  H13B13376   0.333   0.283  11.719 -1.3278  0.1174 -0.2484
   9923SM  H13C13377   0.291   0.406  11.840 -0.6016 -0.5226  1.4152
   9923SM   C1213378   0.495   0.378  12.001 -0.1916  0.8324 -0.0623
   9923SM  H12A13379   0.448   0.474  11.987  0.1585  1.0463  0.2198
   9923SM  H12B13380   0.599   0.398  12.020 -0.2691 -0.0132  1.4313
   9923SM   C1113381   0.445   0.321  12.132 -0.2973  0.0654 -0.6536
   9923SM  H11A13382   0.335   0.314  12.123 -0.5873  1.8532  0.8618
   9923SM  H11B13383   0.452   0.393  12.217 -0.6134  0.6797 -1.1395
   9923SM     P13384   0.643   0.189  12.235  0.1077  0.3024 -0.0317
   9923SM   O1313385   0.717   0.066  12.207  0.6519  0.6522  0.1322
   9923SM   O1413386   0.708   0.319  12.226 -0.1387 -0.3519  0.3740
   9923SM   O1113387   0.597   0.167  12.380 -0.4394 -0.7536 -0.1204
   9923SM   O1213388   0.502   0.196  12.161  0.1525  0.6765 -0.1593
   9923SM   C1S13389   0.492   0.082  12.421 -0.3727 -0.9160  0.4722
   9923SM   H1S13390   0.479  -0.007  12.356 -0.5366  0.1995 -1.1179
   9923SM   H1T13391   0.401   0.147  12.422 -1.0014 -1.7822  0.4681
   9923SM    NF13392   0.405  -0.049  12.597  0.1604 -0.0186  0.3943
   9923SM   HNF13393   0.317  -0.002  12.608 -0.8188 -1.4436 -1.0251
   9923SM   C2S13394   0.515   0.042  12.565 -0.2823  0.2774 -0.1618
   9923SM   H2S13395   0.613  -0.009  12.557  1.8975  3.9400  0.8173
   9923SM   C3S13396   0.512   0.165  12.653 -0.2567 -0.5232  0.8781
   9923SM   H3S13397   0.406   0.193  12.671  0.4471  3.2320 -0.1340
   9923SM    O313398   0.592   0.277  12.619  0.5108 -0.0371 -0.0223
   9923SM   HO313399   0.598   0.280  12.523  2.3372 -1.5568  0.0084
   9923SM   C4S13400   0.568   0.111  12.793  0.7002  0.2080  0.2708
   9923SM   H4S13401   0.487   0.059  12.847  2.1320 -0.9776  1.3587
   9923SM   C5S13402   0.692   0.110  12.844 -0.3385  0.3870  0.8266
   9923SM   H5S13403   0.780   0.155  12.794 -0.2400 -1.1549 -0.4799
   9923SM   C6S13404   0.718   0.050  12.979 -0.1233 -0.1330 -0.3148
   9923SM   H6S13405   0.819   0.003  12.984  0.3155  0.8954  2.4690
   9923SM   H6T13406   0.652  -0.038  12.994  1.3166 -1.3970 -1.0125
   9923SM   C7S13407   0.706   0.140  13.100  0.0499 -0.9485 -0.5731
   9923SM   H7S13408   0.619   0.206  13.122 -0.6359 -2.0378  0.0245
   9923SM   H7T13409   0.795   0.205  13.085 -0.2606 -0.2620  0.4278
   9923SM   C8S13410   0.735   0.062  13.228  0.8738  0.1872  0.6162
   9923SM   H8S13411   0.841   0.030  13.238  1.3774  1.2133 -1.0632
   9923SM   H8T13412   0.667  -0.026  13.231  1.4187 -0.2420  0.4104
   9923SM   C9S13413   0.691   0.146  13.348 -0.1216 -0.0853  0.2037
   9923SM   H9S13414   0.581   0.154  13.346 -0.0823  1.1266  1.1382
   9923SM   H9T13415   0.732   0.248  13.334 -1.7751  0.7421  1.0878
   9923SM  C10S13416   0.722   0.079  13.490 -0.0083  0.1817 -0.0401
   9923SM  H10S13417   0.695   0.143  13.578  0.9546 -0.2343  0.5783
   9923SM  H10T13418   0.827   0.044  13.484 -0.4021 -1.2554  0.8274
   9923SM  C11S13419   0.635  -0.047  13.521  0.0046 -0.4932  0.1738
   9923SM  H11S13420   0.655  -0.122  13.441 -0.5419 -1.4126  0.8829
   9923SM  H11T13421   0.526  -0.028  13.508  0.1282  0.3362  0.3270
   9923SM  C12S13422   0.677  -0.115  13.654  0.7453 -0.0672 -0.0766
   9923SM  H12S13423   0.606  -0.180  13.710  1.7440 -1.4664 -0.3887
   9923SM  H12T13424   0.700  -0.028  13.720  0.4763 -0.4774  0.5753
   9923SM  C13S13425   0.796  -0.209  13.637  0.2206 -0.0305 -0.2300
   9923SM  H13S13426   0.826  -0.235  13.741 -1.1188  0.7178  0.3760
   9923SM  H13T13427   0.876  -0.141  13.599 -0.4832  1.3463  0.6577
   9923SM  C14S13428   0.787  -0.338  13.547 -0.1537 -0.1728 -0.9052
   9923SM  H14S13429   0.887  -0.385  13.542  1.1041  2.0111  1.4075
   9923SM  H14T13430   0.750  -0.320  13.444 -1.1512  2.5527 -0.1416
   9923SM  C15S13431   0.688  -0.440  13.610  0.3537  0.6377  0.2023
   9923SM  H15S13432   0.591  -0.388  13.624 -2.1130 -2.7782 -2.4294
   9923SM  H15T13433   0.715  -0.476  13.712  1.6594  0.7784 -0.0823
   9923SM  C16S13434   0.658  -0.553  13.508 -0.4752 -0.0202 -0.0262
   9923SM  H16S13435   0.620  -0.510  13.413  0.7204 -1.8468 -1.4062
   9923SM  H16T13436   0.570  -0.609  13.546 -0.0329  0.5807  2.0278
   9923SM  C17S13437   0.776  -0.648  13.469 -0.3576  0.4344  0.1620
   9923SM  H17S13438   0.823  -0.684  13.562  2.1351 -1.9162 -1.8605
   9923SM  H17T13439   0.846  -0.587  13.408 -1.9809  0.9740 -1.2800
   9923SM  C18S13440   0.728  -0.769  13.383 -0.3953 -0.8217  0.0932
   9923SM  H18S13441   0.793  -0.857  13.402 -0.8719 -1.0488  0.7167
   9923SM  H18T13442   0.731  -0.755  13.273  1.2852  0.2458  0.2426
   9923SM  H18U13443   0.632  -0.805  13.428  0.1118  0.4211  2.2813
   9923SM   C1F13444   0.394  -0.173  12.556  0.5461  0.0353 -0.1035
   9923SM    OF13445   0.484  -0.224  12.488 -0.2289 -0.6949  0.3378
   9923SM   C2F13446   0.262  -0.238  12.596 -0.3665 -0.0383 -0.3353
   9923SM   H2F13447   0.197  -0.237  12.505 -0.5400  2.1099 -0.2187
   9923SM   H2G13448   0.217  -0.177  12.677  2.0734 -2.4355  3.0778
   9923SM   C3F13449   0.287  -0.375  12.652 -0.4783  0.3084 -0.6133
   9923SM   H3F13450   0.324  -0.442  12.571 -0.4357  0.9728 -1.1564
   9923SM   H3G13451   0.188  -0.413  12.683 -0.3373  1.4681  1.4441
   9923SM   C4F13452   0.387  -0.386  12.774  0.5963  0.2354 -0.2654
   9923SM   H4F13453   0.486  -0.359  12.732 -0.1299  0.9106 -1.6123
   9923SM   H4G13454   0.383  -0.489  12.816  0.0067  0.6911  0.8369
   9923SM   C5F13455   0.347  -0.297  12.889  1.0650 -0.3738  0.2629
   9923SM   H5F13456   0.240  -0.308  12.917  0.2876 -1.1714 -2.6478
   9923SM   H5G13457   0.356  -0.188  12.866 -3.0277 -0.1467 -1.0301
   9923SM   C6F13458   0.429  -0.323  13.017 -0.4100  0.1499  0.4204
   9923SM   H6F13459   0.535  -0.297  12.996 -0.3923  0.2550  0.6361
   9923SM   H6G13460   0.427  -0.434  13.024 -0.3310  0.0928 -0.3555
   9923SM   C7F13461   0.369  -0.276  13.149  0.7107 -0.2516  0.8801
   9923SM   H7F13462   0.262  -0.302  13.160  0.3527  1.4208  1.7040
   9923SM   H7G13463   0.385  -0.166  13.151  2.6059 -0.4707  0.1116
   9923SM   C8F13464   0.444  -0.341  13.264  0.0294 -0.2609 -0.3453
   9923SM   H8F13465   0.533  -0.280  13.288 -0.4230  0.4138 -0.3583
   9923SM   H8G13466   0.476  -0.447  13.248  0.3577 -0.1082 -0.6975
   9923SM   C9F13467   0.365  -0.336  13.399 -0.0008  0.1811  0.0876
   9923SM   H9F13468   0.311  -0.239  13.397 -0.4505 -0.0640  0.3310
   9923SM   H9G13469   0.433  -0.333  13.487 -0.6278 -0.4825  0.6104
   9923SM  C10F13470   0.264  -0.438  13.432 -0.3817 -0.3917  0.7456
   9923SM  H10F13471   0.304  -0.540  13.443 -1.3977 -0.7891  0.8670
   9923SM  H10G13472   0.199  -0.431  13.342  3.4091  2.6856 -2.1250
   9923SM  C11F13473   0.183  -0.403  13.556  0.6460  0.1752  0.5278
   9923SM  H11F13474   0.091  -0.465  13.552  1.5905 -1.2017 -1.2068
   9923SM  H11G13475   0.156  -0.295  13.556  1.4146  0.3795  0.2376
   9923SM  C12F13476   0.267  -0.442  13.680  0.5288  0.7919 -0.5631
   9923SM  H12F13477   0.367  -0.393  13.673 -0.5137  2.9143 -1.5122
   9923SM  H12G13478   0.275  -0.552  13.697 -2.2421  0.4302 -1.0378
   9923SM  C13F13479   0.193  -0.398  13.807  0.6352  0.4533  0.0591
   9923SM  H13F13480   0.094  -0.446  13.815  0.9852 -0.1353  1.1096
   9923SM  H13G13481   0.167  -0.290  13.803 -1.7271 -0.0971 -1.0906
   9923SM  C14F13482   0.268  -0.424  13.945  0.2150 -0.5648  0.5253
   9923SM  H14F13483   0.291  -0.531  13.961  1.3117 -0.3145  0.6883
   9923SM  H14G13484   0.199  -0.393  14.026  1.5678  1.5229  0.9502
   9923SM  C15F13485   0.382  -0.324  13.966  0.5713 -0.0732 -0.0151
   9923SM  H15F13486   0.339  -0.246  14.032  0.5818 -0.4838  0.4821
   9923SM  H15G13487   0.408  -0.270  13.873  1.1316 -0.9529 -0.3904
   9923SM  C16F13488   0.501  -0.385  14.045  0.0036  0.2452  0.0199
   9923SM  H16F13489   0.464  -0.461  14.117 -1.3496  2.7244  2.0725
   9923SM  H16G13490   0.553  -0.309  14.107  1.5838 -0.5076 -0.3307
   9923SM  C17F13491   0.614  -0.443  13.956 -0.6619 -0.5207 -0.4076
   9923SM  H17F13492   0.661  -0.362  13.896 -0.1746  0.5156  1.3239
   9923SM  H17G13493   0.565  -0.522  13.895 -0.4961 -0.6919 -0.3186
   9923SM  C18F13494   0.724  -0.498  14.046 -0.2684 -0.2876 -0.0338
   9923SM  H18F13495   0.698  -0.590  14.103  0.0059 -1.5543 -1.8567
   9923SM  H18G13496   0.753  -0.420  14.119  0.3751 -2.3959  2.0597
   9923SM  C19F13497   0.848  -0.556  13.964  0.9899 -0.1745  0.2304
   9923SM  H19F13498   0.943  -0.569  14.019  1.2626 -1.2949 -0.4649
   9923SM  H19G13499   0.869  -0.485  13.880  0.6324 -0.0958  0.2051
   9923SM  C20F13500   0.808  -0.689  13.902  0.5167 -0.3291  0.7479
   9923SM  H20F13501   0.875  -0.708  13.816 -1.4730 -2.7566 -0.4126
   9923SM  H20G13502   0.704  -0.676  13.864  1.3835  0.1784 -1.6193
   9923SM  C21F13503   0.829  -0.793  14.009 -0.0789  0.4558 -0.3276
   9923SM  H21F13504   0.752  -0.786  14.089 -0.2148 -1.8072 -0.2041
   9923SM  H21G13505   0.923  -0.771  14.063 -0.3503  1.5904 -0.2829
   9923SM  C22F13506   0.826  -0.935  13.961  0.6129  0.6541  0.2202
   9923SM  H22F13507   0.894  -0.943  13.873  2.5152  1.9435  1.4844
   9923SM  H22G13508   0.722  -0.967  13.938  1.1442 -1.6465  0.7137
   9923SM  C23F13509   0.874  -1.040  14.065  0.0855 -0.5455 -0.7486
   9923SM  H23F13510   0.820  -1.030  14.162  1.7498  0.2834  0.1423
   9923SM  H23G13511   0.981  -1.019  14.088 -0.3624 -1.5022  2.7888
   9923SM  H23H13512   0.868  -1.143  14.023  0.0549 -1.3855  1.1931
  10023SM     N13513   7.175   0.253  11.871  0.8543  0.0080 -0.4894
  10023SM   C1513514   7.171   0.330  11.743 -0.1746  1.0568  0.2315
  10023SM  H15A13515   7.080   0.389  11.745 -1.1069 -0.2994  2.9949
  10023SM  H15B13516   7.162   0.264  11.658 -1.2032  2.4087 -0.7589
  10023SM  H15C13517   7.263   0.385  11.725  1.0076 -0.7505  0.5677
  10023SM   C1413518   7.042   0.174  11.889 -0.3112 -0.4620  0.4159
  10023SM  H14A13519   6.952   0.231  11.877  0.0729  0.1370  0.3224
  10023SM  H14B13520   7.030   0.150  11.994 -4.4920 -0.5738  0.0624
  10023SM  H14C13521   7.046   0.097  11.814  0.7228 -0.4643  0.4496
  10023SM   C1313522   7.283   0.149  11.867 -0.1142 -0.1372  0.1873
  10023SM  H13A13523   7.283   0.082  11.952 -0.6746 -0.7981 -0.3263
  10023SM  H13B13524   7.379   0.196  11.857 -0.3182  0.6801  1.7323
  10023SM  H13C13525   7.255   0.094  11.779 -1.0415  0.0165  0.3669
  10023SM   C1213526   7.195   0.345  11.997  0.9427  0.5370  0.6455
  10023SM  H12A13527   7.106   0.406  11.997 -0.7002 -1.6897  1.4279
  10023SM  H12B13528   7.278   0.412  11.979 -0.8867  2.6383 -0.4740
  10023SM   C1113529   7.217   0.281  12.137 -0.6728  0.3931 -0.2480
  10023SM  H11A13530   7.133   0.208  12.139  1.5699 -2.3312  0.4753
  10023SM  H11B13531   7.213   0.357  12.219  1.7234  1.9678 -1.4968
  10023SM     P13532   7.478   0.267  12.169 -0.0826 -0.0593 -0.3929
  10023SM   O1313533   7.583   0.161  12.187  0.4263  0.0504  0.3374
  10023SM   O1413534   7.501   0.361  12.056  0.0542  0.0359  0.3851
  10023SM   O1113535   7.464   0.353  12.298 -0.2392  0.4222 -0.2833
  10023SM   O1213536   7.330   0.208  12.141 -0.2476 -0.1789 -0.4557
  10023SM   C1S13537   7.484   0.313  12.428  0.4255  0.6392  0.1619
  10023SM   H1S13538   7.453   0.208  12.447 -2.3595  1.5251  1.0503
  10023SM   H1T13539   7.416   0.369  12.497  1.5925  0.4793  1.4976
  10023SM    NF13540   7.614   0.308  12.627  0.2822  0.7967 -0.1501
  10023SM   HNF13541   7.616   0.380  12.695 -0.0019  1.8356 -1.2053
  10023SM   C2S13542   7.621   0.347  12.480 -0.5190  0.2672 -0.4795
  10023SM   H2S13543   7.703   0.294  12.429  1.5070  2.7215  0.0328
  10023SM   C3S13544   7.652   0.504  12.456  0.4365 -0.2893  0.1704
  10023SM   H3S13545   7.583   0.571  12.511  0.3564 -1.0981  1.0875
  10023SM    O313546   7.660   0.544  12.316 -0.1930  0.2610  0.7191
  10023SM   HO313547   7.600   0.478  12.280 -1.2484 -0.3832  3.3767
  10023SM   C4S13548   7.783   0.550  12.530 -0.0997 -0.5596  0.1560
  10023SM   H4S13549   7.870   0.486  12.508  0.4605  0.1224  0.3518
  10023SM   C5S13550   7.792   0.656  12.613  0.3829  0.3272  0.2044
  10023SM   H5S13551   7.703   0.712  12.646  0.5099  0.6273  0.0439
  10023SM   C6S13552   7.915   0.694  12.688 -0.2875 -0.0204 -0.0843
  10023SM   H6S13553   7.926   0.803  12.670 -3.0202  0.5996  1.4606
  10023SM   H6T13554   8.003   0.637  12.651 -0.6873  0.8638 -2.6146
  10023SM   C7S13555   7.894   0.645  12.837  1.1242  0.1717  0.0370
  10023SM   H7S13556   7.817   0.565  12.844  0.9393  0.3896  0.5482
  10023SM   H7T13557   7.842   0.730  12.885 -1.8609 -1.0422 -0.8078
  10023SM   C8S13558   8.028   0.615  12.896 -0.0154 -0.8719 -0.7944
  10023SM   H8S13559   8.095   0.697  12.862 -1.4615  0.8416  0.3586
  10023SM   H8T13560   8.064   0.517  12.858  3.5628  0.1881 -0.5317
  10023SM   C9S13561   8.034   0.606  13.046  0.0108  0.3690 -0.8912
  10023SM   H9S13562   7.983   0.697  13.084  1.3035  1.9756 -2.8014
  10023SM   H9T13563   8.140   0.607  13.080  0.5046 -0.9222 -2.2691
  10023SM  C10S13564   7.962   0.477  13.086  0.0993 -0.2037 -0.3829
  10023SM  H10S13565   8.018   0.391  13.045  2.0546  0.8182  0.0533
  10023SM  H10T13566   7.859   0.473  13.044 -0.4863 -1.9213  1.0659
  10023SM  C11S13567   7.955   0.469  13.242 -0.1261 -0.3303 -0.1469
  10023SM  H11S13568   7.928   0.567  13.287 -0.0667 -0.1513 -0.4979
  10023SM  H11T13569   8.058   0.440  13.270 -1.1804 -2.3082  2.0507
  10023SM  C12S13570   7.855   0.353  13.278  0.8239  0.1337  0.5578
  10023SM  H12S13571   7.913   0.263  13.249  1.5812  0.2012  1.8078
  10023SM  H12T13572   7.757   0.372  13.228  1.4530  2.1904  0.0275
  10023SM  C13S13573   7.842   0.340  13.432 -0.5638 -0.1947  0.4382
  10023SM  H13S13574   7.791   0.428  13.478  2.7392  2.0776  0.1136
  10023SM  H13T13575   7.945   0.349  13.471 -0.9132 -1.7121  1.7964
  10023SM  C14S13576   7.784   0.207  13.478  0.3165 -0.1074 -0.8631
  10023SM  H14S13577   7.814   0.122  13.413  0.2796 -1.3118  0.6085
  10023SM  H14T13578   7.675   0.226  13.466  0.2064  2.2821  2.4317
  10023SM  C15S13579   7.807   0.191  13.630 -0.0361 -0.5371  0.3962
  10023SM  H15S13580   7.764   0.279  13.682 -1.2768 -1.2046  0.5480
  10023SM  H15T13581   7.916   0.200  13.645 -0.0979  1.0851  0.1063
  10023SM  C16S13582   7.749   0.054  13.682 -0.0741 -0.3970 -0.0208
  10023SM  H16S13583   7.800  -0.033  13.636  2.8386  0.2165  1.8298
  10023SM  H16T13584   7.644   0.049  13.644 -0.1229 -1.7490  0.2503
  10023SM  C17S13585   7.752   0.034  13.835  0.6689  0.0954  0.3310
  10023SM  H17S13586   7.856   0.005  13.862  0.4448 -0.6754  0.3955
  10023SM  H17T13587   7.687  -0.055  13.853 -0.5286  0.7176 -0.7500
  10023SM  C18S13588   7.695   0.147  13.922  0.2763 -0.4854 -0.0852
  10023SM  H18S13589   7.584   0.153  13.923  0.3655  2.3973  1.3650
  10023SM  H18T13590   7.736   0.247  13.897 -1.9694  0.7985  1.0891
  10023SM  H18U13591   7.712   0.124  14.029 -0.8703  0.7349  0.3846
  10023SM   C1F13592   7.602   0.188  12.673  0.6299  0.4738 -0.2156
  10023SM    OF13593   7.615   0.094  12.597 -0.0005  0.2071  0.2180
  10023SM   C2F13594   7.557   0.174  12.811  0.0738 -0.0863  0.0694
  10023SM   H2F13595   7.455   0.131  12.807  0.7157 -1.8550  1.4561
  10023SM   H2G13596   7.554   0.271  12.866  4.0131 -0.0502  0.5068
  10023SM   C3F13597   7.666   0.088  12.885  1.0126  0.1423  0.1846
  10023SM   H3F13598   7.767   0.124  12.856  0.0765  1.2380 -1.9157
  10023SM   H3G13599   7.659  -0.015  12.845 -2.6080  0.6606 -0.8845
  10023SM   C4F13600   7.665   0.080  13.039  0.4131 -0.1014 -0.4019
  10023SM   H4F13601   7.691   0.172  13.095 -0.2214 -1.1318  1.6645
  10023SM   H4G13602   7.749   0.012  13.065  0.9576  1.1416  1.2617
  10023SM   C5F13603   7.532   0.018  13.091 -0.6025 -0.5741  0.1073
  10023SM   H5F13604   7.513  -0.074  13.030  0.1736 -0.4926 -0.2616
  10023SM   H5G13605   7.443   0.078  13.063  0.6105  0.9482 -0.6279
  10023SM   C6F13606   7.537  -0.013  13.240 -0.0636  0.2433 -0.5667
  10023SM   H6F13607   7.537   0.084  13.296  0.4334 -0.4496  0.6900
  10023SM   H6G13608   7.617  -0.088  13.254 -0.1790  0.3201  0.6048
  10023SM   C7F13609   7.414  -0.084  13.298  0.1033 -0.7061  0.4942
  10023SM   H7F13610   7.404  -0.187  13.257 -0.6484 -1.2340  1.9229
  10023SM   H7G13611   7.328  -0.024  13.260 -0.4977 -0.5533  2.0255
  10023SM   C8F13612   7.410  -0.100  13.452 -0.9256  0.6816  0.6723
  10023SM   H8F13613   7.391   0.004  13.489  2.8624  2.6851 -2.3065
  10023SM   H8G13614   7.512  -0.129  13.486 -0.2721  0.5892 -1.2622
  10023SM   C9F13615   7.322  -0.215  13.506 -0.0938 -0.0472 -0.7430
  10023SM   H9F13616   7.346  -0.315  13.464  1.8772 -0.0428  0.2774
  10023SM   H9G13617   7.217  -0.197  13.474 -1.0231 -0.7148  1.6990
  10023SM  C10F13618   7.311  -0.205  13.657 -0.0437  0.4228 -0.8994
  10023SM  H10F13619   7.254  -0.110  13.672 -0.3548  0.4304 -2.0522
  10023SM  H10G13620   7.413  -0.189  13.699 -0.5253  0.7046  0.2038
  10023SM  C11F13621   7.233  -0.326  13.720 -0.1461  0.3223  0.6148
  10023SM  H11F13622   7.286  -0.421  13.694 -2.4086 -0.4114 -1.6783
  10023SM  H11G13623   7.130  -0.335  13.680  0.5160 -0.2652 -1.0734
  10023SM  C12F13624   7.236  -0.303  13.869 -0.2582 -0.8440 -0.2924
  10023SM  H12F13625   7.181  -0.210  13.895 -1.5601 -1.9512  1.0153
  10023SM  H12G13626   7.338  -0.278  13.906 -1.4298  1.4094  1.6998
  10023SM  C13F13627   7.162  -0.406  13.959 -0.0832  0.3655 -0.0787
  10023SM  H13F13628   7.204  -0.408  14.062  0.5482  1.0557 -0.3122
  10023SM  H13G13629   7.201  -0.498  13.910 -2.6185 -0.5224 -0.5834
  10023SM  C14F13630   7.017  -0.416  13.950  0.4787  0.8691  0.2949
  10023SM  H14F13631   6.981  -0.364  13.859 -0.9678  2.2244  1.5840
  10023SM  H14G13632   6.990  -0.339  14.026  0.3754  0.8292  0.2991
  10023SM  C15F13633   6.950  -0.555  13.968 -0.1486  0.4021 -0.0789
  10023SM  H15F13634   6.988  -0.605  14.060  0.7432  0.3536 -0.4627
  10023SM  H15G13635   6.973  -0.602  13.870 -1.4596 -0.7968  0.1654
  10023SM  C16F13636   6.799  -0.536  13.983 -0.9889 -0.3445  0.1385
  10023SM  H16F13637   6.758  -0.475  13.899 -2.8507 -2.2220 -0.4000
  10023SM  H16G13638   6.798  -0.483  14.081 -1.5133 -0.3163  0.1227
  10023SM  C17F13639   6.726  -0.667  14.001 -0.1219 -0.3395  0.3035
  10023SM  H17F13640   6.793  -0.730  14.064  0.3755 -0.0162  0.1047
  10023SM  H17G13641   6.712  -0.710  13.900 -0.7037  1.1040 -0.2517
  10023SM  C18F13642   6.592  -0.649  14.065 -0.4542  0.3843  0.3962
  10023SM  H18F13643   6.540  -0.570  14.007  1.5593  1.6214  0.1869
  10023SM  H18G13644   6.602  -0.620  14.172 -0.1297  0.1497  0.4315
  10023SM  C19F13645   6.497  -0.772  14.046  0.1001 -0.4856 -0.1460
  10023SM  H19F13646   6.524  -0.864  14.102 -0.4630 -2.1526 -2.4620
  10023SM  H19G13647   6.490  -0.804  13.940 -1.6683  0.1373 -0.2552
  10023SM  C20F13648   6.354  -0.738  14.096 -0.1184  0.2810  0.6162
  10023SM  H20F13649   6.318  -0.643  14.051  0.8370  0.2264 -0.3105
  10023SM  H20G13650   6.369  -0.729  14.205 -1.2452 -0.9517  0.9021
  10023SM  C21F13651   6.255  -0.858  14.071 -0.0790 -0.3092  0.1663
  10023SM  H21F13652   6.299  -0.952  14.112  0.5738  0.1240  0.4746
  10023SM  H21G13653   6.228  -0.873  13.965  0.2215 -0.6946  0.1429
  10023SM  C22F13654   6.118  -0.853  14.151 -0.1881 -0.0315  0.0457
  10023SM  H22F13655   6.058  -0.944  14.127 -0.1155 -0.6574  2.0169
  10023SM  H22G13656   6.056  -0.767  14.116 -2.2546 -0.4246  2.4040
  10023SM  C23F13657   6.113  -0.864  14.305 -0.6648 -0.7382  0.2240
  10023SM  H23F13658   6.164  -0.775  14.348 -0.0394 -1.8201  1.8125
  10023SM  H23G13659   6.163  -0.957  14.339 -0.3824 -0.1022  1.6169
  10023SM  H23H13660   6.004  -0.858  14.327 -0.2862  1.4521  1.7719
  101CHL1    C313661   3.084   3.997  15.563 -0.0453 -0.2278  0.1740
  101CHL1    H313662   2.978   3.964  15.559 -0.3099  0.4682  1.1413
  101CHL1    O313663   3.108   4.051  15.691  0.0283 -0.4166 -0.0131
  101CHL1   H3'13664   3.050   4.127  15.703 -0.7795 -1.1056  0.6300
  101CHL1    C413665   3.190   3.886  15.540  0.6679  0.4231 -0.9097
  101CHL1   H4A13666   3.295   3.918  15.556  0.9783 -0.6844 -0.6319
  101CHL1   H4B13667   3.170   3.802  15.611 -2.3339  1.1675 -0.7421
  101CHL1    C513668   3.164   3.842  15.397 -0.8115  0.6107 -0.1282
  101CHL1    C613669   3.141   3.712  15.366  0.2471  0.2590 -0.2014
  101CHL1    H613670   3.122   3.638  15.445  0.1341 -0.0304 -0.4956
  101CHL1    C713671   3.117   3.662  15.228  0.2001  0.2785 -0.3500
  101CHL1   H7A13672   3.189   3.578  15.218 -0.4222 -0.2153 -0.7584
  101CHL1   H7B13673   3.013   3.624  15.223 -0.1819  0.6604  2.5851
  101CHL1    C813674   3.148   3.760  15.113 -0.2225 -0.3009  0.0661
  101CHL1    H813675   3.256   3.735  15.104 -0.1546  0.2616 -0.8557
  101CHL1   C1413676   3.068   3.723  14.990  0.2384 -0.9218  0.1640
  101CHL1   H1413677   2.961   3.740  15.015  0.4759 -1.2525  1.5242
  101CHL1   C1513678   3.068   3.577  14.942  0.1502  0.4208  0.6802
  101CHL1  H15A13679   3.166   3.525  14.938  0.4366  1.0194 -1.0813
  101CHL1  H15B13680   2.989   3.523  14.999  0.3409  0.6748  1.1876
  101CHL1   C1613681   3.016   3.579  14.800 -0.0200 -0.6902  0.1625
  101CHL1  H16A13682   3.061   3.491  14.750 -0.2804 -1.0085  0.4866
  101CHL1  H16B13683   2.907   3.559  14.788 -0.5238  1.4420  0.7236
  101CHL1   C1713684   3.034   3.731  14.758  0.0825 -0.3439  0.7861
  101CHL1   H1713685   2.932   3.773  14.756 -0.1213 -0.7890 -1.6311
  101CHL1   C1313686   3.114   3.804  14.870  0.0643 -0.0998  0.3112
  101CHL1   C1813687   3.263   3.778  14.853 -0.1776  0.8642  0.0372
  101CHL1  H18A13688   3.285   3.669  14.853  1.5415  1.1727 -0.4757
  101CHL1  H18B13689   3.296   3.817  14.754 -0.4517  0.2613 -0.2947
  101CHL1  H18C13690   3.322   3.836  14.928 -0.7688 -0.8797  1.9544
  101CHL1   C1213691   3.080   3.951  14.905 -0.2718  0.1800 -0.4876
  101CHL1  H12A13692   3.103   4.010  14.814 -1.3019  2.5904  0.7452
  101CHL1  H12B13693   2.969   3.949  14.914 -0.2854  0.4651 -0.5905
  101CHL1   C1113694   3.136   4.012  15.034  0.1251  0.3535 -0.4716
  101CHL1  H11A13695   3.243   4.039  15.022  0.8088 -1.0324  1.8493
  101CHL1  H11B13696   3.077   4.101  15.063  0.3309 -0.5082  3.1233
  101CHL1    C913697   3.120   3.903  15.147 -0.0573  0.1276  1.3571
  101CHL1    H913698   3.010   3.895  15.165 -0.3069  0.3462  0.0356
  101CHL1   C1013699   3.178   3.946  15.288 -0.0980  0.5158  0.4283
  101CHL1   C1913700   3.330   3.986  15.262  0.4423  0.2532 -0.5501
  101CHL1  H19A13701   3.334   4.079  15.202 -1.9431 -0.3528 -1.7669
  101CHL1  H19B13702   3.381   4.002  15.359 -1.0352 -0.2315  0.3338
  101CHL1  H19C13703   3.388   3.908  15.207 -0.8619  0.0557 -1.6784
  101CHL1    C113704   3.092   4.071  15.325 -0.0055 -0.2684 -0.5618
  101CHL1   H1A13705   3.128   4.162  15.273 -1.7745  1.4241  1.0067
  101CHL1   H1B13706   2.985   4.058  15.298 -0.4712 -0.1854  1.1366
  101CHL1    C213707   3.106   4.109  15.465  0.0423 -0.3205  0.2964
  101CHL1   H2A13708   3.030   4.185  15.493  0.1399 -0.7259  1.7316
  101CHL1   H2B13709   3.207   4.152  15.480  1.1138 -2.2433 -1.0501
  101CHL1   C2013710   3.079   3.741  14.613  0.2660  0.6889  0.1670
  101CHL1   H2013711   3.187   3.718  14.613  0.1902  0.0205  2.8283
  101CHL1   C2113712   3.055   3.883  14.556  0.4267  0.4207  0.8808
  101CHL1  H21A13713   3.103   3.908  14.459  1.0143  0.0104  1.0552
  101CHL1  H21B13714   3.110   3.962  14.613  0.5054  1.2656 -0.3446
  101CHL1  H21C13715   2.948   3.907  14.541  0.5926 -0.0346 -1.2306
  101CHL1   C2213716   3.003   3.644  14.524  0.3548  0.0429 -0.4400
  101CHL1  H22A13717   3.030   3.538  14.543 -2.3833 -1.2043 -2.9325
  101CHL1  H22B13718   2.893   3.646  14.535  0.3157 -2.0303 -0.0025
  101CHL1   C2313719   3.040   3.659  14.374  0.7384 -0.3548 -0.1535
  101CHL1  H23A13720   3.028   3.764  14.341  3.8585 -0.2218 -1.2358
  101CHL1  H23B13721   3.145   3.624  14.363  0.3301 -2.0070  0.7949
  101CHL1   C2413722   2.952   3.565  14.282  0.7223 -0.3626 -0.1005
  101CHL1  H24A13723   2.965   3.457  14.306  1.6378 -0.4882 -1.0847
  101CHL1  H24B13724   2.846   3.598  14.282  0.6128 -0.5821 -1.9120
  101CHL1   C2513725   2.983   3.585  14.132  0.0565 -0.3282  0.2210
  101CHL1   H2513726   2.979   3.695  14.117  0.0600 -0.3823 -0.1839
  101CHL1   C2613727   3.124   3.540  14.087  0.0513  0.2169 -0.2175
  101CHL1  H26A13728   3.133   3.545  13.976 -2.1241  1.5768 -0.3879
  101CHL1  H26B13729   3.205   3.598  14.134 -0.5982 -0.9263  2.4993
  101CHL1  H26C13730   3.133   3.434  14.119  1.0094 -0.1243 -1.5047
  101CHL1   C2713731   2.877   3.528  14.042 -0.0221 -0.2276 -0.1555
  101CHL1  H27A13732   2.886   3.418  14.036 -2.6814 -0.4699 -0.8326
  101CHL1  H27B13733   2.777   3.545  14.087 -0.0672  2.0541 -0.9735
  101CHL1  H27C13734   2.876   3.578  13.942 -0.4899  2.4525  1.0900
  102CHL1    C313735   2.934   4.672  15.557 -0.6998  0.3577 -0.9114
  102CHL1    H313736   3.013   4.745  15.532 -0.6416  0.7854  0.4078
  102CHL1    O313737   2.920   4.691  15.700 -0.5388 -0.1728  0.2621
  102CHL1   H3'13738   2.964   4.611  15.729  2.2541  0.3747 -2.0195
  102CHL1    C413739   2.797   4.697  15.491  0.6622 -0.1630 -0.1356
  102CHL1   H4A13740   2.724   4.626  15.535  0.6695  0.2989  0.6501
  102CHL1   H4B13741   2.759   4.797  15.520 -1.1903 -0.8608 -0.0099
  102CHL1    C513742   2.794   4.676  15.338  0.0621 -0.0178 -0.1924
  102CHL1    C613743   2.772   4.774  15.253  0.5675  0.2317  0.0953
  102CHL1    H613744   2.743   4.867  15.303 -1.3925 -0.1506 -0.2736
  102CHL1    C713745   2.791   4.772  15.104 -0.2247 -0.0373 -0.2216
  102CHL1   H7A13746   2.713   4.827  15.049 -1.4424 -1.6729 -0.2040
  102CHL1   H7B13747   2.894   4.810  15.083  1.5521 -3.9047  0.6080
  102CHL1    C813748   2.795   4.623  15.055  0.1867  0.4496 -0.4755
  102CHL1    H813749   2.689   4.594  15.073 -0.1296  1.6744 -0.2157
  102CHL1   C1413750   2.840   4.615  14.906  0.3551  1.0344 -0.2515
  102CHL1   H1413751   2.944   4.654  14.906  0.1268  1.6484  0.1134
  102CHL1   C1513752   2.776   4.705  14.798 -0.7188 -0.3598 -0.6815
  102CHL1  H15A13753   2.668   4.714  14.824 -0.8540 -2.5879 -0.3020
  102CHL1  H15B13754   2.838   4.797  14.791  2.4921 -2.2474  0.7611
  102CHL1   C1613755   2.793   4.635  14.665 -0.1076 -0.4233 -0.1524
  102CHL1  H16A13756   2.695   4.600  14.628 -0.2874  1.4849 -1.5837
  102CHL1  H16B13757   2.835   4.705  14.590  3.6409 -3.1670 -0.9309
  102CHL1   C1713758   2.871   4.511  14.693  1.0946  0.2801  0.5717
  102CHL1   H1713759   2.976   4.546  14.701  1.5295 -0.7822 -0.2330
  102CHL1   C1313760   2.827   4.478  14.843 -0.4496  0.1415  0.0983
  102CHL1   C1813761   2.684   4.417  14.842  0.1421  0.4321  0.2254
  102CHL1  H18A13762   2.690   4.313  14.803 -0.4968  0.5563 -0.2156
  102CHL1  H18B13763   2.649   4.409  14.947 -1.1406  0.6003 -0.1720
  102CHL1  H18C13764   2.616   4.479  14.780 -0.0627 -0.6055 -0.6115
  102CHL1   C1213765   2.930   4.395  14.921 -1.0480  0.2395 -0.5243
  102CHL1  H12A13766   2.942   4.293  14.879 -1.8446  0.3619 -1.0676
  102CHL1  H12B13767   3.028   4.447  14.915 -0.5693 -0.2936  1.6631
  102CHL1   C1113768   2.895   4.381  15.077 -0.1937  0.0672 -0.0450
  102CHL1  H11A13769   2.796   4.332  15.087  0.0373 -0.3319  0.2802
  102CHL1  H11B13770   2.968   4.316  15.129  0.5859 -0.5477 -1.8140
  102CHL1    C913771   2.879   4.530  15.139  0.1957  0.2608  0.4127
  102CHL1    H913772   2.978   4.578  15.121  2.0092 -2.9886  1.0597
  102CHL1   C1013773   2.849   4.533  15.289 -0.2305 -0.1346  0.2323
  102CHL1   C1913774   2.743   4.424  15.316  0.1957  0.1221  0.3795
  102CHL1  H19A13775   2.688   4.440  15.411  1.0236  2.8642  0.4759
  102CHL1  H19B13776   2.664   4.429  15.237 -0.6848  0.8647  1.2848
  102CHL1  H19C13777   2.794   4.325  15.318 -0.0437 -0.0148 -0.0741
  102CHL1    C113778   2.983   4.509  15.369  0.0662  0.7637  0.5876
  102CHL1   H1A13779   3.035   4.414  15.342  2.1473  2.2552 -1.0376
  102CHL1   H1B13780   3.063   4.570  15.321  1.1319 -1.5498 -0.7680
  102CHL1    C213781   2.979   4.531  15.522 -0.8596  0.1428 -0.9923
  102CHL1   H2A13782   3.076   4.500  15.565 -1.3139  0.5448  0.3675
  102CHL1   H2B13783   2.902   4.461  15.562 -0.5004  0.2958 -0.0295
  102CHL1   C2013784   2.855   4.397  14.584  0.2740  0.4964 -0.5582
  102CHL1   H2013785   2.745   4.380  14.589  0.5349 -1.0291  0.5850
  102CHL1   C2113786   2.932   4.268  14.622  0.6944 -0.6285  0.2398
  102CHL1  H21A13787   2.942   4.205  14.531  1.6661  2.4855 -1.9725
  102CHL1  H21B13788   2.873   4.213  14.699 -0.2275 -0.1293 -0.0907
  102CHL1  H21C13789   3.032   4.299  14.659  0.3385  0.2269  0.5357
  102CHL1   C2213790   2.904   4.441  14.443 -0.3267  0.4572 -0.1103
  102CHL1  H22A13791   2.874   4.365  14.368  0.2009 -0.6037  0.7223
  102CHL1  H22B13792   2.842   4.531  14.423 -2.7148 -0.4699  2.3955
  102CHL1   C2313793   3.054   4.466  14.426 -0.7250 -0.2805 -0.3355
  102CHL1  H23A13794   3.083   4.550  14.491 -1.0804 -0.2256 -0.2437
  102CHL1  H23B13795   3.111   4.379  14.466 -2.5111  0.0258  3.3025
  102CHL1   C2413796   3.092   4.496  14.285  0.1420  0.7239 -0.5186
  102CHL1  H24A13797   3.059   4.407  14.229 -0.5522  0.6456 -0.0092
  102CHL1  H24B13798   3.030   4.580  14.245  0.6640  1.2347 -0.2742
  102CHL1   C2513799   3.239   4.525  14.258 -0.2151 -0.0783  0.0647
  102CHL1   H2513800   3.297   4.445  14.309 -0.1781 -1.0990 -1.5026
  102CHL1   C2613801   3.266   4.519  14.112  0.2670 -0.5017 -0.2827
  102CHL1  H26A13802   3.370   4.548  14.088  1.5541 -0.9172  3.9792
  102CHL1  H26B13803   3.256   4.412  14.085  1.1733 -0.3560 -1.2608
  102CHL1  H26C13804   3.183   4.573  14.060 -1.2089 -1.1436  1.2960
  102CHL1   C2713805   3.284   4.664  14.307 -0.3796 -0.5271 -0.7000
  102CHL1  H27A13806   3.386   4.698  14.279  0.0870 -0.8554  0.5371
  102CHL1  H27B13807   3.213   4.738  14.265 -2.5175 -0.6417  2.3863
  102CHL1  H27C13808   3.258   4.679  14.414  0.3385 -0.3562 -0.5417
  103CHL1    C313809   2.086   2.339  15.980  0.2118  0.1413  1.1405
  103CHL1    H313810   2.005   2.267  16.002 -0.5533  0.0645 -1.5419
  103CHL1    O313811   2.139   2.390  16.101  0.5280  0.1873 -0.1305
  103CHL1   H3'13812   2.139   2.320  16.166 -0.6332  0.1132 -0.1915
  103CHL1    C413813   2.207   2.274  15.909 -0.4034 -0.4240 -0.2171
  103CHL1   H4A13814   2.286   2.351  15.902 -1.0029  0.1610 -0.7020
  103CHL1   H4B13815   2.240   2.193  15.977  1.7375  0.6315  0.1045
  103CHL1    C513816   2.165   2.220  15.771 -0.5153 -0.0393 -0.7286
  103CHL1    C613817   2.171   2.089  15.742 -0.3255 -0.4655 -0.0123
  103CHL1    H613818   2.208   2.013  15.814 -0.6693 -1.1930 -0.5963
  103CHL1    C713819   2.133   2.029  15.610  0.2238  0.3709  0.6951
  103CHL1   H7A13820   2.206   1.951  15.578 -1.3810 -0.4773 -1.1241
  103CHL1   H7B13821   2.033   1.981  15.621  1.1059 -1.1877  2.3455
  103CHL1    C813822   2.118   2.136  15.498 -0.6659  0.0855 -0.0172
  103CHL1    H813823   2.219   2.174  15.474 -0.6490  0.3257  0.4198
  103CHL1   C1413824   2.059   2.079  15.373  0.1962  0.1087 -0.0644
  103CHL1   H1413825   1.958   2.045  15.406  0.0555  0.6528  0.0681
  103CHL1   C1513826   2.122   1.951  15.311  0.1900  0.3484 -0.5718
  103CHL1  H15A13827   2.230   1.978  15.314  0.1106  0.6418 -0.3257
  103CHL1  H15B13828   2.117   1.859  15.372 -0.3043  0.2551 -0.7474
  103CHL1   C1613829   2.069   1.940  15.171  0.9248 -0.0861 -0.3830
  103CHL1  H16A13830   2.156   1.926  15.103  0.8123  0.4217 -0.6319
  103CHL1  H16B13831   1.998   1.855  15.168  0.8011  0.0273 -0.7877
  103CHL1   C1713832   1.996   2.075  15.140  0.3583 -1.0319  0.0156
  103CHL1   H1713833   1.887   2.063  15.155  0.3582 -0.4413  0.5602
  103CHL1   C1313834   2.044   2.167  15.258  0.6323 -0.0796 -0.0199
  103CHL1   C1813835   2.185   2.213  15.203  0.6793  0.7268  0.3256
  103CHL1  H18A13836   2.245   2.124  15.174  0.1452  0.7978 -1.0908
  103CHL1  H18B13837   2.175   2.289  15.122  0.0089 -0.0939 -0.3917
  103CHL1  H18C13838   2.241   2.259  15.287  0.9540 -0.0477  0.5792
  103CHL1   C1213839   1.958   2.287  15.302  0.0909 -0.4566 -0.7042
  103CHL1  H12A13840   1.955   2.371  15.229 -0.3362 -0.6896 -0.9588
  103CHL1  H12B13841   1.855   2.248  15.316  0.4596 -0.9328  0.9418
  103CHL1   C1113842   2.008   2.347  15.434 -0.2844 -0.0036  0.5017
  103CHL1  H11A13843   2.104   2.392  15.399 -0.2384  1.0382  1.8771
  103CHL1  H11B13844   1.957   2.441  15.463  1.0145  1.0292 -0.4213
  103CHL1    C913845   2.039   2.255  15.555 -0.3477  0.5583  0.3008
  103CHL1    H913846   1.938   2.215  15.579 -0.9706  0.2918 -2.4569
  103CHL1   C1013847   2.100   2.320  15.675  0.4512 -0.0547 -0.4813
  103CHL1   C1913848   2.216   2.409  15.627 -0.2303  0.0688 -0.0013
  103CHL1  H19A13849   2.181   2.500  15.575 -0.2545  1.0549  1.6973
  103CHL1  H19B13850   2.268   2.453  15.715 -2.3613  0.7709  0.9497
  103CHL1  H19C13851   2.298   2.360  15.568  0.3281  0.3220  0.5550
  103CHL1    C113852   1.982   2.401  15.748 -0.1197 -0.1947  0.1648
  103CHL1   H1A13853   1.944   2.486  15.688  0.8171  0.7349  0.8745
  103CHL1   H1B13854   1.898   2.331  15.769 -0.6213 -0.0192 -1.1583
  103CHL1    C213855   2.030   2.451  15.887  0.4937  0.4224  0.2246
  103CHL1   H2A13856   1.951   2.503  15.947  2.1371  1.2074  1.8096
  103CHL1   H2B13857   2.110   2.526  15.865  0.3879  0.0734 -1.4921
  103CHL1   C2013858   2.007   2.118  14.990  0.1623  0.0261 -0.1674
  103CHL1   H2013859   2.108   2.154  14.962  0.3497  0.3504  0.8751
  103CHL1   C2113860   1.927   2.251  14.979 -0.0880  0.3850 -0.2730
  103CHL1  H21A13861   1.912   2.281  14.873  1.4714  3.1183  0.1799
  103CHL1  H21B13862   1.987   2.335  15.020 -0.4663 -0.1425  1.4699
  103CHL1  H21C13863   1.825   2.231  15.019  0.0013 -0.1913 -0.3283
  103CHL1   C2213864   1.976   2.011  14.886  0.0578  0.4184  0.2361
  103CHL1  H22A13865   1.974   2.068  14.790  0.5543 -0.4480 -0.3004
  103CHL1  H22B13866   2.055   1.934  14.872 -2.2460 -2.0049 -0.2559
  103CHL1   C2313867   1.856   1.915  14.914  0.2039 -0.1620 -0.0053
  103CHL1  H23A13868   1.890   1.835  14.983 -2.2534 -0.8152  0.5200
  103CHL1  H23B13869   1.768   1.966  14.956  0.3056  1.2694 -1.4327
  103CHL1   C2413870   1.812   1.842  14.788  0.4414 -0.1121 -0.4261
  103CHL1  H24A13871   1.780   1.926  14.722 -0.6291  0.2871  0.5524
  103CHL1  H24B13872   1.890   1.788  14.732 -1.6069 -1.4630 -2.1477
  103CHL1   C2513873   1.692   1.741  14.805  0.0496  0.2141  0.2273
  103CHL1   H2513874   1.600   1.793  14.839  0.6957  1.1230  0.6264
  103CHL1   C2613875   1.654   1.672  14.672 -0.1962 -0.2954  0.6644
  103CHL1  H26A13876   1.580   1.593  14.699  0.6267 -2.0185 -1.6929
  103CHL1  H26B13877   1.617   1.736  14.589 -0.5858  0.3107  1.2966
  103CHL1  H26C13878   1.744   1.612  14.647 -0.6016 -0.5702 -0.1694
  103CHL1   C2713879   1.717   1.633  14.914 -0.7867  0.2245  0.3832
  103CHL1  H27A13880   1.631   1.564  14.907 -0.4467 -0.0666 -3.7820
  103CHL1  H27B13881   1.812   1.580  14.890 -0.3552  2.3508 -3.6347
  103CHL1  H27C13882   1.728   1.670  15.018  0.2641  0.9776  0.0291
  104CHL1    C313883   5.617   4.126  15.714  0.0496  0.8798  0.2225
  104CHL1    H313884   5.632   4.022  15.677  0.3838  0.8370  0.4713
  104CHL1    O313885   5.584   4.118  15.848  0.2472 -0.0649 -0.1756
  104CHL1   H3'13886   5.591   4.205  15.886 -2.1860 -0.4053  1.2863
  104CHL1    C413887   5.739   4.199  15.687 -0.4246 -0.1202 -0.0217
  104CHL1   H4A13888   5.739   4.298  15.739 -2.1201  0.1588 -0.4904
  104CHL1   H4B13889   5.820   4.142  15.737 -0.8087  1.3945  2.4846
  104CHL1    C513890   5.763   4.212  15.538  0.3452  0.7686 -0.2738
  104CHL1    C613891   5.881   4.186  15.485  0.5600 -0.1279  0.7160
  104CHL1    H613892   5.956   4.158  15.561  2.8037  3.7528  0.2316
  104CHL1    C713893   5.919   4.198  15.339 -0.2641 -0.2707 -0.2317
  104CHL1   H7A13894   6.014   4.254  15.327 -1.2118  1.0454 -2.1018
  104CHL1   H7B13895   5.931   4.094  15.302 -1.6105 -0.6879  0.4327
  104CHL1    C813896   5.810   4.271  15.261  0.4972  0.0139  0.1898
  104CHL1    H813897   5.830   4.378  15.285 -0.0884  0.4433 -1.1445
  104CHL1   C1413898   5.828   4.255  15.116 -0.7993 -0.4111 -0.1098
  104CHL1   H1413899   5.818   4.147  15.096  0.5635 -0.6960  0.5796
  104CHL1   C1513900   5.966   4.300  15.063  0.2284 -0.2230  0.4321
  104CHL1  H15A13901   5.989   4.404  15.095  1.7897 -0.4030 -0.0119
  104CHL1  H15B13902   6.054   4.239  15.094  0.7649  0.0208 -0.5428
  104CHL1   C1613903   5.939   4.295  14.913 -0.0381  0.0522  0.0606
  104CHL1  H16A13904   5.983   4.386  14.868  0.6227 -1.7392 -3.1630
  104CHL1  H16B13905   5.988   4.213  14.857 -1.6816  0.0133 -1.4335
  104CHL1   C1713906   5.783   4.284  14.893 -0.1759  0.2086 -0.1196
  104CHL1   H1713907   5.755   4.179  14.870  0.2247  0.6563 -3.0175
  104CHL1   C1313908   5.721   4.316  15.033  0.1886 -1.0100  0.1556
  104CHL1   C1813909   5.708   4.471  15.052  0.4156  0.4812 -0.0144
  104CHL1  H18A13910   5.794   4.522  15.004  0.4739  3.3983  2.8534
  104CHL1  H18B13911   5.624   4.512  14.991 -0.8366 -1.9829 -0.0733
  104CHL1  H18C13912   5.697   4.495  15.160 -0.0274  1.3354 -0.2383
  104CHL1   C1213913   5.589   4.241  15.057 -0.2440  0.4851  0.5740
  104CHL1  H12A13914   5.505   4.266  14.988 -0.7019 -1.6640  0.3010
  104CHL1  H12B13915   5.608   4.134  15.035  2.8657  0.3898  3.0615
  104CHL1   C1113916   5.548   4.259  15.202 -0.4060 -0.0565  0.5265
  104CHL1  H11A13917   5.517   4.365  15.217 -0.1896  0.6876 -3.1807
  104CHL1  H11B13918   5.459   4.196  15.224 -1.5965  0.9935 -1.0968
  104CHL1    C913919   5.663   4.227  15.303 -1.1045  0.4325 -0.0804
  104CHL1    H913920   5.664   4.117  15.289 -3.0710  0.3173  0.4739
  104CHL1   C1013921   5.637   4.253  15.454  0.3747  0.9627  0.3281
  104CHL1   C1913922   5.613   4.405  15.469  0.2445 -0.0558 -0.4078
  104CHL1  H19A13923   5.700   4.462  15.429 -1.1524  3.2738  0.9450
  104CHL1  H19B13924   5.514   4.425  15.423 -0.4573  0.0286  1.0855
  104CHL1  H19C13925   5.603   4.431  15.577 -0.3067 -2.1457  0.0971
  104CHL1    C113926   5.515   4.169  15.493 -0.2793 -0.5467  0.2639
  104CHL1   H1A13927   5.427   4.199  15.432 -0.0667  0.3457  0.3800
  104CHL1   H1B13928   5.545   4.064  15.472  2.9024  0.0677  1.2621
  104CHL1    C213929   5.486   4.176  15.644 -0.0197 -0.2010  1.0907
  104CHL1   H2A13930   5.393   4.122  15.671 -0.4822 -0.4880 -0.9712
  104CHL1   H2B13931   5.476   4.281  15.679 -1.1461  0.6015 -1.4337
  104CHL1   C2013932   5.736   4.368  14.769 -0.5201 -0.0206  0.0151
  104CHL1   H2013933   5.752   4.478  14.776 -0.6445  0.1157 -1.4436
  104CHL1   C2113934   5.581   4.348  14.742  0.4312  0.5284 -0.2404
  104CHL1  H21A13935   5.524   4.400  14.822  0.3317  0.7000 -0.4223
  104CHL1  H21B13936   5.560   4.242  14.767 -2.9726  1.1313 -0.1519
  104CHL1  H21C13937   5.558   4.391  14.643  0.5433 -2.9689 -1.9127
  104CHL1   C2213938   5.809   4.314  14.642 -0.4027 -0.1686 -0.5362
  104CHL1  H22A13939   5.895   4.251  14.674  1.1009  1.7680 -0.6268
  104CHL1  H22B13940   5.733   4.245  14.599 -0.8910 -1.1993  1.7951
  104CHL1   C2313941   5.855   4.424  14.536 -0.2113 -0.2175 -0.1512
  104CHL1  H23A13942   5.770   4.479  14.491  1.3741  1.5744 -1.0637
  104CHL1  H23B13943   5.922   4.496  14.588  2.3750 -1.7436 -1.1946
  104CHL1   C2413944   5.945   4.356  14.424  0.4714  0.4711 -0.5132
  104CHL1  H24A13945   6.013   4.285  14.476  0.1874 -0.0628 -0.8487
  104CHL1  H24B13946   5.873   4.285  14.377 -2.3074 -0.1682  4.1007
  104CHL1   C2513947   6.024   4.441  14.329  0.3990 -0.3802 -0.1001
  104CHL1   H2513948   6.081   4.513  14.392  2.0578 -0.3169 -1.6023
  104CHL1   C2613949   6.129   4.356  14.255  0.0600  0.0429 -0.0338
  104CHL1  H26A13950   6.201   4.304  14.321  0.2469 -0.8258 -0.8834
  104CHL1  H26B13951   6.085   4.270  14.199 -0.8059  0.5643 -0.1748
  104CHL1  H26C13952   6.181   4.419  14.179 -1.3298  0.2609 -0.8501
  104CHL1   C2713953   5.924   4.508  14.235 -0.3171  0.1511 -0.6498
  104CHL1  H27A13954   5.853   4.572  14.291 -0.6695 -0.3026 -0.5731
  104CHL1  H27B13955   5.978   4.558  14.152 -1.5144  2.1687 -0.2688
  104CHL1  H27C13956   5.865   4.429  14.184 -1.4562 -0.5883  1.6705
  105CHL1    C313957   6.182   3.258  15.925 -0.6819  0.0826 -0.3685
  105CHL1    H313958   6.267   3.217  15.867 -1.2367 -0.9089 -0.5046
  105CHL1    O313959   6.214   3.266  16.065 -0.3947  0.0013  0.2924
  105CHL1   H3'13960   6.129   3.284  16.106  0.2067 -1.8528  2.5821
  105CHL1    C413961   6.154   3.398  15.878  0.0198 -0.7270  0.4904
  105CHL1   H4A13962   6.081   3.448  15.946 -1.8467  0.1499 -1.9921
  105CHL1   H4B13963   6.248   3.457  15.882 -0.4692  0.1842 -0.7198
  105CHL1    C513964   6.097   3.404  15.732  0.1644 -0.6416 -0.7210
  105CHL1    C613965   6.157   3.484  15.644 -0.1609  0.1328 -0.1801
  105CHL1    H613966   6.243   3.547  15.672  0.1635 -0.9068  1.3008
  105CHL1    C713967   6.122   3.484  15.500  0.4139 -0.6907  0.0439
  105CHL1   H7A13968   6.111   3.586  15.458 -0.3034  0.0623  1.9893
  105CHL1   H7B13969   6.213   3.445  15.450  0.6531 -0.1465  0.0526
  105CHL1    C813970   5.996   3.400  15.465  0.5005  0.8415 -0.4830
  105CHL1    H813971   5.914   3.473  15.479 -0.2631  0.4812 -2.7097
  105CHL1   C1413972   6.002   3.354  15.318  0.1707 -0.6916  0.0432
  105CHL1   H1413973   6.079   3.274  15.312 -0.2255 -1.0534 -0.3395
  105CHL1   C1513974   6.042   3.463  15.207  0.3871  0.3726 -0.5619
  105CHL1  H15A13975   5.976   3.551  15.226  0.0496 -0.2328  1.3299
  105CHL1  H15B13976   6.148   3.490  15.222  0.6572 -1.1236  0.4724
  105CHL1   C1613977   5.994   3.411  15.074 -0.3321 -1.2849 -0.0265
  105CHL1  H16A13978   5.926   3.489  15.035  0.1132 -0.2928  1.1144
  105CHL1  H16B13979   6.081   3.382  15.012  1.1631 -0.5244  1.6596
  105CHL1   C1713980   5.915   3.281  15.117 -0.5213  0.3607  0.0875
  105CHL1   H1713981   6.002   3.211  15.116  0.1023  1.1292 -0.9223
  105CHL1   C1313982   5.870   3.291  15.264 -0.5033 -0.0930  0.5553
  105CHL1   C1813983   5.751   3.388  15.273 -0.4152  0.4216 -0.2321
  105CHL1  H18A13984   5.666   3.317  15.266 -1.0885  1.3258 -1.7858
  105CHL1  H18B13985   5.754   3.446  15.368  2.2762  0.8878 -0.5299
  105CHL1  H18C13986   5.746   3.460  15.189 -0.9362  0.6203 -0.0396
  105CHL1   C1213987   5.851   3.164  15.349  0.3696  0.0727  0.7050
  105CHL1  H12A13988   5.752   3.122  15.321  0.3665  0.7305 -0.3001
  105CHL1  H12B13989   5.924   3.086  15.318  0.5684  0.9179 -1.0608
  105CHL1   C1113990   5.850   3.194  15.499  0.1521 -0.0630 -0.5553
  105CHL1  H11A13991   5.761   3.255  15.525 -0.4372 -2.0026  2.5425
  105CHL1  H11B13992   5.839   3.098  15.555 -2.7849  0.3750 -0.2317
  105CHL1    C913993   5.977   3.275  15.550  0.0531  0.1511  1.2597
  105CHL1    H913994   6.056   3.206  15.515 -2.1575 -1.5239 -0.6905
  105CHL1   C1013995   5.989   3.292  15.698 -0.0154  0.0379  0.2777
  105CHL1   C1913996   5.852   3.342  15.750  0.1703 -0.6261 -0.0304
  105CHL1  H19A13997   5.833   3.429  15.684  2.2577 -0.9066 -1.0863
  105CHL1  H19B13998   5.784   3.255  15.741 -0.2706 -0.3045  0.1270
  105CHL1  H19C13999   5.845   3.366  15.858 -0.4094  0.1713 -0.2327
  105CHL1    C114000   6.028   3.151  15.757 -0.1068 -0.1545  0.4960
  105CHL1   H1A14001   5.940   3.083  15.760  1.3617 -2.6766 -3.8387
  105CHL1   H1B14002   6.105   3.111  15.687 -0.0321 -0.8722  0.9859
  105CHL1    C214003   6.067   3.164  15.908 -0.3643 -0.1042  0.5184
  105CHL1   H2A14004   6.103   3.063  15.937  0.5404  0.0535 -0.0161
  105CHL1   H2B14005   5.975   3.194  15.964 -1.7313 -0.0620 -1.6142
  105CHL1   C2014006   5.805   3.224  15.022  0.1988 -0.7042  0.0793
  105CHL1   H2014007   5.711   3.207  15.079 -0.4557 -1.7909 -1.2541
  105CHL1   C2114008   5.842   3.090  14.961 -0.1017 -0.3254 -0.6090
  105CHL1  H21A14009   5.931   3.083  14.895 -1.4002 -2.6833 -2.2631
  105CHL1  H21B14010   5.754   3.036  14.921  0.9717 -2.2819 -0.4771
  105CHL1  H21C14011   5.882   3.023  15.041  1.3579 -0.2232 -1.2172
  105CHL1   C2214012   5.761   3.319  14.910  0.6762  0.1271 -0.4156
  105CHL1  H22A14013   5.762   3.423  14.949  1.8939 -0.1772  0.4292
  105CHL1  H22B14014   5.845   3.323  14.837  0.6714  0.4965 -0.3997
  105CHL1   C2314015   5.629   3.272  14.846 -0.0832  0.5058 -0.5958
  105CHL1  H23A14016   5.633   3.170  14.802 -2.9333 -0.5629  1.3010
  105CHL1  H23B14017   5.556   3.268  14.930  0.0188 -1.3071 -0.5649
  105CHL1   C2414018   5.575   3.378  14.749 -0.1204 -0.7975 -0.0452
  105CHL1  H24A14019   5.588   3.472  14.807 -2.2305 -0.4356 -0.0810
  105CHL1  H24B14020   5.623   3.391  14.650 -0.1517 -0.1421  0.0263
  105CHL1   C2514021   5.425   3.362  14.719  0.1825  0.0307  0.3973
  105CHL1   H2514022   5.373   3.319  14.808 -0.0549 -2.4885 -0.8900
  105CHL1   C2614023   5.375   3.501  14.696 -0.0096 -0.0389 -0.4103
  105CHL1  H26A14024   5.269   3.496  14.664 -0.7304  1.8176  1.4771
  105CHL1  H26B14025   5.381   3.576  14.777  0.4420  1.4036 -1.7142
  105CHL1  H26C14026   5.424   3.557  14.614 -0.5953  1.0730 -0.0168
  105CHL1   C2714027   5.400   3.263  14.605 -0.3408 -0.0345  0.0422
  105CHL1  H27A14028   5.415   3.305  14.504 -2.5206  2.7565  0.7593
  105CHL1  H27B14029   5.473   3.181  14.624  0.7219  1.0331  0.7822
  105CHL1  H27C14030   5.295   3.228  14.608 -1.4008  2.7681 -1.0795
  106CHL1    C314031   1.019   2.371  15.872  0.5328  0.4806  0.3997
  106CHL1    H314032   0.985   2.279  15.821  0.3168  1.7229 -1.8074
  106CHL1    O314033   1.035   2.352  16.010  0.6913 -0.3680 -0.5974
  106CHL1   H3'14034   1.080   2.429  16.046  2.9530 -1.9236  0.0840
  106CHL1    C414035   1.153   2.409  15.813 -0.3568  0.0489 -0.3577
  106CHL1   H4A14036   1.209   2.493  15.861 -1.1466  0.4618 -0.1479
  106CHL1   H4B14037   1.223   2.326  15.836  0.5546  1.0410  0.6013
  106CHL1    C514038   1.139   2.448  15.663 -0.6286  0.2351 -0.2437
  106CHL1    C614039   1.214   2.373  15.582 -0.3324 -0.7522  0.3220
  106CHL1    H614040   1.283   2.294  15.615  2.7041  0.0979 -3.2024
  106CHL1    C714041   1.216   2.393  15.431 -0.0869 -0.5640  0.2623
  106CHL1   H7A14042   1.320   2.409  15.394 -0.5534  2.2566 -0.0081
  106CHL1   H7B14043   1.177   2.302  15.379 -0.6690 -0.0672 -0.1900
  106CHL1    C814044   1.147   2.524  15.386 -0.2659  0.2136  0.1621
  106CHL1    H814045   1.226   2.598  15.414  0.9789 -0.9441 -0.1814
  106CHL1   C1414046   1.112   2.519  15.237  0.4787 -0.1339  0.1131
  106CHL1   H1414047   1.033   2.441  15.236  0.5455 -0.1930 -0.3256
  106CHL1   C1514048   1.216   2.487  15.128  0.8873 -0.4376  0.3564
  106CHL1  H15A14049   1.312   2.531  15.161 -0.1499  1.6224  0.7202
  106CHL1  H15B14050   1.216   2.375  15.128 -1.1600 -0.4865 -0.7459
  106CHL1   C1614051   1.164   2.539  14.996  0.2654  0.2199  0.3274
  106CHL1  H16A14052   1.241   2.606  14.951  1.0740 -0.4816  0.6277
  106CHL1  H16B14053   1.142   2.457  14.924 -0.7676  1.1364 -0.4199
  106CHL1   C1714054   1.036   2.622  15.032  0.6217 -0.0247  0.3037
  106CHL1   H1714055   0.951   2.553  15.013  0.5195  0.6949 -2.1621
  106CHL1   C1314056   1.049   2.651  15.187  0.7416 -0.3899  0.2347
  106CHL1   C1814057   1.154   2.767  15.214  0.0157 -0.1412  0.4529
  106CHL1  H18A14058   1.256   2.753  15.174  0.3035  1.3602  0.5808
  106CHL1  H18B14059   1.119   2.854  15.154 -0.8622 -0.4595  0.4861
  106CHL1  H18C14060   1.147   2.809  15.317 -0.3711  0.0877  0.3378
  106CHL1   C1214061   0.918   2.674  15.265  1.0085  1.0730  0.0760
  106CHL1  H12A14062   0.861   2.764  15.233  1.3129  0.7740 -1.4040
  106CHL1  H12B14063   0.852   2.589  15.238 -0.1591  1.2666  2.1458
  106CHL1   C1114064   0.936   2.669  15.414 -0.2397  0.0492  0.0563
  106CHL1  H11A14065   0.981   2.768  15.437 -0.2875  0.3504 -1.0871
  106CHL1  H11B14066   0.843   2.660  15.473 -0.0048 -2.2379  0.1612
  106CHL1    C914067   1.019   2.553  15.468  0.2102  0.2221 -0.3353
  106CHL1    H914068   0.959   2.461  15.448  0.6702 -0.6394  1.8980
  106CHL1   C1014069   1.044   2.554  15.621  0.0186  0.5697  0.7237
  106CHL1   C1914070   1.100   2.687  15.654 -0.3670 -0.8912 -0.2914
  106CHL1  H19A14071   1.139   2.702  15.757  1.0013 -0.9800 -0.7866
  106CHL1  H19B14072   1.180   2.718  15.584  0.5947 -2.1582  0.2006
  106CHL1  H19C14073   1.015   2.758  15.644  1.2282  1.2695  0.5793
  106CHL1    C114074   0.911   2.521  15.696 -0.2077  0.2514  0.1038
  106CHL1   H1A14075   0.844   2.609  15.681  0.9570  1.1791  0.1846
  106CHL1   H1B14076   0.865   2.429  15.654 -0.6872 -0.1342  1.4204
  106CHL1    C214077   0.930   2.496  15.851 -0.1420 -0.1150  0.4913
  106CHL1   H2A14078   0.831   2.471  15.894 -0.4715 -0.8991 -0.6770
  106CHL1   H2B14079   0.958   2.591  15.902 -1.6218 -0.0361  1.2302
  106CHL1   C2014080   1.008   2.741  14.941 -0.1172 -0.0311  0.4895
  106CHL1   H2014081   1.083   2.824  14.939 -0.5271  0.3411  0.5112
  106CHL1   C2114082   0.875   2.800  14.984  0.3627  0.1737  0.7451
  106CHL1  H21A14083   0.897   2.863  15.072 -1.8099 -1.1024  2.3012
  106CHL1  H21B14084   0.801   2.727  15.022  0.2155  0.5592  1.1997
  106CHL1  H21C14085   0.828   2.865  14.908  1.3421  0.2741  0.2106
  106CHL1   C2214086   1.006   2.692  14.794  0.1644 -1.1448 -0.2813
  106CHL1  H22A14087   0.968   2.588  14.782  1.0228 -1.6367  1.0680
  106CHL1  H22B14088   0.920   2.749  14.753 -1.0822 -0.9667  2.3631
  106CHL1   C2314089   1.138   2.726  14.721 -0.2726 -0.1169 -0.3130
  106CHL1  H23A14090   1.224   2.732  14.791  0.9340  2.2590 -1.8767
  106CHL1  H23B14091   1.165   2.639  14.656 -0.6203 -1.9874  1.9035
  106CHL1   C2414092   1.141   2.856  14.639  0.3214 -0.9393  0.1930
  106CHL1  H24A14093   1.122   2.940  14.709  0.5655 -1.1179  0.4774
  106CHL1  H24B14094   1.243   2.870  14.596  0.6925 -0.6922  1.1197
  106CHL1   C2514095   1.035   2.848  14.529 -0.3740 -0.3467  0.1036
  106CHL1   H2514096   0.997   2.744  14.524  1.8319 -1.1631 -0.6957
  106CHL1   C2614097   0.917   2.940  14.556  0.3226 -0.5178  0.2548
  106CHL1  H26A14098   0.848   2.902  14.634 -3.0512  3.2459 -0.5802
  106CHL1  H26B14099   0.950   3.040  14.590 -0.3601  0.1770 -1.0792
  106CHL1  H26C14100   0.857   2.965  14.467  2.2458  0.0573 -0.9447
  106CHL1   C2714101   1.096   2.875  14.398  0.0144 -0.3606  0.2915
  106CHL1  H27A14102   1.026   2.864  14.312 -2.3791 -1.1852  2.2015
  106CHL1  H27B14103   1.133   2.979  14.406 -0.3843 -0.3124  1.7441
  106CHL1  H27C14104   1.180   2.803  14.387  1.2748  0.6686  2.4644
  107CHL1    C314105   3.958   6.363  15.655  0.0934 -1.3631 -0.4438
  107CHL1    H314106   4.057   6.386  15.698 -0.2727  1.4315 -0.8883
  107CHL1    O314107   3.868   6.317  15.760  0.7929 -0.1668 -0.2033
  107CHL1   H3'14108   3.918   6.254  15.813 -1.1622 -0.4500  1.4384
  107CHL1    C414109   3.894   6.493  15.593  0.1653  0.6073 -0.3096
  107CHL1   H4A14110   3.783   6.488  15.590  0.1914 -0.3920 -0.0140
  107CHL1   H4B14111   3.904   6.573  15.670 -1.4904  0.2424  0.3305
  107CHL1    C514112   3.961   6.536  15.463 -0.0313 -0.0116  0.1638
  107CHL1    C614113   4.010   6.660  15.443  0.1529 -0.1078 -0.1243
  107CHL1    H614114   4.008   6.743  15.514  2.0467  0.0692 -0.2275
  107CHL1    C714115   4.085   6.689  15.307  0.0792 -0.1359  0.2249
  107CHL1   H7A14116   4.075   6.796  15.278 -1.2221  0.8228  3.6857
  107CHL1   H7B14117   4.196   6.687  15.314  0.4357  3.4469 -1.7010
  107CHL1    C814118   4.042   6.598  15.184 -0.2870 -0.5012 -0.0082
  107CHL1    H814119   3.939   6.622  15.151 -0.1406 -0.4518 -0.4411
  107CHL1   C1414120   4.126   6.628  15.058 -0.1334  0.6410  0.2266
  107CHL1   H1414121   4.232   6.612  15.088 -0.3700 -3.4091 -0.5063
  107CHL1   C1514122   4.116   6.762  14.988 -0.5874  0.1513 -0.4362
  107CHL1  H15A14123   4.010   6.792  14.991 -0.3791  1.1815  4.0407
  107CHL1  H15B14124   4.166   6.844  15.044 -1.8920  0.6628  0.0126
  107CHL1   C1614125   4.185   6.739  14.852  0.7251  0.1573 -0.2496
  107CHL1  H16A14126   4.132   6.791  14.769  0.3966 -0.0995 -0.2079
  107CHL1  H16B14127   4.286   6.783  14.843  1.2864 -0.9347  0.4156
  107CHL1   C1714128   4.202   6.584  14.835  0.2795 -0.1102  0.2551
  107CHL1   H1714129   4.303   6.566  14.877  1.3508  1.5888 -1.3803
  107CHL1   C1314130   4.103   6.530  14.942  0.0361  0.3067  0.3273
  107CHL1   C1814131   3.953   6.541  14.889 -0.3756  0.0904  0.7548
  107CHL1  H18A14132   3.883   6.515  14.971  1.2800  0.0665  2.2147
  107CHL1  H18B14133   3.931   6.642  14.847  1.6248  0.5769  0.7766
  107CHL1  H18C14134   3.940   6.464  14.810 -1.0787  2.5353 -1.6772
  107CHL1   C1214135   4.136   6.393  15.001 -0.5035 -0.3712  0.2779
  107CHL1  H12A14136   4.117   6.318  14.921  0.0358 -1.0017  0.7299
  107CHL1  H12B14137   4.242   6.402  15.035 -0.4045  1.6766 -0.4734
  107CHL1   C1114138   4.045   6.350  15.123  0.0518 -0.5720  0.3402
  107CHL1  H11A14139   3.942   6.347  15.083 -0.2194 -0.1239  0.9923
  107CHL1  H11B14140   4.074   6.244  15.142 -1.3337 -1.1839 -0.8041
  107CHL1    C914141   4.061   6.457  15.232  0.2231 -0.0376  0.1786
  107CHL1    H914142   4.168   6.445  15.261  0.8760  1.8103 -1.3482
  107CHL1   C1014143   3.965   6.429  15.356 -0.2841  0.7619 -0.5854
  107CHL1   C1914144   3.821   6.402  15.298 -0.1186  0.5818 -0.6867
  107CHL1  H19A14145   3.793   6.463  15.209  2.3085 -1.2960 -2.9035
  107CHL1  H19B14146   3.814   6.300  15.254 -1.9926 -0.6858  2.2826
  107CHL1  H19C14147   3.750   6.416  15.381  1.2569 -2.0330  1.0738
  107CHL1    C114148   4.039   6.310  15.422 -0.6589 -0.2259  0.0974
  107CHL1   H1A14149   4.057   6.226  15.352 -0.3372 -0.7290  0.7772
  107CHL1   H1B14150   4.135   6.346  15.466 -0.3781  0.0777 -0.7455
  107CHL1    C214151   3.973   6.256  15.549 -0.5738 -0.2888 -0.2199
  107CHL1   H2A14152   4.037   6.177  15.593 -0.3386 -0.2047 -0.4131
  107CHL1   H2B14153   3.875   6.211  15.521 -0.2838 -1.8097  1.0767
  107CHL1   C2014154   4.187   6.534  14.686 -0.0458 -0.6426  0.4451
  107CHL1   H2014155   4.088   6.569  14.649  0.6027  0.6824 -0.1121
  107CHL1   C2114156   4.191   6.384  14.680 -0.0987  0.0003 -0.2758
  107CHL1  H21A14157   4.102   6.329  14.715  0.9463 -1.7545 -0.2582
  107CHL1  H21B14158   4.286   6.349  14.727  0.7889 -1.6517 -3.0491
  107CHL1  H21C14159   4.193   6.358  14.572 -0.3990  1.8204 -0.7511
  107CHL1   C2214160   4.298   6.594  14.594  0.1673 -0.3462 -0.1499
  107CHL1  H22A14161   4.304   6.699  14.629  0.5793 -0.3059 -0.3437
  107CHL1  H22B14162   4.390   6.535  14.612 -0.1470 -1.1394 -1.0328
  107CHL1   C2314163   4.251   6.605  14.445  0.1003 -0.4649  0.0230
  107CHL1  H23A14164   4.274   6.510  14.394  1.4634  0.0437 -0.3550
  107CHL1  H23B14165   4.140   6.618  14.441  0.2088  0.4552 -0.4317
  107CHL1   C2414166   4.317   6.724  14.370 -0.1347  0.3239  0.4276
  107CHL1  H24A14167   4.261   6.748  14.277  1.4732 -2.1904 -1.3278
  107CHL1  H24B14168   4.330   6.817  14.430 -1.2048 -0.3308  1.7356
  107CHL1   C2514169   4.460   6.692  14.318 -0.5187  0.4975 -0.3798
  107CHL1   H2514170   4.509   6.649  14.408  1.1297  0.3424 -1.3287
  107CHL1   C2614171   4.453   6.593  14.206 -0.0097 -0.8026 -0.2302
  107CHL1  H26A14172   4.411   6.498  14.245 -3.1612  0.5765 -0.0315
  107CHL1  H26B14173   4.390   6.628  14.122  1.1041 -1.8183 -1.5407
  107CHL1  H26C14174   4.551   6.582  14.154 -0.6209 -0.1710 -1.5751
  107CHL1   C2714175   4.545   6.809  14.278  0.0124  0.4867  0.7935
  107CHL1  H27A14176   4.559   6.877  14.365 -0.8973  0.4493  0.9694
  107CHL1  H27B14177   4.649   6.783  14.248 -0.6681 -0.9951 -0.4195
  107CHL1  H27C14178   4.489   6.881  14.215 -0.7196  1.0616  2.0781
  108CHL1    C314179   5.409   3.438  15.944 -0.4298  0.2739  0.2481
  108CHL1    H314180   5.332   3.361  15.965 -1.8093  1.8163  1.0131
  108CHL1    O314181   5.467   3.467  16.066 -0.2945  0.7040 -0.3926
  108CHL1   H3'14182   5.522   3.544  16.047  2.9331 -0.8000  1.8333
  108CHL1    C414183   5.517   3.376  15.851  0.1344  0.3094 -0.2871
  108CHL1   H4A14184   5.607   3.438  15.830  0.2897 -0.0685 -0.7535
  108CHL1   H4B14185   5.557   3.286  15.903 -0.9244  0.3139  0.5822
  108CHL1    C514186   5.445   3.342  15.715  0.0470 -0.5244 -0.6892
  108CHL1    C614187   5.460   3.224  15.659 -0.2051  0.9535  0.0086
  108CHL1    H614188   5.506   3.142  15.717  0.5382 -0.9335 -3.0149
  108CHL1    C714189   5.400   3.187  15.523  0.6860 -0.1524  0.0155
  108CHL1   H7A14190   5.477   3.128  15.469  1.5615  0.8761  0.0968
  108CHL1   H7B14191   5.306   3.132  15.545 -0.8964  1.8563 -1.3789
  108CHL1    C814192   5.364   3.311  15.438  0.7158  0.1958  0.2039
  108CHL1    H814193   5.460   3.351  15.402  1.2573 -0.4506  0.8876
  108CHL1   C1414194   5.278   3.267  15.324 -0.1144  0.1629  0.1547
  108CHL1   H1414195   5.182   3.221  15.356 -0.2262 -2.8874 -3.8427
  108CHL1   C1514196   5.337   3.157  15.232 -0.0219 -0.3862  0.1365
  108CHL1  H15A14197   5.439   3.189  15.205 -0.8546  2.9322  0.5130
  108CHL1  H15B14198   5.330   3.052  15.269 -0.0609  0.6133  3.2341
  108CHL1   C1614199   5.248   3.175  15.105 -0.1794  0.4535 -0.0299
  108CHL1  H16A14200   5.301   3.172  15.007 -0.8881  0.4045 -0.4134
  108CHL1  H16B14201   5.173   3.095  15.088  0.6060 -0.5064  0.8832
  108CHL1   C1714202   5.158   3.302  15.121 -0.9267  0.0607 -0.5738
  108CHL1   H1714203   5.061   3.275  15.167 -0.4499  0.1681  0.5221
  108CHL1   C1314204   5.230   3.384  15.230  1.1042 -0.1388 -0.1500
  108CHL1   C1814205   5.341   3.460  15.159  0.3115  0.4235 -0.1058
  108CHL1  H18A14206   5.303   3.549  15.104  0.9998 -0.3442 -1.8562
  108CHL1  H18B14207   5.422   3.493  15.228  1.9637 -0.8191 -1.3976
  108CHL1  H18C14208   5.394   3.397  15.085  0.6033  0.6843 -0.1205
  108CHL1   C1214209   5.145   3.482  15.319  0.4392 -0.3629 -0.1731
  108CHL1  H12A14210   5.121   3.571  15.256 -0.1204 -0.6785 -0.4064
  108CHL1  H12B14211   5.050   3.431  15.344  0.2060  0.4820  0.7154
  108CHL1   C1114212   5.227   3.529  15.450 -0.3790  0.5324  0.4111
  108CHL1  H11A14213   5.310   3.586  15.404 -1.7390  1.2565 -1.2373
  108CHL1  H11B14214   5.179   3.601  15.520 -1.1722 -1.6820  2.2660
  108CHL1    C914215   5.290   3.411  15.528  0.3203  0.7654 -0.8670
  108CHL1    H914216   5.205   3.353  15.568  1.2060 -0.1724 -0.3025
  108CHL1   C1014217   5.371   3.457  15.651  0.5201 -0.6614 -0.3058
  108CHL1   C1914218   5.475   3.560  15.609 -0.8598  0.1777  0.8814
  108CHL1  H19A14219   5.430   3.660  15.590  2.3394  2.0421  2.2329
  108CHL1  H19B14220   5.549   3.575  15.691 -1.5603 -2.2152  2.0351
  108CHL1  H19C14221   5.532   3.529  15.519  0.7937  1.9841  1.2249
  108CHL1    C114222   5.275   3.524  15.754 -0.3937  0.5642  0.5188
  108CHL1   H1A14223   5.247   3.619  15.705  1.8064 -0.7213 -3.6931
  108CHL1   H1B14224   5.188   3.456  15.766 -2.6112  2.9534 -0.9110
  108CHL1    C214225   5.349   3.561  15.884 -1.1098  0.0053 -0.7669
  108CHL1   H2A14226   5.275   3.602  15.956 -1.0095  2.1377 -1.7942
  108CHL1   H2B14227   5.419   3.643  15.856  1.4823 -1.8718 -0.1047
  108CHL1   C2014228   5.137   3.368  14.987  0.4133  0.1220 -0.3674
  108CHL1   H2014229   5.228   3.415  14.944 -1.1180  3.2068 -0.5132
  108CHL1   C2114230   5.028   3.475  15.008  0.2676  0.8045  0.2776
  108CHL1  H21A14231   4.953   3.434  15.080  3.2550 -1.0582  2.5585
  108CHL1  H21B14232   4.979   3.521  14.920  0.8758  0.3103 -0.3278
  108CHL1  H21C14233   5.081   3.557  15.062  3.6250 -0.2956 -1.0849
  108CHL1   C2214234   5.068   3.270  14.891  0.0131  0.0523  0.2597
  108CHL1  H22A14235   5.142   3.192  14.865 -0.5610  0.3336 -2.5579
  108CHL1  H22B14236   4.975   3.227  14.936 -1.7810  0.1845 -3.0351
  108CHL1   C2314237   5.016   3.324  14.751 -0.0484  0.4521 -0.1303
  108CHL1  H23A14238   4.921   3.379  14.769 -0.1750  0.9426 -2.0968
  108CHL1  H23B14239   5.090   3.385  14.695 -0.4367  0.0102 -1.1568
  108CHL1   C2414240   4.976   3.214  14.656  0.2863 -0.3918 -1.2071
  108CHL1  H24A14241   5.073   3.163  14.637  1.3034  0.9548  0.1565
  108CHL1  H24B14242   4.905   3.146  14.708  0.0314 -0.2413 -1.3566
  108CHL1   C2514243   4.917   3.262  14.518 -0.0040 -0.0052  0.3496
  108CHL1   H2514244   4.841   3.341  14.536  1.7826  1.7797  0.2906
  108CHL1   C2614245   5.023   3.320  14.426 -0.5339  0.3819  0.5470
  108CHL1  H26A14246   5.051   3.423  14.457 -0.1127 -0.3779  2.9013
  108CHL1  H26B14247   5.116   3.259  14.430 -0.8785 -0.0986  1.4777
  108CHL1  H26C14248   4.992   3.316  14.319  1.6052  0.4033 -0.1323
  108CHL1   C2714249   4.852   3.153  14.441  0.2464 -0.7382  0.4391
  108CHL1  H27A14250   4.780   3.197  14.369 -0.3741  0.2789  1.6436
  108CHL1  H27B14251   4.928   3.089  14.392  0.1187 -2.5300  2.4266
  108CHL1  H27C14252   4.786   3.091  14.506 -0.8503 -0.1272 -0.0667
  109CHL1    C314253   2.992   6.016  15.599 -0.2038  0.2480  0.2877
  109CHL1    H314254   2.996   6.119  15.558  0.3124  0.4535  0.8374
  109CHL1    O314255   3.035   6.015  15.735  0.2156  0.0041 -0.3494
  109CHL1   H3'14256   2.959   6.003  15.793  0.7022  2.7666  1.0686
  109CHL1    C414257   2.851   5.953  15.593 -0.5319 -0.4728 -0.2758
  109CHL1   H4A14258   2.851   5.856  15.647  1.1697 -1.2011 -1.5033
  109CHL1   H4B14259   2.772   6.011  15.646 -0.0404 -0.2069  0.1742
  109CHL1    C514260   2.814   5.928  15.446  0.5039 -0.2623  0.9112
  109CHL1    C614261   2.708   5.985  15.395 -0.0416  0.1281  0.7622
  109CHL1    H614262   2.641   6.043  15.461 -0.1743  1.1859 -0.2611
  109CHL1    C714263   2.659   5.956  15.254 -0.9287 -0.2553  0.8299
  109CHL1   H7A14264   2.555   5.919  15.262 -0.6192 -1.6853 -1.0644
  109CHL1   H7B14265   2.665   6.050  15.194 -0.5324  0.3777  1.8309
  109CHL1    C814266   2.736   5.843  15.172  0.3929 -0.4645  0.1312
  109CHL1    H814267   2.699   5.745  15.210 -1.2273  1.0629  2.8147
  109CHL1   C1414268   2.712   5.848  15.027  0.1010  0.0577 -0.8551
  109CHL1   H1414269   2.742   5.951  14.997 -1.7233  1.2917  1.2624
  109CHL1   C1514270   2.564   5.848  14.980 -0.3279  0.0461  0.5644
  109CHL1  H15A14271   2.525   5.753  15.023  0.0400  0.0762  0.9740
  109CHL1  H15B14272   2.497   5.934  15.001 -0.8903  0.3384 -2.1311
  109CHL1   C1614273   2.575   5.820  14.825 -0.1647  0.0103  0.3972
  109CHL1  H16A14274   2.494   5.754  14.786  1.3646 -0.1004 -2.9204
  109CHL1  H16B14275   2.565   5.910  14.760  1.0383  1.0375  1.5714
  109CHL1   C1714276   2.728   5.775  14.791 -0.2587  0.4227 -0.2174
  109CHL1   H1714277   2.768   5.871  14.752  0.6197 -0.3972 -1.4027
  109CHL1   C1314278   2.781   5.750  14.936 -0.0310  0.2979 -0.2096
  109CHL1   C1814279   2.745   5.609  14.974 -0.3591  0.2834  0.1451
  109CHL1  H18A14280   2.762   5.579  15.080 -0.5293 -3.2005 -0.6940
  109CHL1  H18B14281   2.640   5.584  14.951  0.1624  0.6987 -3.2435
  109CHL1  H18C14282   2.796   5.534  14.910  0.6993  0.8889  0.2457
  109CHL1   C1214283   2.933   5.772  14.958  0.3200 -0.4644 -0.6624
  109CHL1  H12A14284   2.990   5.701  14.894  0.1103 -3.0133  1.8113
  109CHL1  H12B14285   2.949   5.879  14.935  1.0949  0.0529  1.9254
  109CHL1   C1114286   2.974   5.759  15.105  0.0598  0.3017 -0.2796
  109CHL1  H11A14287   2.955   5.656  15.142 -0.2533 -0.7032 -3.0134
  109CHL1  H11B14288   3.083   5.775  15.118 -0.1851  0.3755  2.2927
  109CHL1    C914289   2.886   5.852  15.198 -0.3401  0.3758  0.5274
  109CHL1    H914290   2.910   5.957  15.168 -1.0140 -0.3777 -3.0355
  109CHL1   C1014291   2.915   5.852  15.351 -0.0238  0.3012  0.4904
  109CHL1   C1914292   2.910   5.698  15.393  0.1727 -0.3851 -0.5083
  109CHL1  H19A14293   2.813   5.652  15.364 -0.7871  1.5243 -0.5296
  109CHL1  H19B14294   3.000   5.647  15.354  0.9566 -0.1544  0.9092
  109CHL1  H19C14295   2.917   5.676  15.502 -0.7216 -3.1653 -0.9382
  109CHL1    C114296   3.056   5.915  15.371 -0.0859  0.4079 -1.3647
  109CHL1   H1A14297   3.138   5.871  15.311  0.8049 -0.3015  0.3096
  109CHL1   H1B14298   3.042   6.017  15.328 -3.1189 -0.1650 -1.9383
  109CHL1    C214299   3.099   5.932  15.518  0.2951  0.2235 -0.2453
  109CHL1   H2A14300   3.201   5.974  15.523  0.1892  0.4132  0.3415
  109CHL1   H2B14301   3.097   5.837  15.574  0.0475  0.6235  0.4358
  109CHL1   C2014302   2.732   5.674  14.689 -0.3187  0.9177 -0.3336
  109CHL1   H2014303   2.669   5.591  14.729  1.2751 -0.0120  0.3167
  109CHL1   C2114304   2.869   5.622  14.661 -0.4027  0.6843  0.4649
  109CHL1  H21A14305   2.914   5.571  14.749 -1.2476  0.4924  0.7931
  109CHL1  H21B14306   2.943   5.698  14.629  0.0586 -0.0820 -0.3286
  109CHL1  H21C14307   2.878   5.552  14.576 -1.6740  0.3366  0.5970
  109CHL1   C2214308   2.660   5.714  14.552  0.4358  0.1382  0.3629
  109CHL1  H22A14309   2.567   5.770  14.572 -0.0489 -0.7843  0.7029
  109CHL1  H22B14310   2.720   5.778  14.483 -0.0884 -0.8347 -1.0449
  109CHL1   C2314311   2.614   5.596  14.454  0.0724  0.8367 -0.1843
  109CHL1  H23A14312   2.675   5.507  14.479  1.3889  1.4702 -1.0440
  109CHL1  H23B14313   2.509   5.560  14.451  1.0920 -2.4993  0.4852
  109CHL1   C2414314   2.646   5.636  14.313 -0.1011  0.0789 -0.1940
  109CHL1  H24A14315   2.583   5.725  14.288 -0.0695 -0.0644 -0.7877
  109CHL1  H24B14316   2.755   5.654  14.300  0.1639 -2.0132 -1.2111
  109CHL1   C2514317   2.602   5.534  14.202  0.5044 -0.5285  1.1455
  109CHL1   H2514318   2.492   5.522  14.205  0.3100  1.2596  2.5093
  109CHL1   C2614319   2.620   5.604  14.066 -0.0365 -0.5118 -0.1516
  109CHL1  H26A14320   2.586   5.547  13.977 -1.6425 -0.2977  0.2879
  109CHL1  H26B14321   2.566   5.701  14.068 -1.8994 -1.5124  0.6765
  109CHL1  H26C14322   2.727   5.626  14.044 -0.7693  0.7616 -2.9619
  109CHL1   C2714323   2.681   5.404  14.197  0.2207  0.4054 -0.0085
  109CHL1  H27A14324   2.657   5.349  14.290  1.5449 -0.4669 -0.1604
  109CHL1  H27B14325   2.665   5.345  14.104 -0.8663  0.7562 -0.0603
  109CHL1  H27C14326   2.789   5.430  14.206  0.4785 -0.9903  1.2577
  110CHL1    C314327   1.679   4.792  15.865  0.2241  0.1740  0.3764
  110CHL1    H314328   1.568   4.799  15.861  0.1527 -0.4691  1.2178
  110CHL1    O314329   1.726   4.827  15.998 -0.8026 -0.3696  0.6508
  110CHL1   H3'14330   1.819   4.847  15.987 -0.9943  0.0134 -0.4317
  110CHL1    C414331   1.716   4.649  15.826  0.2890  1.2184 -0.1380
  110CHL1   H4A14332   1.824   4.631  15.847  0.0271  0.5699  0.7201
  110CHL1   H4B14333   1.668   4.575  15.894 -1.6651  3.5807  1.2282
  110CHL1    C514334   1.692   4.612  15.680 -1.3100 -0.4698  0.1293
  110CHL1    C614335   1.628   4.506  15.627 -0.2922  0.3624 -0.1707
  110CHL1    H614336   1.590   4.424  15.690  3.7543 -2.4361 -1.0009
  110CHL1    C714337   1.621   4.473  15.480 -0.7166  0.0531 -0.3580
  110CHL1   H7A14338   1.636   4.364  15.464  0.6781  0.1385  0.1670
  110CHL1   H7B14339   1.529   4.500  15.424 -0.4348  0.0240 -0.8348
  110CHL1    C814340   1.728   4.546  15.395  0.1368 -0.5539  0.2471
  110CHL1    H814341   1.830   4.503  15.401 -0.7116 -2.7528  0.0961
  110CHL1   C1414342   1.700   4.530  15.246  0.0549  0.3465 -0.6261
  110CHL1   H1414343   1.602   4.580  15.234 -0.5479 -0.6640  0.0019
  110CHL1   C1514344   1.688   4.388  15.182 -0.7349 -1.8903  0.0302
  110CHL1  H15A14345   1.766   4.320  15.222 -0.3083 -1.2851  0.2553
  110CHL1  H15B14346   1.588   4.341  15.188 -0.9277 -1.8374 -2.0409
  110CHL1   C1614347   1.705   4.427  15.037 -0.1230 -0.7638  0.6639
  110CHL1  H16A14348   1.787   4.364  14.996  1.3542  1.0931  0.6254
  110CHL1  H16B14349   1.613   4.409  14.977  0.2262  0.6125 -0.3361
  110CHL1   C1714350   1.746   4.578  15.020  0.6508  0.0710  0.1293
  110CHL1   H1714351   1.654   4.639  15.007  0.9101  0.3396 -0.5495
  110CHL1   C1314352   1.796   4.615  15.157  0.3448  0.2877  0.3346
  110CHL1   C1814353   1.938   4.552  15.177  0.1078  0.2379  0.5687
  110CHL1  H18A14354   1.976   4.572  15.280  2.1760 -0.2433 -0.0487
  110CHL1  H18B14355   1.940   4.442  15.161  1.6670  0.0407  1.8372
  110CHL1  H18C14356   2.016   4.588  15.107  0.9800 -0.8522  0.9424
  110CHL1   C1214357   1.780   4.761  15.190  0.6416 -0.0840  0.0411
  110CHL1  H12A14358   1.839   4.827  15.123 -1.4399 -0.8022 -2.7053
  110CHL1  H12B14359   1.673   4.785  15.170  0.6606  0.1551  0.2275
  110CHL1   C1114360   1.812   4.785  15.340  0.4589 -0.3737 -0.2109
  110CHL1  H11A14361   1.922   4.769  15.342  0.4665 -0.2976  2.0057
  110CHL1  H11B14362   1.796   4.893  15.363  0.6635 -0.3614 -0.1255
  110CHL1    C914363   1.730   4.695  15.429  0.2313  0.2435  0.4880
  110CHL1    H914364   1.627   4.737  15.419  0.1605 -0.3204 -1.6893
  110CHL1   C1014365   1.756   4.715  15.582  0.1523  0.7251 -0.5283
  110CHL1   C1914366   1.910   4.717  15.599 -0.6458  0.1002  0.3248
  110CHL1  H19A14367   1.963   4.631  15.554  0.8434 -0.4675  2.9400
  110CHL1  H19B14368   1.951   4.805  15.545 -0.2881 -0.1915  0.1188
  110CHL1  H19C14369   1.942   4.721  15.705 -0.0378  1.0451  0.1208
  110CHL1    C114370   1.707   4.852  15.627 -0.1059  0.0111  0.6556
  110CHL1   H1A14371   1.755   4.919  15.552  0.3272 -0.3667  0.5922
  110CHL1   H1B14372   1.597   4.851  15.610  0.0994 -1.4000 -0.7989
  110CHL1    C214373   1.742   4.891  15.765  0.3500 -0.3426 -0.3258
  110CHL1   H2A14374   1.688   4.985  15.788 -1.0816 -1.3232  0.4580
  110CHL1   H2B14375   1.853   4.896  15.774  0.4322  0.7948 -1.5474
  110CHL1   C2014376   1.824   4.607  14.894  0.8512  0.0574 -0.0543
  110CHL1   H2014377   1.932   4.582  14.899  0.9702  0.8128  1.8192
  110CHL1   C2114378   1.803   4.754  14.860  0.0982 -0.3149  0.1649
  110CHL1  H21A14379   1.862   4.776  14.768  0.7991  2.7637  1.2420
  110CHL1  H21B14380   1.846   4.820  14.938  0.9259  0.0307 -0.5610
  110CHL1  H21C14381   1.695   4.773  14.844 -0.2520 -2.2760 -0.1351
  110CHL1   C2214382   1.771   4.520  14.775 -0.3866  0.3651 -0.9819
  110CHL1  H22A14383   1.790   4.412  14.792 -1.7415  0.1854 -0.4994
  110CHL1  H22B14384   1.661   4.526  14.760 -0.9026  3.8230  2.5708
  110CHL1   C2314385   1.854   4.542  14.636 -0.3256 -0.3161  0.6959
  110CHL1  H23A14386   1.833   4.647  14.605 -0.5817 -0.2443  1.0907
  110CHL1  H23B14387   1.958   4.546  14.675 -0.1556 -2.5824  0.5717
  110CHL1   C2414388   1.841   4.434  14.530 -0.1040 -0.1705 -0.2917
  110CHL1  H24A14389   1.899   4.447  14.436 -1.1624 -2.5423 -1.3770
  110CHL1  H24B14390   1.886   4.344  14.578  0.3002 -1.7261 -3.3223
  110CHL1   C2514391   1.691   4.406  14.499 -0.2548 -0.2881  0.3144
  110CHL1   H2514392   1.633   4.397  14.594 -0.3501 -1.4947  0.1583
  110CHL1   C2614393   1.621   4.509  14.409 -0.6406 -0.2201  0.5582
  110CHL1  H26A14394   1.621   4.609  14.458  0.7959  0.2496 -0.3348
  110CHL1  H26B14395   1.674   4.531  14.314 -0.5041  2.3927  1.1551
  110CHL1  H26C14396   1.518   4.473  14.388 -0.4312 -1.9374  2.2734
  110CHL1   C2714397   1.684   4.274  14.419 -0.0694 -0.2286 -0.2239
  110CHL1  H27A14398   1.580   4.238  14.405  0.5143 -1.8972 -0.4286
  110CHL1  H27B14399   1.732   4.290  14.321 -0.2740 -1.3876 -0.5340
  110CHL1  H27C14400   1.729   4.191  14.477 -0.5377 -0.7248 -0.5634
  111CHL1    C314401   3.143   0.883  15.419 -0.3173  0.1893  0.2496
  111CHL1    H314402   3.228   0.951  15.400  1.9402 -2.3280  0.6978
  111CHL1    O314403   3.194   0.796  15.519 -0.0516  0.3996 -0.3973
  111CHL1   H3'14404   3.134   0.721  15.533  2.2282 -1.6148 -0.7690
  111CHL1    C414405   3.032   0.972  15.466 -0.8554  0.8344 -0.6140
  111CHL1   H4A14406   2.961   0.896  15.505  1.3781 -1.1315 -0.0972
  111CHL1   H4B14407   3.060   1.027  15.559 -1.3467  1.8557 -1.0590
  111CHL1    C514408   2.975   1.058  15.361  0.3371 -0.9341  0.4812
  111CHL1    C614409   2.959   1.193  15.374 -0.0400  0.4685 -0.2643
  111CHL1    H614410   2.994   1.234  15.469  2.1620  2.4170 -1.7800
  111CHL1    C714411   2.894   1.287  15.277 -0.6972 -0.6096 -0.7944
  111CHL1   H7A14412   2.824   1.355  15.331  0.1094 -1.2574  1.1741
  111CHL1   H7B14413   2.977   1.335  15.221  0.3429 -2.3407 -0.8194
  111CHL1    C814414   2.812   1.208  15.171  0.0650  0.1238  0.1033
  111CHL1    H814415   2.710   1.185  15.208  0.3106 -0.2395  0.5754
  111CHL1   C1414416   2.783   1.312  15.053 -0.2369  0.2516  0.7952
  111CHL1   H1414417   2.885   1.332  15.012 -0.1249 -0.2540  0.8216
  111CHL1   C1514418   2.715   1.444  15.077 -0.2281 -0.1484 -0.2306
  111CHL1  H15A14419   2.627   1.434  15.145  0.0902  0.0961  0.2193
  111CHL1  H15B14420   2.788   1.518  15.117  1.3908 -0.8034 -1.8204
  111CHL1   C1614421   2.662   1.497  14.940 -1.2644  0.7282 -0.8867
  111CHL1  H16A14422   2.554   1.523  14.951 -1.3128  1.0255 -1.9953
  111CHL1  H16B14423   2.724   1.586  14.916 -0.4517  0.5257  0.3485
  111CHL1   C1714424   2.691   1.375  14.841 -0.2109  0.8428 -0.1054
  111CHL1   H1714425   2.792   1.399  14.801 -0.7127 -0.7193 -2.4651
  111CHL1   C1314426   2.704   1.250  14.937  0.2148  0.5653  0.5165
  111CHL1   C1814427   2.560   1.205  14.964 -0.0320  0.1286 -0.1049
  111CHL1  H18A14428   2.491   1.289  14.986  1.9631  2.4000 -1.9406
  111CHL1  H18B14429   2.519   1.151  14.876  0.0498  0.7635 -0.5369
  111CHL1  H18C14430   2.553   1.138  15.052 -0.7240 -0.1618 -0.3686
  111CHL1   C1214431   2.797   1.138  14.881  0.0395  0.0063 -0.1867
  111CHL1  H12A14432   2.748   1.099  14.790 -0.5757  1.3551 -0.4634
  111CHL1  H12B14433   2.893   1.189  14.856  0.5337 -0.0976  1.3924
  111CHL1   C1114434   2.823   1.027  14.986 -0.6503 -0.0658 -0.1191
  111CHL1  H11A14435   2.730   0.971  15.010 -0.6546  0.2118  0.5610
  111CHL1  H11B14436   2.884   0.951  14.934  0.3453  2.1568 -2.4204
  111CHL1    C914437   2.891   1.087  15.118  0.0353 -0.3681  0.3657
  111CHL1    H914438   2.987   1.132  15.084 -1.0768  1.2260 -0.8312
  111CHL1   C1014439   2.930   0.983  15.234  0.1784 -0.0098  0.2450
  111CHL1   C1914440   2.805   0.894  15.274 -0.1278 -0.0328 -0.4325
  111CHL1  H19A14441   2.780   0.825  15.191 -1.4516 -0.6100  0.4132
  111CHL1  H19B14442   2.823   0.830  15.364  1.6559 -0.0592 -0.7626
  111CHL1  H19C14443   2.715   0.958  15.284 -0.9941 -0.9037 -2.2273
  111CHL1    C114444   3.055   0.908  15.190 -0.3532  0.0769  0.6961
  111CHL1   H1A14445   3.024   0.842  15.107 -1.2451  0.1784  0.9307
  111CHL1   H1B14446   3.134   0.977  15.153 -0.1748  0.0990  1.1125
  111CHL1    C214447   3.108   0.809  15.295 -0.5566  0.5228 -0.8124
  111CHL1   H2A14448   3.200   0.758  15.260 -0.2790 -1.1559  2.0467
  111CHL1   H2B14449   3.033   0.728  15.310 -2.3163  1.8081 -2.3129
  111CHL1   C2014450   2.587   1.368  14.730 -0.4610 -0.2422  0.4210
  111CHL1   H2014451   2.484   1.352  14.768 -1.2793 -1.3117 -2.0502
  111CHL1   C2114452   2.614   1.251  14.630 -0.0801 -0.8393  0.2288
  111CHL1  H21A14453   2.551   1.263  14.540 -0.2912  1.1145  0.5834
  111CHL1  H21B14454   2.582   1.154  14.674  0.1891 -1.6647 -1.3218
  111CHL1  H21C14455   2.721   1.249  14.600  0.1214 -0.6636  0.9051
  111CHL1   C2214456   2.586   1.498  14.644 -0.5999 -0.2988 -0.1173
  111CHL1  H22A14457   2.522   1.479  14.554 -1.5379  0.8408  0.2822
  111CHL1  H22B14458   2.532   1.581  14.694 -1.3444  0.3117 -1.8349
  111CHL1   C2314459   2.721   1.556  14.607  0.4036  0.3883 -0.0993
  111CHL1  H23A14460   2.778   1.585  14.698  2.2033 -0.0332 -1.0436
  111CHL1  H23B14461   2.787   1.479  14.563 -1.3620 -1.6807  0.7271
  111CHL1   C2414462   2.705   1.680  14.508 -0.0859  0.0144 -1.0120
  111CHL1  H24A14463   2.642   1.750  14.568  3.3434 -0.1982  3.4513
  111CHL1  H24B14464   2.803   1.732  14.501 -0.8183  1.5019 -0.6661
  111CHL1   C2514465   2.661   1.649  14.368  0.5831 -0.7345  0.4025
  111CHL1   H2514466   2.560   1.604  14.357 -0.0108  0.3062  1.4462
  111CHL1   C2614467   2.652   1.776  14.284  0.1174  0.1332 -0.3752
  111CHL1  H26A14468   2.608   1.741  14.188 -0.3191 -0.2192 -0.0497
  111CHL1  H26B14469   2.580   1.851  14.325 -2.3854 -0.8489 -2.6802
  111CHL1  H26C14470   2.756   1.813  14.265  0.5830 -1.9788 -2.2919
  111CHL1   C2714471   2.755   1.552  14.298 -0.9385  0.2863  0.5197
  111CHL1  H27A14472   2.735   1.542  14.189  2.3465 -0.3931 -0.1128
  111CHL1  H27B14473   2.860   1.587  14.302 -0.8831  0.4818 -1.6266
  111CHL1  H27C14474   2.743   1.451  14.345  0.7399 -0.6613 -0.9697
  112CHL1    C314475   4.121   0.838  15.689 -0.7202 -0.4111 -0.0036
  112CHL1    H314476   4.014   0.812  15.704 -0.5697 -0.5870  0.8486
  112CHL1    O314477   4.190   0.825  15.814  0.2903  0.2537 -0.0386
  112CHL1   H3'14478   4.147   0.749  15.852  0.5231  0.7002  1.1398
  112CHL1    C414479   4.168   0.723  15.596  0.3002  0.3368 -0.7057
  112CHL1   H4A14480   4.278   0.722  15.611  0.0609  1.1233  1.5860
  112CHL1   H4B14481   4.136   0.629  15.645  1.4296  0.5932  0.6038
  112CHL1    C514482   4.127   0.746  15.453  0.0415 -0.2797 -0.4785
  112CHL1    C614483   4.067   0.653  15.382 -0.5480 -0.2755  0.2688
  112CHL1    H614484   4.050   0.556  15.430 -1.5248 -0.0530  0.3860
  112CHL1    C714485   4.042   0.660  15.241  0.9700 -0.0869  0.3354
  112CHL1   H7A14486   4.076   0.568  15.190 -0.4748 -0.4537 -0.0086
  112CHL1   H7B14487   3.931   0.665  15.232  0.9502 -1.9823 -0.9555
  112CHL1    C814488   4.101   0.785  15.166  0.2454  0.3933  0.7360
  112CHL1    H814489   4.207   0.764  15.138 -0.1443 -0.1995 -0.3626
  112CHL1   C1414490   4.021   0.808  15.039 -0.4660 -0.4568  0.0839
  112CHL1   H1414491   3.921   0.839  15.076  0.5347  1.8715  1.1179
  112CHL1   C1514492   4.002   0.697  14.939 -0.0542  0.4213 -0.2097
  112CHL1  H15A14493   4.093   0.642  14.907  0.9104  1.2883  0.9272
  112CHL1  H15B14494   3.935   0.614  14.973  0.2667  0.1217 -0.3038
  112CHL1   C1614495   3.942   0.775  14.819  0.1157 -0.1821  0.0897
  112CHL1  H16A14496   3.995   0.741  14.728  1.6476  0.1219  0.8374
  112CHL1  H16B14497   3.832   0.760  14.816  0.0895  0.1219 -1.0973
  112CHL1   C1714498   3.970   0.928  14.835 -0.1331  0.1325  0.3614
  112CHL1   H1714499   3.874   0.976  14.863 -0.3398  0.7870 -1.3274
  112CHL1   C1314500   4.064   0.937  14.960  0.1630 -1.0520  0.1141
  112CHL1   C1814501   4.202   0.922  14.903 -0.1942 -0.0575  0.9050
  112CHL1  H18A14502   4.220   0.844  14.826 -0.8733 -0.0828  0.7716
  112CHL1  H18B14503   4.233   1.017  14.854  2.4062 -0.7455  1.0605
  112CHL1  H18C14504   4.274   0.903  14.985  0.3529 -1.9409  0.0416
  112CHL1   C1214505   4.040   1.059  15.057 -0.2520  0.6375  0.8304
  112CHL1  H12A14506   4.064   1.158  15.012 -1.0059  0.6741  0.5027
  112CHL1  H12B14507   3.933   1.049  15.082 -0.4852 -0.1240 -0.3922
  112CHL1   C1114508   4.123   1.036  15.182  0.1342 -0.4591  0.1264
  112CHL1  H11A14509   4.232   1.044  15.161  0.0353 -0.2986 -0.3617
  112CHL1  H11B14510   4.116   1.124  15.249 -0.3029  0.2336 -0.7968
  112CHL1    C914511   4.086   0.908  15.252 -0.8747  0.1760  0.5473
  112CHL1    H914512   3.979   0.908  15.282 -0.5935  0.4967  1.5920
  112CHL1   C1014513   4.161   0.883  15.388 -0.1323 -0.3522  0.2708
  112CHL1   C1914514   4.316   0.902  15.370  0.5090 -0.2770 -0.2271
  112CHL1  H19A14515   4.321   1.010  15.345  0.4711 -0.1332  0.3779
  112CHL1  H19B14516   4.363   0.877  15.468 -0.7822  2.0928  1.0774
  112CHL1  H19C14517   4.353   0.841  15.285  0.2953 -0.6120 -0.0799
  112CHL1    C114518   4.103   0.994  15.487 -0.1309  1.0286  0.5514
  112CHL1   H1A14519   4.140   1.094  15.455  1.4172 -0.1455 -1.5900
  112CHL1   H1B14520   3.994   0.972  15.484  0.0421  0.2286 -1.0335
  112CHL1    C214521   4.156   0.967  15.630 -0.7345 -0.5877 -0.0881
  112CHL1   H2A14522   4.112   1.044  15.696  0.2993  0.0230 -0.0852
  112CHL1   H2B14523   4.266   0.984  15.623 -0.5527 -1.0667  1.2918
  112CHL1   C2014524   3.998   1.003  14.702  0.4555  0.3110 -0.0246
  112CHL1   H2014525   4.096   0.962  14.667  1.6157  1.6882  1.4599
  112CHL1   C2114526   4.006   1.158  14.709  0.1868 -0.8775  0.4839
  112CHL1  H21A14527   4.065   1.188  14.798  1.1333  0.4262 -0.5419
  112CHL1  H21B14528   3.906   1.204  14.707  1.4767  2.1355 -1.3299
  112CHL1  H21C14529   4.068   1.188  14.621 -2.0853 -1.9628 -1.6283
  112CHL1   C2214530   3.895   0.960  14.596  0.0656  0.0320  0.5567
  112CHL1  H22A14531   3.898   0.852  14.570 -1.9881  0.2013 -0.6248
  112CHL1  H22B14532   3.789   0.991  14.614  0.0434  0.4205 -0.2147
  112CHL1   C2314533   3.933   1.038  14.470  0.1252 -0.2471 -0.2555
  112CHL1  H23A14534   3.908   1.146  14.465 -1.3391 -0.6080 -1.5900
  112CHL1  H23B14535   4.043   1.035  14.455  0.4261 -0.7955  1.8152
  112CHL1   C2414536   3.860   0.987  14.342 -0.3657 -0.6166 -0.3809
  112CHL1  H24A14537   3.872   0.876  14.348  1.2728 -0.4210  0.3603
  112CHL1  H24B14538   3.753   1.016  14.353 -0.6405 -1.2533 -1.2676
  112CHL1   C2514539   3.906   1.040  14.208  0.4825  0.0294  0.0211
  112CHL1   H2514540   4.001   0.985  14.189  1.1045  0.6654  1.2243
  112CHL1   C2614541   3.805   0.997  14.101 -0.0048 -0.0010  0.1892
  112CHL1  H26A14542   3.843   1.031  14.002  1.7859  0.8208  1.1230
  112CHL1  H26B14543   3.800   0.886  14.098  0.2129 -0.3374  4.8344
  112CHL1  H26C14544   3.704   1.044  14.112  0.4277  1.4968 -1.5859
  112CHL1   C2714545   3.928   1.192  14.194  0.2249  0.1685 -0.3895
  112CHL1  H27A14546   3.958   1.204  14.087  1.9687 -1.6061 -0.1702
  112CHL1  H27B14547   3.834   1.245  14.217  0.1741 -0.3807  0.7248
  112CHL1  H27C14548   4.001   1.229  14.269  2.3288  0.4739 -2.4621
  113CHL1    C314549   1.113   4.947  15.729  0.7339  0.0131 -1.0287
  113CHL1    H314550   1.087   5.042  15.678  3.1249  0.4671 -1.4931
  113CHL1    O314551   1.097   4.961  15.871 -0.0901  0.0163 -0.0257
  113CHL1   H3'14552   1.137   4.880  15.903 -2.1215 -1.0117  0.0661
  113CHL1    C414553   1.015   4.839  15.664 -0.0972 -0.1817 -0.3165
  113CHL1   H4A14554   0.996   4.748  15.726 -0.6769 -0.8008 -1.3767
  113CHL1   H4B14555   0.916   4.889  15.670 -0.2590 -0.4196 -0.8882
  113CHL1    C514556   1.046   4.803  15.521  0.0941  0.4988 -0.5581
  113CHL1    C614557   0.945   4.797  15.436 -0.0200  0.9746  0.0794
  113CHL1    H614558   0.844   4.817  15.477 -0.7311 -0.8660 -0.6799
  113CHL1    C714559   0.956   4.772  15.289  0.1126  0.8092  0.4519
  113CHL1   H7A14560   0.875   4.709  15.246 -1.4608  2.2304  1.2392
  113CHL1   H7B14561   0.955   4.871  15.240  1.7410  1.5301  1.7676
  113CHL1    C814562   1.087   4.706  15.256 -0.4193 -0.3004  0.1712
  113CHL1    H814563   1.078   4.600  15.288 -0.5000  0.3321  2.3759
  113CHL1   C1414564   1.106   4.710  15.108  0.1508  0.2213 -0.5915
  113CHL1   H1414565   1.108   4.816  15.076  0.6854  0.4678  0.2319
  113CHL1   C1514566   0.994   4.646  15.022 -0.0051 -0.4245  0.4212
  113CHL1  H15A14567   0.959   4.556  15.077 -0.9607 -0.6077 -0.4614
  113CHL1  H15B14568   0.910   4.719  15.028  1.3000  1.0308  2.6161
  113CHL1   C1614569   1.059   4.619  14.888 -0.4784  0.2018 -0.3517
  113CHL1  H16A14570   1.053   4.511  14.865 -1.5138 -0.1423  1.3541
  113CHL1  H16B14571   1.012   4.674  14.804 -1.1135 -2.3536 -1.7660
  113CHL1   C1714572   1.208   4.659  14.910 -0.9631 -0.4981 -0.5897
  113CHL1   H1714573   1.221   4.767  14.887  0.3734 -0.6700 -0.7298
  113CHL1   C1314574   1.243   4.653  15.065  0.3932 -0.1542 -0.7169
  113CHL1   C1814575   1.259   4.503  15.113 -0.6339  0.0761  0.4510
  113CHL1  H18A14576   1.202   4.439  15.042  0.3520  0.3543 -0.6282
  113CHL1  H18B14577   1.366   4.475  15.104 -1.0047 -0.6886 -3.6197
  113CHL1  H18C14578   1.237   4.487  15.221  3.2876  1.1385  1.5433
  113CHL1   C1214579   1.365   4.732  15.127  0.6721  0.6295 -0.8578
  113CHL1  H12A14580   1.456   4.678  15.093  0.5762 -1.3005  1.6701
  113CHL1  H12B14581   1.383   4.833  15.083  0.6298  1.2718  0.5247
  113CHL1   C1114582   1.350   4.731  15.279  0.1481  0.2684  0.0939
  113CHL1  H11A14583   1.376   4.632  15.322  1.1963  0.6678  0.4214
  113CHL1  H11B14584   1.432   4.796  15.316  0.1742  1.8272 -2.4730
  113CHL1    C914585   1.207   4.775  15.329 -0.3103  0.2273  1.9007
  113CHL1    H914586   1.199   4.880  15.293 -1.3031 -0.6327 -0.5841
  113CHL1   C1014587   1.192   4.786  15.480 -0.1673  0.8882  0.4679
  113CHL1   C1914588   1.229   4.652  15.550  0.1408 -0.3503  0.2033
  113CHL1  H19A14589   1.198   4.640  15.657 -0.3281  2.4431  0.4729
  113CHL1  H19B14590   1.184   4.566  15.496  0.3864 -1.3467  1.5387
  113CHL1  H19C14591   1.339   4.640  15.557  0.2044  0.9600  2.3535
  113CHL1    C114592   1.281   4.901  15.540 -0.5379  0.0264 -0.0961
  113CHL1   H1A14593   1.388   4.872  15.528 -0.8695 -1.3638  0.1275
  113CHL1   H1B14594   1.257   4.987  15.475 -0.7427  1.2149  1.4876
  113CHL1    C214595   1.260   4.931  15.697 -0.0372  0.2005  0.2052
  113CHL1   H2A14596   1.311   5.025  15.727  0.0083 -0.2297  1.5718
  113CHL1   H2B14597   1.311   4.850  15.753 -3.3903 -2.0539  0.3357
  113CHL1   C2014598   1.303   4.590  14.808  0.0463 -0.3713 -0.0169
  113CHL1   H2014599   1.310   4.484  14.841  0.6891 -0.2449  0.2670
  113CHL1   C2114600   1.443   4.658  14.827  0.4271  0.1575 -0.0134
  113CHL1  H21A14601   1.502   4.656  14.732  1.5278 -0.0346  0.6571
  113CHL1  H21B14602   1.500   4.595  14.899 -1.6222 -0.4507  1.1653
  113CHL1  H21C14603   1.431   4.762  14.862 -1.3609  0.1689 -0.5744
  113CHL1   C2214604   1.258   4.591  14.659 -0.0657 -0.1304 -0.2843
  113CHL1  H22A14605   1.335   4.536  14.601  0.0571 -0.4384  0.1652
  113CHL1  H22B14606   1.167   4.528  14.647  0.2928 -1.3182  2.4200
  113CHL1   C2314607   1.240   4.717  14.582 -0.1282  0.1034  0.2487
  113CHL1  H23A14608   1.142   4.758  14.615 -0.3589  0.8924 -1.3116
  113CHL1  H23B14609   1.327   4.785  14.596  0.9760 -1.1642 -0.2589
  113CHL1   C2414610   1.239   4.698  14.429 -0.5155 -0.5105  0.2195
  113CHL1  H24A14611   1.332   4.654  14.389 -1.1369 -0.4873 -1.3241
  113CHL1  H24B14612   1.157   4.626  14.404 -0.1494 -1.4459  1.6193
  113CHL1   C2514613   1.214   4.824  14.338 -0.1557  0.1791 -0.5643
  113CHL1   H2514614   1.132   4.885  14.382  2.6825  3.4247  0.7474
  113CHL1   C2614615   1.343   4.905  14.311 -0.0986  0.6035  0.1416
  113CHL1  H26A14616   1.421   4.835  14.276 -0.8442 -0.2904  0.2154
  113CHL1  H26B14617   1.331   4.981  14.231  0.9307  0.4412 -0.1788
  113CHL1  H26C14618   1.377   4.951  14.406  1.3647 -1.1206  0.5017
  113CHL1   C2714619   1.158   4.773  14.199  0.0575  0.3366  0.4246
  113CHL1  H27A14620   1.078   4.697  14.207  0.6693 -0.3626  0.0357
  113CHL1  H27B14621   1.128   4.862  14.140  1.1286  1.3766  1.3751
  113CHL1  H27C14622   1.243   4.722  14.148  0.4227  1.9457 -0.6593
  114CHL1    C314623   5.093   0.297  15.770 -1.0537 -0.3000 -0.2478
  114CHL1    H314624   5.145   0.395  15.765 -0.1194 -0.6655  1.3357
  114CHL1    O314625   5.071   0.266  15.909 -0.1675  0.1262 -0.0032
  114CHL1   H3'14626   5.091   0.173  15.921 -1.2547 -0.5398 -2.6215
  114CHL1    C414627   4.963   0.303  15.695 -0.2378 -0.5752  0.2877
  114CHL1   H4A14628   4.914   0.204  15.707 -0.2914 -1.0498 -3.0531
  114CHL1   H4B14629   4.901   0.380  15.746  1.4480  1.0743 -0.0035
  114CHL1    C514630   4.982   0.334  15.547 -0.2188  0.1288  0.5138
  114CHL1    C614631   4.919   0.442  15.490  0.1713 -0.6769 -0.2275
  114CHL1    H614632   4.841   0.486  15.554 -0.3877 -1.9192 -0.0270
  114CHL1    C714633   4.936   0.486  15.347  0.3512 -0.2299 -0.6459
  114CHL1   H7A14634   4.842   0.509  15.293 -0.6249  2.0837  1.8289
  114CHL1   H7B14635   5.007   0.571  15.349  0.2734 -0.1498 -1.2297
  114CHL1    C814636   5.002   0.367  15.261 -0.1612 -0.4284  0.2894
  114CHL1    H814637   4.925   0.289  15.245 -1.4708  0.5269  1.6841
  114CHL1   C1414638   5.050   0.434  15.132 -0.4154  0.2133  0.9265
  114CHL1   H1414639   5.121   0.511  15.170 -0.1387 -0.1756  1.1952
  114CHL1   C1514640   4.949   0.512  15.048  0.2703 -0.0077 -0.3495
  114CHL1  H15A14641   4.849   0.463  15.039  0.4288  0.0624 -3.3688
  114CHL1  H15B14642   4.938   0.618  15.081  1.4685 -0.2077  0.7704
  114CHL1   C1614643   5.006   0.515  14.904 -0.3522  0.0436 -0.2982
  114CHL1  H16A14644   4.923   0.481  14.838 -1.3380 -1.1552  1.5011
  114CHL1  H16B14645   5.037   0.617  14.873 -1.6802  0.2717 -0.9378
  114CHL1   C1714646   5.123   0.418  14.913 -0.2059  0.6555 -0.5269
  114CHL1   H1714647   5.205   0.491  14.931 -0.2210  0.8664 -1.2688
  114CHL1   C1314648   5.114   0.330  15.036  0.2991  0.1695 -0.6632
  114CHL1   C1814649   5.019   0.209  14.998  0.2058 -0.2047 -0.0830
  114CHL1  H18A14650   4.983   0.167  15.094 -1.2607  0.0326 -0.5068
  114CHL1  H18B14651   4.930   0.249  14.946  0.9182  1.7357  0.1361
  114CHL1  H18C14652   5.065   0.135  14.928  2.5762 -0.4395  1.5738
  114CHL1   C1214653   5.245   0.278  15.110  0.4926 -0.1465  0.3097
  114CHL1  H12A14654   5.299   0.212  15.038 -1.1802  0.4799 -1.6118
  114CHL1  H12B14655   5.316   0.359  15.136 -0.9908  0.7199  1.8309
  114CHL1   C1114656   5.214   0.208  15.240 -0.4159  0.4004 -0.2518
  114CHL1  H11A14657   5.158   0.113  15.226 -0.2467  0.1476  0.7111
  114CHL1  H11B14658   5.306   0.172  15.291 -1.4340  0.8168  1.9534
  114CHL1    C914659   5.128   0.301  15.334  0.3068 -0.0457 -0.1164
  114CHL1    H914660   5.193   0.388  15.358  1.9765 -1.5917  1.3638
  114CHL1   C1014661   5.085   0.243  15.476  0.0273 -0.5173 -0.2383
  114CHL1   C1914662   5.023   0.104  15.462 -0.5725 -0.1120  0.5781
  114CHL1  H19A14663   5.103   0.029  15.444 -1.1269 -0.5378 -0.1541
  114CHL1  H19B14664   4.970   0.082  15.557  0.6281  0.1554  1.3242
  114CHL1  H19C14665   4.958   0.110  15.372  2.0966  1.8876 -1.3538
  114CHL1    C114666   5.215   0.235  15.568 -0.6831  0.2158  0.1058
  114CHL1   H1A14667   5.280   0.167  15.510 -0.3663 -1.1086  1.9130
  114CHL1   H1B14668   5.267   0.333  15.570  2.9897 -1.4407 -2.4570
  114CHL1    C214669   5.189   0.189  15.710 -0.0668 -0.3524 -0.3192
  114CHL1   H2A14670   5.288   0.194  15.761  0.8695 -2.9944 -1.6751
  114CHL1   H2B14671   5.149   0.087  15.722  0.6141 -0.8730 -2.0901
  114CHL1   C2014672   5.169   0.343  14.786  0.4067 -0.3654  0.2322
  114CHL1   H2014673   5.199   0.242  14.821  0.4303 -0.5314 -0.2618
  114CHL1   C2114674   5.301   0.397  14.733 -0.1081  0.0586  0.0840
  114CHL1  H21A14675   5.337   0.320  14.661  0.2823 -1.1815  1.5636
  114CHL1  H21B14676   5.380   0.409  14.810  0.5463  1.1215 -0.7146
  114CHL1  H21C14677   5.292   0.494  14.678  2.2947  0.1693 -0.2371
  114CHL1   C2214678   5.054   0.321  14.680 -0.1279 -0.0602 -0.9765
  114CHL1  H22A14679   4.972   0.281  14.744  1.4377 -1.4805  0.2238
  114CHL1  H22B14680   5.027   0.420  14.637  0.4392 -0.0350 -1.2854
  114CHL1   C2314681   5.070   0.226  14.571 -0.3372 -0.1215  0.2885
  114CHL1  H23A14682   5.162   0.255  14.516 -1.1866  0.5810 -0.7816
  114CHL1  H23B14683   5.094   0.124  14.607 -1.2274 -0.2629  0.5108
  114CHL1   C2414684   4.944   0.225  14.474 -0.7171  0.5787 -0.9869
  114CHL1  H24A14685   4.862   0.202  14.546  0.0489 -1.7403 -0.7843
  114CHL1  H24B14686   4.929   0.318  14.416 -1.6236  1.6025  0.8082
  114CHL1   C2514687   4.946   0.106  14.370 -0.6814 -0.1886  0.1832
  114CHL1   H2514688   4.936   0.005  14.416 -0.0601 -0.2682  0.1452
  114CHL1   C2614689   4.824   0.132  14.293 -0.6705 -0.0722  0.3307
  114CHL1  H26A14690   4.738   0.154  14.360  0.1867  0.0744  1.4042
  114CHL1  H26B14691   4.839   0.216  14.223 -1.9951 -1.2368 -1.4477
  114CHL1  H26C14692   4.794   0.040  14.239  0.0817 -0.5159  0.6438
  114CHL1   C2714693   5.072   0.111  14.277  0.3605  0.5559  0.2004
  114CHL1  H27A14694   5.060   0.192  14.201  1.3669 -0.0865 -0.6705
  114CHL1  H27B14695   5.167   0.131  14.331 -1.1666  1.1853  2.8228
  114CHL1  H27C14696   5.079   0.022  14.211  3.6256  1.0853 -0.3664
  115CHL1    C314697   1.849   1.017  15.637  0.2222  0.3642 -0.7703
  115CHL1    H314698   1.800   0.918  15.652 -0.6999  0.9413  0.1637
  115CHL1    O314699   1.931   1.032  15.754 -0.5132  1.0454 -0.4237
  115CHL1   H3'14700   1.863   1.013  15.819 -2.4742  0.6476 -2.4573
  115CHL1    C414701   1.940   1.006  15.512 -0.4112  0.8854  0.1683
  115CHL1   H4A14702   2.014   1.089  15.513  0.0536  0.5099  2.4928
  115CHL1   H4B14703   1.987   0.907  15.529 -0.8719  0.8047  1.0479
  115CHL1    C514704   1.850   0.998  15.394  0.3592 -0.5539 -0.4571
  115CHL1    C614705   1.851   0.897  15.309  0.0548  0.0137 -0.0000
  115CHL1    H614706   1.908   0.809  15.344  1.9398  1.0282 -0.3902
  115CHL1    C714707   1.771   0.887  15.187  0.1611  0.1981 -0.6924
  115CHL1   H7A14708   1.836   0.856  15.102 -0.4430  1.6200 -1.7146
  115CHL1   H7B14709   1.694   0.808  15.202 -1.3196  1.7439  0.2941
  115CHL1    C814710   1.692   1.017  15.144 -0.4749  0.3998  0.4909
  115CHL1    H814711   1.764   1.074  15.081  0.0387 -1.3812 -0.6228
  115CHL1   C1414712   1.575   0.984  15.049 -0.2365  0.4753  0.1931
  115CHL1   H1414713   1.504   0.919  15.104 -1.0386 -0.4423 -1.8004
  115CHL1   C1514714   1.595   0.895  14.928 -0.0303  0.2447 -0.4211
  115CHL1  H15A14715   1.670   0.939  14.859  0.7391 -0.6401 -0.1881
  115CHL1  H15B14716   1.621   0.791  14.960 -2.1598 -0.3202 -0.4036
  115CHL1   C1614717   1.459   0.890  14.868  0.6834  0.3414 -0.2209
  115CHL1  H16A14718   1.459   0.901  14.757  0.2945  1.5683 -0.1125
  115CHL1  H16B14719   1.400   0.803  14.904  0.5570  1.4638  2.5653
  115CHL1   C1714720   1.378   1.011  14.924 -0.6522 -0.3980 -0.2708
  115CHL1   H1714721   1.309   0.965  14.998  0.2896 -0.5751  0.5143
  115CHL1   C1314722   1.478   1.092  15.008  0.2207  0.2376  0.0084
  115CHL1   C1814723   1.555   1.205  14.929  0.0607  0.0297  0.2866
  115CHL1  H18A14724   1.577   1.158  14.831 -3.8770  1.3042 -1.4107
  115CHL1  H18B14725   1.487   1.284  14.891 -0.2601 -1.4664 -2.4766
  115CHL1  H18C14726   1.645   1.233  14.987  0.6343  0.0382 -0.6047
  115CHL1   C1214727   1.426   1.155  15.139  0.2486  0.2992  0.4017
  115CHL1  H12A14728   1.354   1.234  15.108 -1.9821 -0.3634  3.3350
  115CHL1  H12B14729   1.381   1.070  15.197  1.0799  0.9612  2.0899
  115CHL1   C1114730   1.545   1.208  15.227 -0.7176  0.9241  0.8473
  115CHL1  H11A14731   1.609   1.279  15.170 -0.4808 -1.0430 -1.4671
  115CHL1  H11B14732   1.504   1.263  15.314 -0.9135  0.2833  1.1620
  115CHL1    C914733   1.640   1.089  15.269 -1.1791 -0.1242 -0.2802
  115CHL1    H914734   1.567   1.018  15.315 -3.1932  1.6193 -0.6459
  115CHL1   C1014735   1.750   1.116  15.375 -0.3434  0.5212  0.1872
  115CHL1   C1914736   1.820   1.248  15.337 -0.3778  0.2785 -0.2181
  115CHL1  H19A14737   1.892   1.244  15.253  0.6218  0.5804  0.6072
  115CHL1  H19B14738   1.758   1.338  15.318  1.3763  1.5659 -0.0266
  115CHL1  H19C14739   1.874   1.282  15.428 -1.7847  1.7243  0.1242
  115CHL1    C114740   1.676   1.124  15.504 -0.1393  0.5248 -0.1549
  115CHL1   H1A14741   1.609   1.213  15.500  0.1395  0.6742 -2.5422
  115CHL1   H1B14742   1.612   1.034  15.516 -1.6171  0.8131 -4.3736
  115CHL1    C214743   1.759   1.136  15.632 -0.9073  0.1242 -0.3642
  115CHL1   H2A14744   1.693   1.141  15.722 -0.7252  0.9072 -0.2692
  115CHL1   H2B14745   1.824   1.225  15.623 -1.3495  0.3895 -1.0191
  115CHL1   C2014746   1.284   1.085  14.824 -0.0470  0.3102  0.3944
  115CHL1   H2014747   1.275   1.183  14.876  1.5507 -0.1012  1.5369
  115CHL1   C2114748   1.151   1.015  14.822  0.0825 -0.1074 -0.9661
  115CHL1  H21A14749   1.077   1.059  14.751  0.3883 -1.4227 -2.1447
  115CHL1  H21B14750   1.114   1.002  14.926  3.1013 -1.8905 -0.0063
  115CHL1  H21C14751   1.160   0.917  14.770 -0.2881 -0.8963  0.3965
  115CHL1   C2214752   1.340   1.113  14.682  0.5228  0.3344  0.6650
  115CHL1  H22A14753   1.444   1.150  14.683  0.5414  0.2843  1.8511
  115CHL1  H22B14754   1.334   1.022  14.619 -2.1576  0.7423  0.1934
  115CHL1   C2314755   1.256   1.221  14.611 -0.4577  0.1901  0.4749
  115CHL1  H23A14756   1.288   1.217  14.505  1.9543  1.4155  1.0809
  115CHL1  H23B14757   1.147   1.204  14.626  0.0464 -1.7393  2.4891
  115CHL1   C2414758   1.285   1.361  14.667 -0.2505  0.1478 -0.0903
  115CHL1  H24A14759   1.263   1.370  14.776 -1.3249  1.0796 -0.3612
  115CHL1  H24B14760   1.389   1.384  14.636 -0.3021 -0.5472 -0.8142
  115CHL1   C2514761   1.201   1.475  14.593  0.3064  0.0905 -0.3338
  115CHL1   H2514762   1.206   1.446  14.485 -2.0011 -1.3856 -0.1235
  115CHL1   C2614763   1.057   1.484  14.633  0.0211  0.2500  0.2240
  115CHL1  H26A14764   1.039   1.518  14.737 -1.4307 -2.8812  1.1081
  115CHL1  H26B14765   1.026   1.574  14.575  2.3237  0.2103 -1.1920
  115CHL1  H26C14766   1.003   1.390  14.614 -0.7231  0.9321 -1.1809
  115CHL1   C2714767   1.279   1.604  14.615 -0.1001 -0.3761  0.3355
  115CHL1  H27A14768   1.235   1.689  14.559  0.8113 -0.6694 -0.8515
  115CHL1  H27B14769   1.280   1.632  14.723 -0.4361 -0.6186  0.4045
  115CHL1  H27C14770   1.383   1.602  14.578 -0.1990 -0.3896  0.0598
  116CHL1    C314771   2.757   0.535  15.403  0.5561  0.1334  0.3056
  116CHL1    H314772   2.807   0.631  15.380  1.9366 -0.6667 -0.1753
  116CHL1    O314773   2.765   0.493  15.541  0.1264 -0.1115  0.4363
  116CHL1   H3'14774   2.677   0.476  15.575  0.6740 -0.0728  1.9501
  116CHL1    C414775   2.606   0.563  15.365 -0.6844 -0.0936 -0.2084
  116CHL1   H4A14776   2.549   0.470  15.386 -0.9895  0.2920  0.7358
  116CHL1   H4B14777   2.570   0.637  15.440  1.5420 -0.8654  1.7105
  116CHL1    C514778   2.584   0.610  15.226  0.0188  0.0864  0.2527
  116CHL1    C614779   2.524   0.729  15.198 -0.1592 -0.4441  1.1293
  116CHL1    H614780   2.473   0.779  15.282 -1.8644  0.7744 -0.5600
  116CHL1    C714781   2.494   0.782  15.060 -0.2950 -0.4219  0.0010
  116CHL1   H7A14782   2.387   0.809  15.049 -0.3057 -0.2730  0.4555
  116CHL1   H7B14783   2.557   0.874  15.049  0.2972 -0.9243 -0.9657
  116CHL1    C814784   2.526   0.677  14.951  0.3308  0.7183  0.3155
  116CHL1    H814785   2.454   0.593  14.943  1.1071 -0.1927  2.1019
  116CHL1   C1414786   2.535   0.757  14.822  0.2417 -0.4340 -0.0660
  116CHL1   H1414787   2.617   0.827  14.847 -0.0612 -0.5996  1.4988
  116CHL1   C1514788   2.415   0.840  14.772 -0.1454 -0.4850  0.3220
  116CHL1  H15A14789   2.328   0.778  14.805  1.2513 -1.8883  1.5033
  116CHL1  H15B14790   2.419   0.936  14.826 -0.3686 -0.0174 -0.4733
  116CHL1   C1614791   2.428   0.850  14.620  0.5010  0.7790 -0.3983
  116CHL1  H16A14792   2.333   0.818  14.573 -0.8224  1.5489  1.5871
  116CHL1  H16B14793   2.448   0.957  14.597  1.6999  0.8160  0.6734
  116CHL1   C1714794   2.557   0.778  14.588  1.0013  0.0181  0.6153
  116CHL1   H1714795   2.636   0.855  14.600 -0.6312  1.7139  0.9678
  116CHL1   C1314796   2.572   0.675  14.702 -0.1696 -0.1921 -0.0483
  116CHL1   C1814797   2.467   0.567  14.679 -0.1078  0.5494  0.1946
  116CHL1  H18A14798   2.370   0.604  14.640 -0.8564  0.9352  2.3234
  116CHL1  H18B14799   2.496   0.506  14.590 -1.3607  2.5593 -1.7029
  116CHL1  H18C14800   2.453   0.502  14.767 -2.1163  1.3825  0.5363
  116CHL1   C1214801   2.708   0.607  14.725  0.0798 -0.0524  0.0756
  116CHL1  H12A14802   2.744   0.544  14.640 -0.8612  1.4664 -1.5101
  116CHL1  H12B14803   2.783   0.687  14.740  0.8687 -0.8094  0.2382
  116CHL1   C1114804   2.701   0.525  14.855  0.4670 -0.4709  0.3368
  116CHL1  H11A14805   2.643   0.431  14.844 -0.5815  0.3466 -1.6049
  116CHL1  H11B14806   2.806   0.493  14.870  1.1132  0.2225 -2.2667
  116CHL1    C914807   2.650   0.607  14.981  0.7264 -0.2427 -0.2266
  116CHL1    H914808   2.732   0.682  14.989  1.7463 -1.1476 -1.6038
  116CHL1   C1014809   2.654   0.527  15.121 -0.2808 -0.2580 -0.5599
  116CHL1   C1914810   2.570   0.398  15.105 -0.4039  0.0449 -0.1815
  116CHL1  H19A14811   2.462   0.421  15.097 -0.1406  1.4655  0.1608
  116CHL1  H19B14812   2.597   0.330  15.021  1.0707 -0.5593  0.7404
  116CHL1  H19C14813   2.588   0.332  15.193  0.5321  0.1913 -0.2508
  116CHL1    C114814   2.800   0.497  15.164  0.3140  0.0368 -0.1382
  116CHL1   H1A14815   2.856   0.428  15.097  0.0556 -0.4617  0.1488
  116CHL1   H1B14816   2.857   0.591  15.150  1.1020 -0.4353 -0.2088
  116CHL1    C214817   2.822   0.441  15.304 -0.6345  0.3537  0.4318
  116CHL1   H2A14818   2.930   0.437  15.331 -1.5219  0.0125  4.5644
  116CHL1   H2B14819   2.788   0.335  15.310  2.3199 -0.6752  0.6100
  116CHL1   C2014820   2.558   0.727  14.442  0.4012 -0.3111  0.1442
  116CHL1   H2014821   2.488   0.642  14.434 -1.3615  0.7096  2.9858
  116CHL1   C2114822   2.704   0.688  14.407 -0.2542 -0.1608  0.0715
  116CHL1  H21A14823   2.777   0.761  14.448  0.6556 -0.3563 -1.1509
  116CHL1  H21B14824   2.725   0.670  14.300  0.4674 -3.0630  0.6338
  116CHL1  H21C14825   2.725   0.586  14.445  1.7707  0.3284  0.3988
  116CHL1   C2214826   2.502   0.836  14.346  1.0392  0.1207  0.5423
  116CHL1  H22A14827   2.487   0.779  14.251 -1.0924 -0.0871  0.9560
  116CHL1  H22B14828   2.395   0.862  14.361  0.2125 -2.0589 -0.9626
  116CHL1   C2314829   2.583   0.966  14.327  0.5641 -0.3682 -0.1472
  116CHL1  H23A14830   2.573   1.029  14.419 -3.3714  1.3410 -1.4903
  116CHL1  H23B14831   2.686   0.929  14.309  0.4650 -1.4221  1.2498
  116CHL1   C2414832   2.543   1.058  14.211 -0.5682 -0.6202  0.3198
  116CHL1  H24A14833   2.550   1.000  14.116 -0.3172  0.0573 -0.0791
  116CHL1  H24B14834   2.435   1.077  14.226 -1.1892 -1.3023 -2.5571
  116CHL1   C2514835   2.616   1.193  14.202 -0.2233  0.6110 -0.5128
  116CHL1   H2514836   2.595   1.260  14.288  1.0896  0.6957 -0.2334
  116CHL1   C2614837   2.769   1.173  14.213  0.2257 -0.3788  0.2916
  116CHL1  H26A14838   2.802   1.164  14.319  1.4620 -0.2746 -0.0704
  116CHL1  H26B14839   2.792   1.076  14.164 -0.9884 -0.1879 -0.7053
  116CHL1  H26C14840   2.833   1.251  14.166  0.9813 -1.1487  0.0150
  116CHL1   C2714841   2.576   1.266  14.070  0.2959  0.0494  0.4612
  116CHL1  H27A14842   2.636   1.356  14.046  2.1168 -1.0679  0.6823
  116CHL1  H27B14843   2.597   1.201  13.982  0.2559  1.8993 -0.9901
  116CHL1  H27C14844   2.468   1.292  14.077  0.3649  0.0925  1.4459
  117CHL1    C314845   5.123   1.020  15.728  0.8007 -1.1717 -0.3562
  117CHL1    H314846   5.161   1.124  15.723  0.4203 -1.0602 -1.1456
  117CHL1    O314847   5.122   0.960  15.859  0.5867 -0.2383 -0.4830
  117CHL1   H3'14848   5.109   0.865  15.859  0.4246 -0.2331  1.0157
  117CHL1    C414849   4.982   1.031  15.674 -0.0280 -0.6493  0.0433
  117CHL1   H4A14850   4.941   0.928  15.683 -2.0286  0.1277  0.4712
  117CHL1   H4B14851   4.922   1.095  15.743 -0.8032 -0.5924 -0.6626
  117CHL1    C514852   4.975   1.066  15.527  0.0391 -0.5688  0.0018
  117CHL1    C614853   4.891   1.165  15.481  0.4269  0.2860 -0.3642
  117CHL1    H614854   4.833   1.235  15.542  2.3285  1.0932  0.5937
  117CHL1    C714855   4.873   1.188  15.336  0.1270 -0.3852 -0.1652
  117CHL1   H7A14856   4.766   1.204  15.314 -0.2465 -0.3549  1.5894
  117CHL1   H7B14857   4.926   1.283  15.312 -0.1268 -0.2638 -0.2487
  117CHL1    C814858   4.927   1.074  15.241  0.0151  0.0465  0.1667
  117CHL1    H814859   4.855   0.990  15.246  1.2405 -1.1557 -1.4438
  117CHL1   C1414860   4.927   1.129  15.096 -0.2282 -0.3985 -0.1512
  117CHL1   H1414861   4.993   1.217  15.113  0.6615 -1.0124 -0.3596
  117CHL1   C1514862   4.797   1.171  15.033  0.0005 -0.1968  0.2557
  117CHL1  H15A14863   4.725   1.088  15.047  0.1071 -0.4491 -0.6647
  117CHL1  H15B14864   4.755   1.265  15.075 -2.0761 -1.2402  0.6770
  117CHL1   C1614865   4.824   1.184  14.884 -0.5673  0.5250 -0.1280
  117CHL1  H16A14866   4.754   1.122  14.823 -1.9874 -1.5162  3.2484
  117CHL1  H16B14867   4.821   1.292  14.857 -0.5746  0.8467  1.0938
  117CHL1   C1714868   4.967   1.120  14.869 -0.5697 -0.6004 -0.0275
  117CHL1   H1714869   5.040   1.203  14.879 -1.2321  0.0480 -0.4932
  117CHL1   C1314870   4.987   1.037  14.998 -0.5300  0.0298 -0.4148
  117CHL1   C1814871   4.911   0.900  14.987  0.2515  0.8499 -0.2984
  117CHL1  H18A14872   4.821   0.933  14.931  0.6675  3.2600  0.3568
  117CHL1  H18B14873   4.974   0.824  14.933 -0.3125 -1.0170  1.5402
  117CHL1  H18C14874   4.890   0.861  15.089  1.1332 -2.1506 -1.1546
  117CHL1   C1214875   5.135   1.008  15.037  0.1826 -0.2593 -0.2204
  117CHL1  H12A14876   5.185   0.937  14.967  0.4291 -1.3537  1.0289
  117CHL1  H12B14877   5.196   1.101  15.034  0.2097 -0.2762 -0.1834
  117CHL1   C1114878   5.136   0.943  15.180 -0.0318 -0.7011 -0.2115
  117CHL1  H11A14879   5.093   0.842  15.167  1.2693 -1.1618 -1.2142
  117CHL1  H11B14880   5.242   0.936  15.213  0.2061  2.4261  0.0203
  117CHL1    C914881   5.063   1.027  15.289 -0.1526  0.0927  0.3532
  117CHL1    H914882   5.129   1.117  15.286 -0.1423  0.0772 -0.0139
  117CHL1   C1014883   5.059   0.981  15.431  0.0427 -0.2141  0.0925
  117CHL1   C1914884   5.012   0.833  15.428  0.5846 -0.0929 -0.1186
  117CHL1  H19A14885   5.087   0.771  15.375  1.5966  2.1451 -1.4897
  117CHL1  H19B14886   4.990   0.798  15.531 -2.6154  3.0713  0.4893
  117CHL1  H19C14887   4.913   0.809  15.383  0.8760 -2.8551  0.5718
  117CHL1    C114888   5.200   0.991  15.494  0.6031  0.4204  0.5268
  117CHL1   H1A14889   5.265   0.926  15.431 -1.3816 -0.2544 -0.9279
  117CHL1   H1B14890   5.228   1.098  15.483  3.0059 -0.1779  0.0823
  117CHL1    C214891   5.207   0.934  15.635 -0.3092  0.3970 -0.0518
  117CHL1   H2A14892   5.316   0.934  15.660  0.1781  2.1009 -1.8907
  117CHL1   H2B14893   5.167   0.831  15.630  0.7743 -0.0160 -0.6628
  117CHL1   C2014894   5.003   1.069  14.725 -0.3298 -0.8044 -0.4721
  117CHL1   H2014895   5.101   1.018  14.732 -0.2814 -0.5203  1.1530
  117CHL1   C2114896   5.017   1.188  14.632 -0.3603 -0.8057  0.6826
  117CHL1  H21A14897   5.049   1.157  14.530 -1.4928  1.7263 -0.5454
  117CHL1  H21B14898   5.075   1.276  14.667 -0.5047  0.0860 -1.1893
  117CHL1  H21C14899   4.912   1.223  14.616  0.1529 -0.1425 -1.6557
  117CHL1   C2214900   4.905   0.969  14.660  0.3106 -0.6900 -0.2045
  117CHL1  H22A14901   4.849   0.920  14.742 -1.4942 -0.1946 -1.0989
  117CHL1  H22B14902   4.832   1.019  14.593 -0.7773  0.4547  1.7292
  117CHL1   C2314903   4.969   0.864  14.568  0.1709 -0.5463 -0.0059
  117CHL1  H23A14904   5.031   0.910  14.487 -1.3953  0.4616 -0.6777
  117CHL1  H23B14905   5.013   0.788  14.636 -0.7839 -0.2346  0.9711
  117CHL1   C2414906   4.865   0.790  14.482 -0.1435 -0.7634 -0.1940
  117CHL1  H24A14907   4.789   0.752  14.554 -0.8282  1.0263  0.0882
  117CHL1  H24B14908   4.804   0.856  14.417 -0.2659 -0.3523  0.3277
  117CHL1   C2514909   4.918   0.670  14.391 -0.0622 -0.1546  0.2266
  117CHL1   H2514910   4.998   0.615  14.444 -0.7869 -2.0611 -0.5743
  117CHL1   C2614911   4.810   0.567  14.365 -0.2797 -0.1204  0.8707
  117CHL1  H26A14912   4.800   0.517  14.463 -0.6466 -0.6962  0.5463
  117CHL1  H26B14913   4.727   0.629  14.323  1.4914  0.6298 -1.8041
  117CHL1  H26C14914   4.844   0.498  14.285 -3.7622  1.3188 -2.1854
  117CHL1   C2714915   4.977   0.721  14.258 -0.2976 -0.2022 -0.4451
  117CHL1  H27A14916   5.043   0.654  14.199 -1.4489 -0.4151 -1.5246
  117CHL1  H27B14917   4.898   0.761  14.192 -0.3329  1.0548  0.3221
  117CHL1  H27C14918   5.028   0.818  14.279 -0.0648 -0.0289 -1.7354
  118CHL1    C314919   7.346   0.947  15.933  1.7723 -0.5720  0.6235
  118CHL1    H314920   7.259   0.999  15.978  4.5532  4.2812  1.0530
  118CHL1    O314921   7.418   0.880  16.031 -0.1467  0.2831 -0.0779
  118CHL1   H3'14922   7.474   0.948  16.070 -0.0150  0.2130 -0.1435
  118CHL1    C414923   7.297   0.839  15.840  0.1666  0.6214  0.0639
  118CHL1   H4A14924   7.375   0.765  15.813  1.3861  2.0641 -0.4935
  118CHL1   H4B14925   7.229   0.787  15.911  2.3170 -1.5095  0.7352
  118CHL1    C514926   7.242   0.892  15.715  0.5561 -0.3738 -0.7666
  118CHL1    C614927   7.118   0.858  15.680  0.5175 -0.0211 -0.1552
  118CHL1    H614928   7.061   0.789  15.744  1.2806  1.2307  1.9748
  118CHL1    C714929   7.057   0.894  15.551 -0.0497 -0.4018 -0.3822
  118CHL1   H7A14930   7.004   0.811  15.500 -0.7227  0.1603 -0.6210
  118CHL1   H7B14931   6.974   0.967  15.565  1.7082  1.6162  0.1385
  118CHL1    C814932   7.165   0.948  15.448 -0.3488  0.8351 -0.0529
  118CHL1    H814933   7.227   0.865  15.408 -1.5724 -0.7285  1.1490
  118CHL1   C1414934   7.090   1.022  15.336  0.6559 -0.6569  0.1494
  118CHL1   H1414935   7.036   1.109  15.379 -0.2958 -1.6563  1.0280
  118CHL1   C1514936   6.978   0.945  15.266  0.2360 -0.8799 -0.7762
  118CHL1  H15A14937   7.005   0.838  15.252  1.6491 -0.5422 -0.7669
  118CHL1  H15B14938   6.889   0.949  15.332  1.7423  0.0638  1.3149
  118CHL1   C1614939   6.961   1.010  15.131  0.0113  0.6996  0.3765
  118CHL1  H16A14940   6.991   0.942  15.048  0.2826 -0.0846  1.1083
  118CHL1  H16B14941   6.860   1.052  15.112  0.7546  1.9204 -1.1943
  118CHL1   C1714942   7.061   1.127  15.135  0.2620 -0.3558  0.4692
  118CHL1   H1714943   7.014   1.214  15.186  0.6178  0.1506 -0.0604
  118CHL1   C1314944   7.173   1.082  15.228 -0.4092 -0.4556 -0.3003
  118CHL1   C1814945   7.263   0.975  15.158 -0.6623  0.0771  0.1059
  118CHL1  H18A14946   7.316   1.026  15.075  1.3040 -0.8719  0.7340
  118CHL1  H18B14947   7.341   0.933  15.225 -2.3734 -1.1283  1.4409
  118CHL1  H18C14948   7.203   0.892  15.113 -1.2159  1.3175 -1.5385
  118CHL1   C1214949   7.264   1.181  15.301 -0.4060  0.4377 -0.6154
  118CHL1  H12A14950   7.330   1.243  15.236  0.0418 -0.5113 -1.0857
  118CHL1  H12B14951   7.195   1.252  15.351  0.8083  0.9181  0.4368
  118CHL1   C1114952   7.348   1.119  15.418  0.8977 -0.2651  0.4120
  118CHL1  H11A14953   7.418   1.048  15.369  0.8285 -1.5963  2.1398
  118CHL1  H11B14954   7.415   1.191  15.471  0.3802  1.0532 -0.6735
  118CHL1    C914955   7.258   1.044  15.517 -0.1993  0.4264  0.2635
  118CHL1    H914956   7.191   1.114  15.572 -2.3207 -0.8623 -0.5578
  118CHL1   C1014957   7.336   0.984  15.637 -1.0192 -0.7547  0.0580
  118CHL1   C1914958   7.455   0.899  15.582  0.3263 -0.3003 -0.3448
  118CHL1  H19A14959   7.430   0.838  15.493 -2.9783  2.4861 -1.5541
  118CHL1  H19B14960   7.537   0.966  15.549 -0.2244  0.3578 -0.4252
  118CHL1  H19C14961   7.499   0.833  15.660  1.0607 -0.0104 -0.5111
  118CHL1    C114962   7.392   1.099  15.731 -0.3774  0.6829 -0.3216
  118CHL1   H1A14963   7.481   1.156  15.695 -1.1578  1.3615 -1.2237
  118CHL1   H1B14964   7.304   1.166  15.737 -0.8828  0.2473 -2.3940
  118CHL1    C214965   7.441   1.044  15.865  0.7013 -0.4962 -0.3893
  118CHL1   H2A14966   7.453   1.133  15.930  0.9467  1.3666 -2.8661
  118CHL1   H2B14967   7.535   0.985  15.855  0.7350 -0.5185  0.0326
  118CHL1   C2014968   7.096   1.180  14.991 -0.1899  0.0246 -0.4295
  118CHL1   H2014969   7.176   1.109  14.960  0.4615  0.3822  0.4002
  118CHL1   C2114970   7.160   1.320  15.017 -0.5197  0.4194 -0.3861
  118CHL1  H21A14971   7.182   1.374  14.923  0.5550  0.7404  0.0344
  118CHL1  H21B14972   7.257   1.314  15.070 -1.7841 -0.9551  1.9268
  118CHL1  H21C14973   7.090   1.380  15.079 -0.1093 -0.2146  0.7282
  118CHL1   C2214974   6.990   1.192  14.889 -0.4100  1.4327  0.3871
  118CHL1  H22A14975   7.035   1.223  14.793  1.0086 -1.4957 -0.0075
  118CHL1  H22B14976   6.943   1.093  14.871  0.3048  1.5276 -2.4754
  118CHL1   C2314977   6.871   1.277  14.932  0.0319 -0.0649  0.9399
  118CHL1  H23A14978   6.843   1.253  15.037  0.9029 -1.1066  0.9488
  118CHL1  H23B14979   6.894   1.386  14.926  0.0816 -0.1689 -1.5753
  118CHL1   C2414980   6.756   1.256  14.837 -0.1420  0.0161 -0.2573
  118CHL1  H24A14981   6.802   1.269  14.737  0.0443  2.7853  0.1033
  118CHL1  H24B14982   6.713   1.154  14.847 -0.0580 -0.2068 -1.9626
  118CHL1   C2514983   6.640   1.353  14.858  0.0648  0.5382  0.4936
  118CHL1   H2514984   6.682   1.454  14.841  0.2633  0.6648  1.6392
  118CHL1   C2614985   6.526   1.322  14.755 -0.2794  0.3189 -0.3032
  118CHL1  H26A14986   6.483   1.220  14.763  3.1960 -1.3489 -0.8267
  118CHL1  H26B14987   6.430   1.372  14.781 -0.6051 -1.2317  1.6739
  118CHL1  H26C14988   6.559   1.341  14.650 -0.6239 -0.5544 -0.5733
  118CHL1   C2714989   6.581   1.342  15.002 -0.0740  1.1204 -0.2973
  118CHL1  H27A14990   6.657   1.390  15.067  0.1085  0.1500  0.2079
  118CHL1  H27B14991   6.486   1.397  15.017 -0.1059  0.6902  1.1462
  118CHL1  H27C14992   6.563   1.238  15.035  0.4877  1.0815 -0.0960
  119CHL1    C314993   1.394   7.198  16.151  0.2172  0.1036 -0.7839
  119CHL1    H314994   1.500   7.174  16.176 -0.8007 -3.1293  1.0189
  119CHL1    O314995   1.354   7.190  16.287  0.0088 -0.3751  0.0012
  119CHL1   H3'14996   1.317   7.274  16.317  1.7080 -0.3062  2.0941
  119CHL1    C414997   1.384   7.344  16.103 -0.1922 -1.0648 -1.1959
  119CHL1   H4A14998   1.288   7.386  16.138  0.1363 -0.8820 -0.5007
  119CHL1   H4B14999   1.466   7.400  16.153  0.0925 -1.2413 -1.4634
  119CHL1    C515000   1.394   7.355  15.953  0.2051 -0.4814  0.3758
  119CHL1    C615001   1.481   7.446  15.899 -0.1438 -0.2990 -0.9166
  119CHL1    H615002   1.544   7.507  15.966 -3.3756  0.6550  1.5150
  119CHL1    C715003   1.497   7.469  15.754 -0.1180  0.3518 -0.0071
  119CHL1   H7A15004   1.499   7.576  15.724 -0.7155 -0.2228 -2.3238
  119CHL1   H7B15005   1.582   7.414  15.709 -1.3080 -0.3001 -1.5509
  119CHL1    C815006   1.369   7.418  15.672 -0.0438 -0.2656 -0.2109
  119CHL1    H815007   1.286   7.487  15.698  0.5531  0.2596  0.3644
  119CHL1   C1415008   1.399   7.426  15.523 -0.7093 -0.2999 -0.1446
  119CHL1   H1415009   1.492   7.366  15.517  0.0785  0.5909  2.1797
  119CHL1   C1515010   1.442   7.566  15.467 -0.3154  0.0033  0.0662
  119CHL1  H15A15011   1.354   7.629  15.494  0.9647  1.5622  0.7257
  119CHL1  H15B15012   1.529   7.613  15.517 -0.6615  1.9650 -1.0577
  119CHL1   C1615013   1.452   7.537  15.321 -0.3328  0.5126  0.3845
  119CHL1  H16A15014   1.408   7.621  15.264 -0.1182 -0.0465 -0.6295
  119CHL1  H16B15015   1.555   7.525  15.280 -0.5625  2.4192 -0.8462
  119CHL1   C1715016   1.375   7.403  15.294 -0.5458  0.6498  0.4298
  119CHL1   H1715017   1.455   7.325  15.293 -0.4731  0.7182  0.8559
  119CHL1   C1315018   1.300   7.367  15.424  0.0216 -0.3716  0.0931
  119CHL1   C1815019   1.163   7.450  15.426 -0.9595 -0.2963  1.0477
  119CHL1  H18A15020   1.107   7.441  15.522 -2.1294  0.1615  0.4344
  119CHL1  H18B15021   1.173   7.558  15.405 -0.7225 -0.1794  1.7596
  119CHL1  H18C15022   1.100   7.399  15.350 -1.4363 -1.2592  2.0574
  119CHL1   C1215023   1.276   7.222  15.466  0.3480  0.6814 -0.3482
  119CHL1  H12A15024   1.186   7.183  15.414  0.4437 -2.0414  1.3349
  119CHL1  H12B15025   1.362   7.155  15.446  1.8135  2.0659  0.9994
  119CHL1   C1115026   1.234   7.208  15.618 -0.6790 -0.4088  1.0435
  119CHL1  H11A15027   1.135   7.259  15.618  0.1890  1.7412 -3.0277
  119CHL1  H11B15028   1.237   7.099  15.641  1.4573 -0.7346 -0.4606
  119CHL1    C915029   1.338   7.270  15.713  0.1041 -0.0753 -0.1830
  119CHL1    H915030   1.436   7.223  15.691 -1.0031 -1.8957 -1.4569
  119CHL1   C1015031   1.311   7.256  15.865 -0.6268  0.4613  0.0048
  119CHL1   C1915032   1.164   7.298  15.896  1.3215  0.0142 -0.1313
  119CHL1  H19A15033   1.130   7.395  15.854 -2.9492 -1.5156 -0.7057
  119CHL1  H19B15034   1.100   7.221  15.848 -0.9091  2.5068 -1.3636
  119CHL1  H19C15035   1.145   7.286  16.005  0.9276  0.2610 -0.1712
  119CHL1    C115036   1.343   7.106  15.916 -0.4333 -0.3635 -0.0334
  119CHL1   H1A15037   1.279   7.023  15.880  0.7793 -2.2394  1.8571
  119CHL1   H1B15038   1.446   7.078  15.886 -0.7285  1.4610 -3.1522
  119CHL1    C215039   1.321   7.093  16.066  0.1535  0.0719 -0.4731
  119CHL1   H2A15040   1.349   6.991  16.097  1.5250  0.1367 -1.3915
  119CHL1   H2B15041   1.211   7.106  16.081 -0.0587 -1.5054 -0.5515
  119CHL1   C2015042   1.309   7.401  15.155 -0.6552 -0.4226 -0.1566
  119CHL1   H2015043   1.238   7.486  15.140  1.5522  1.7484  0.9376
  119CHL1   C2115044   1.231   7.272  15.131 -0.0223 -0.6053  0.1898
  119CHL1  H21A15045   1.297   7.183  15.120  0.3299 -0.2762 -0.4880
  119CHL1  H21B15046   1.178   7.286  15.034 -0.7940 -0.1732  0.6699
  119CHL1  H21C15047   1.156   7.251  15.210 -0.4862 -0.0894 -0.1030
  119CHL1   C2215048   1.421   7.424  15.047 -0.0316 -0.4787  0.3405
  119CHL1  H22A15049   1.476   7.521  15.054 -0.4329 -0.2844  0.8792
  119CHL1  H22B15050   1.489   7.337  15.055  0.3550 -0.3942 -1.6334
  119CHL1   C2315051   1.361   7.427  14.903 -0.6100 -0.0275  1.2030
  119CHL1  H23A15052   1.323   7.326  14.875  2.5726 -0.6957 -1.3588
  119CHL1  H23B15053   1.290   7.510  14.884  0.5833  0.7412 -0.0309
  119CHL1   C2415054   1.471   7.471  14.802  0.5891  0.0872 -0.7064
  119CHL1  H24A15055   1.515   7.567  14.834 -1.0567  0.7561 -0.3319
  119CHL1  H24B15056   1.554   7.397  14.803 -0.7414 -1.4837 -0.8633
  119CHL1   C2515057   1.411   7.485  14.663  0.1049  0.6547  0.3779
  119CHL1   H2515058   1.315   7.540  14.665 -0.8169 -0.4452 -3.7779
  119CHL1   C2615059   1.526   7.547  14.573  0.1309 -0.0403  0.1672
  119CHL1  H26A15060   1.485   7.581  14.475 -0.8593  1.8379  1.1799
  119CHL1  H26B15061   1.589   7.623  14.624  2.8214 -0.2990 -2.4307
  119CHL1  H26C15062   1.596   7.462  14.555 -0.5866 -1.2944  2.8823
  119CHL1   C2715063   1.375   7.351  14.597  0.2488 -1.4133  0.2165
  119CHL1  H27A15064   1.310   7.283  14.655 -1.5577 -1.7291 -2.0506
  119CHL1  H27B15065   1.324   7.350  14.499  3.0143 -1.2427 -1.3175
  119CHL1  H27C15066   1.468   7.291  14.583 -1.5711 -4.5989  0.8203
  120CHL1    C315067   6.995   7.144  16.021  0.4564  0.1725  0.1603
  120CHL1    H315068   7.050   7.238  16.003  0.4521 -0.0655 -1.1667
  120CHL1    O315069   6.986   7.132  16.160  0.1738 -0.0067  0.2944
  120CHL1   H3'15070   6.940   7.047  16.164  1.8906 -1.0179 -0.3604
  120CHL1    C415071   6.855   7.155  15.965  0.8161  0.4541  0.6829
  120CHL1   H4A15072   6.794   7.066  15.992  1.1195 -0.1127 -0.4228
  120CHL1   H4B15073   6.811   7.249  16.004 -0.8949 -0.6869  1.6484
  120CHL1    C515074   6.859   7.158  15.818 -0.0022  0.1470  0.5057
  120CHL1    C615075   6.806   7.260  15.749  0.5299 -1.0260  0.2195
  120CHL1    H615076   6.749   7.340  15.800  1.7789  2.0120 -2.7397
  120CHL1    C715077   6.800   7.276  15.598 -0.4323 -0.4415  0.3064
  120CHL1   H7A15078   6.699   7.318  15.580  0.0985  1.5833  1.5865
  120CHL1   H7B15079   6.885   7.340  15.565  1.1091 -1.4656  2.0682
  120CHL1    C815080   6.826   7.140  15.527  0.3087  0.6749 -0.5557
  120CHL1    H815081   6.737   7.075  15.540  2.1210 -1.6012  1.5705
  120CHL1   C1415082   6.845   7.153  15.375  0.5450 -0.3387 -0.0693
  120CHL1   H1415083   6.937   7.216  15.365 -0.4056  0.7898 -2.2507
  120CHL1   C1515084   6.731   7.224  15.307  0.2364 -0.3154  0.3792
  120CHL1  H15A15085   6.629   7.188  15.330 -0.1385  0.7885  0.4956
  120CHL1  H15B15086   6.736   7.333  15.324  0.2857 -0.4636  1.3974
  120CHL1   C1615087   6.752   7.200  15.155 -0.3330  0.3813 -0.0766
  120CHL1  H16A15088   6.660   7.154  15.112  0.1892 -1.2299  0.4763
  120CHL1  H16B15089   6.788   7.285  15.093  0.1066 -0.9218 -1.6691
  120CHL1   C1715090   6.878   7.091  15.145  0.2936 -0.3667 -0.2014
  120CHL1   H1715091   6.970   7.153  15.144  0.6411 -0.8669  0.3113
  120CHL1   C1315092   6.878   7.032  15.291  0.1620 -0.1009  0.0139
  120CHL1   C1815093   6.760   6.934  15.290 -0.1332  0.7489 -0.1580
  120CHL1  H18A15094   6.788   6.847  15.227 -0.1093  0.7787 -0.1885
  120CHL1  H18B15095   6.737   6.905  15.395  1.6026  2.3521  0.7122
  120CHL1  H18C15096   6.671   6.987  15.250  0.1413  1.6237  0.3725
  120CHL1   C1215097   7.015   6.976  15.354 -0.5308 -0.4816 -0.8216
  120CHL1  H12A15098   7.038   6.883  15.298 -1.5409 -0.3930 -1.4204
  120CHL1  H12B15099   7.095   7.051  15.338 -0.8519 -0.3347 -1.8168
  120CHL1   C1115100   7.003   6.948  15.509 -0.3420 -0.5589 -0.0507
  120CHL1  H11A15101   6.928   6.865  15.512 -0.9554 -0.0186 -0.1677
  120CHL1  H11B15102   7.093   6.905  15.556  0.5281  2.1524  0.9432
  120CHL1    C915103   6.947   7.070  15.595 -0.3695  0.1365 -0.3444
  120CHL1    H915104   7.027   7.147  15.593 -2.1754  2.0807 -0.6666
  120CHL1   C1015105   6.930   7.043  15.743  0.6580 -0.5466 -0.7522
  120CHL1   C1915106   6.822   6.934  15.768  0.4141 -0.1566 -0.0147
  120CHL1  H19A15107   6.824   6.896  15.872 -0.6322  0.5874  0.2876
  120CHL1  H19B15108   6.715   6.963  15.766  0.9052  1.8723 -2.9363
  120CHL1  H19C15109   6.826   6.853  15.693 -1.1462 -0.5676  0.3224
  120CHL1    C115110   7.065   7.022  15.808 -0.9622 -0.4227  0.1733
  120CHL1   H1A15111   7.098   6.925  15.765 -0.5665 -0.1586 -0.1346
  120CHL1   H1B15112   7.150   7.086  15.775  0.6871 -2.9575 -0.8391
  120CHL1    C215113   7.074   7.024  15.959 -0.4243  0.6140  0.1667
  120CHL1   H2A15114   7.178   7.026  15.997 -0.7774 -2.6780  1.6233
  120CHL1   H2B15115   7.019   6.933  15.990 -1.3257  0.4531 -1.7530
  120CHL1   C2015116   6.877   6.999  15.024 -0.0359  0.1486  0.2878
  120CHL1   H2015117   6.798   6.922  15.032  0.8969 -0.8522  0.0530
  120CHL1   C2115118   7.017   6.934  15.012  0.4691 -0.2804  0.1890
  120CHL1  H21A15119   7.093   7.010  15.041 -1.1878  1.5813 -0.1255
  120CHL1  H21B15120   7.032   6.907  14.906 -1.4723  2.8329 -1.0234
  120CHL1  H21C15121   7.012   6.844  15.076 -0.6478  0.4932  1.2591
  120CHL1   C2215122   6.850   7.070  14.888 -0.0038 -0.1844 -0.9154
  120CHL1  H22A15123   6.775   7.149  14.910  0.1434 -0.7952  2.2144
  120CHL1  H22B15124   6.938   7.129  14.856 -0.7328  1.1357 -0.5764
  120CHL1   C2315125   6.789   6.977  14.776 -0.1211 -0.0229  0.4023
  120CHL1  H23A15126   6.856   6.889  14.770 -0.6180 -0.3594 -0.3168
  120CHL1  H23B15127   6.684   6.952  14.803  0.0499 -0.1904  0.9363
  120CHL1   C2415128   6.813   7.058  14.641  0.0869 -0.1090  0.0698
  120CHL1  H24A15129   6.747   7.147  14.630  3.8616  2.6538 -3.7953
  120CHL1  H24B15130   6.913   7.106  14.651 -0.0100  0.2824 -0.7186
  120CHL1   C2515131   6.813   6.969  14.511 -0.6238 -0.1507 -0.2361
  120CHL1   H2515132   6.877   6.882  14.536 -1.3135  0.0430  2.5015
  120CHL1   C2615133   6.675   6.909  14.482 -1.2908 -0.3846  0.3839
  120CHL1  H26A15134   6.688   6.848  14.391  0.0688 -0.8530  0.8636
  120CHL1  H26B15135   6.629   6.849  14.564  0.6185 -0.0121  1.7848
  120CHL1  H26C15136   6.610   6.998  14.470  1.3158  1.6335  0.5771
  120CHL1   C2715137   6.879   7.035  14.393  0.3599 -0.9416  0.2794
  120CHL1  H27A15138   6.811   7.108  14.343  3.0230  1.9538  0.5471
  120CHL1  H27B15139   6.963   7.100  14.425 -0.0697  0.2499 -0.8861
  120CHL1  H27C15140   6.910   6.964  14.313 -1.6951 -0.8261 -0.6908
  121CHL1    C315141   4.249   3.569  12.543 -0.0731 -0.1370  0.0101
  121CHL1    H315142   4.239   3.458  12.544  0.1837 -0.1584  0.9362
  121CHL1    O315143   4.301   3.613  12.421 -0.1323  0.1953 -0.2302
  121CHL1   H3'15144   4.282   3.707  12.422  0.2950  0.3169  2.3770
  121CHL1    C415145   4.116   3.627  12.559  0.5684  0.8838 -0.0660
  121CHL1   H4A15146   4.116   3.737  12.573 -1.4426  0.9292 -0.0771
  121CHL1   H4B15147   4.044   3.604  12.478 -0.0983 -1.2476  1.0262
  121CHL1    C515148   4.058   3.583  12.689  0.0191  0.2042  0.1594
  121CHL1    C615149   3.935   3.527  12.691 -0.0093  0.0178 -0.5401
  121CHL1    H615150   3.882   3.511  12.596 -1.0549 -2.0842  0.3403
  121CHL1    C715151   3.856   3.495  12.819  0.1273  0.4929 -0.3998
  121CHL1   H7A15152   3.749   3.525  12.808 -0.5181 -1.8780 -1.2400
  121CHL1   H7B15153   3.861   3.386  12.838  0.4962  0.4584 -0.6828
  121CHL1    C815154   3.921   3.561  12.941 -0.2039 -0.1794 -0.3361
  121CHL1    H815155   3.904   3.670  12.932  1.6857  0.0242 -2.2375
  121CHL1   C1415156   3.867   3.504  13.064  0.2959 -0.2230 -0.0481
  121CHL1   H1415157   3.897   3.397  13.057  0.6258 -0.0743 -1.0980
  121CHL1   C1515158   3.712   3.508  13.084  0.5263  0.2344  0.2461
  121CHL1  H15A15159   3.667   3.607  13.060  3.1500  1.8621  1.5530
  121CHL1  H15B15160   3.673   3.433  13.012  0.2676  2.2168 -1.8129
  121CHL1   C1615161   3.688   3.485  13.232 -0.0757  0.3528 -0.7518
  121CHL1  H16A15162   3.618   3.561  13.274  0.0251  0.2424 -0.3776
  121CHL1  H16B15163   3.632   3.391  13.253 -0.4205  0.7065 -0.0332
  121CHL1   C1715164   3.837   3.476  13.290 -0.1337 -0.1701  0.1112
  121CHL1   H1715165   3.854   3.367  13.287 -0.1666 -0.1542 -1.1366
  121CHL1   C1315166   3.934   3.549  13.193  0.1002 -0.2038 -0.3358
  121CHL1   C1815167   3.915   3.699  13.206 -0.3836  0.3949 -0.4401
  121CHL1  H18A15168   3.971   3.733  13.296  0.3373  0.4087 -0.8859
  121CHL1  H18B15169   3.960   3.745  13.115 -2.0668 -1.7576 -2.4927
  121CHL1  H18C15170   3.806   3.719  13.206 -0.3413  0.6594  0.5353
  121CHL1   C1215171   4.080   3.504  13.190 -0.1947 -0.1188 -0.0820
  121CHL1  H12A15172   4.136   3.536  13.281 -2.1889 -0.4563  1.3219
  121CHL1  H12B15173   4.085   3.395  13.169 -1.0999  0.2435 -2.5751
  121CHL1   C1115174   4.163   3.556  13.070  0.1359  0.2449 -0.2594
  121CHL1  H11A15175   4.200   3.659  13.091  1.9390 -0.4703  0.2732
  121CHL1  H11B15176   4.256   3.495  13.072  0.7215  1.1142 -0.1953
  121CHL1    C915177   4.080   3.532  12.934  0.5207 -0.3480 -0.5129
  121CHL1    H915178   4.092   3.425  12.909 -0.8956 -0.1879 -2.0454
  121CHL1   C1015179   4.140   3.612  12.814  0.6203  0.0180  0.1271
  121CHL1   C1915180   4.147   3.770  12.837  0.1982  0.3883 -0.0092
  121CHL1  H19A15181   4.052   3.809  12.878 -0.1555 -0.3524 -0.1095
  121CHL1  H19B15182   4.227   3.786  12.913 -0.1446 -3.1731  1.2894
  121CHL1  H19C15183   4.178   3.824  12.745  2.4666  2.5567  1.8735
  121CHL1    C115184   4.282   3.557  12.788  0.6001  0.0928  0.0754
  121CHL1   H1A15185   4.349   3.581  12.873 -1.9639 -0.2177  2.3259
  121CHL1   H1B15186   4.279   3.447  12.778 -0.9741  0.2807 -2.4138
  121CHL1    C215187   4.339   3.618  12.657  0.0248  0.2587 -0.1185
  121CHL1   H2A15188   4.445   3.594  12.636 -0.5255 -0.3521 -2.3927
  121CHL1   H2B15189   4.335   3.729  12.660  0.4510  0.2586  1.0419
  121CHL1   C2015190   3.834   3.527  13.434  0.5920  0.1327  0.1877
  121CHL1   H2015191   3.798   3.632  13.433  3.0523  1.0426  0.2964
  121CHL1   C2115192   3.978   3.523  13.493 -0.5640 -0.0003  0.0450
  121CHL1  H21A15193   4.033   3.615  13.465 -1.7488  1.1353  1.2853
  121CHL1  H21B15194   4.045   3.449  13.445 -0.6896  1.4056 -2.4696
  121CHL1  H21C15195   3.977   3.522  13.604 -1.7934  0.9897  0.0661
  121CHL1   C2215196   3.737   3.462  13.541  0.4931 -0.3557  0.1286
  121CHL1  H22A15197   3.751   3.524  13.632 -1.1132  0.6339 -0.2534
  121CHL1  H22B15198   3.633   3.464  13.503  0.7477 -3.2229 -0.9685
  121CHL1   C2315199   3.761   3.317  13.567 -0.2425  0.9117 -0.4395
  121CHL1  H23A15200   3.779   3.256  13.476 -0.4054 -0.0004  0.1291
  121CHL1  H23B15201   3.857   3.320  13.623 -0.6557  1.9797  0.2260
  121CHL1   C2415202   3.656   3.247  13.659 -0.2674 -0.2506  0.1485
  121CHL1  H24A15203   3.705   3.149  13.673  1.0293  0.5678  1.6536
  121CHL1  H24B15204   3.649   3.302  13.756  0.9245  1.0140 -0.4487
  121CHL1   C2515205   3.518   3.215  13.595 -0.7624 -0.3008  0.2635
  121CHL1   H2515206   3.481   3.313  13.560 -1.4823 -0.8296 -0.5075
  121CHL1   C2615207   3.531   3.132  13.469 -0.3704 -0.0984  0.4784
  121CHL1  H26A15208   3.432   3.115  13.421  0.1123  0.1391 -0.6381
  121CHL1  H26B15209   3.594   3.193  13.400  0.4047  0.7928  1.9125
  121CHL1  H26C15210   3.587   3.038  13.484 -0.3332  0.0769  1.5156
  121CHL1   C2715211   3.430   3.140  13.695  0.2103  0.0173  1.3314
  121CHL1  H27A15212   3.470   3.039  13.716  0.4196 -1.4628 -4.5922
  121CHL1  H27B15213   3.425   3.210  13.782  0.2559 -0.8938  2.0850
  121CHL1  H27C15214   3.329   3.120  13.653  0.8069 -1.7586  0.6687
  122CHL1    C315215   2.121   4.307  12.608 -0.3359 -0.0046 -0.4762
  122CHL1    H315216   2.072   4.212  12.581 -1.9591  0.7545 -0.3353
  122CHL1    O315217   2.099   4.396  12.505 -0.1167  0.0486 -0.0092
  122CHL1   H3'15218   2.117   4.485  12.537 -1.2061  0.3194 -0.1123
  122CHL1    C415219   2.054   4.360  12.739  0.6370  0.5614  0.1036
  122CHL1   H4A15220   2.103   4.458  12.760 -0.5637  1.2426 -0.1450
  122CHL1   H4B15221   1.946   4.368  12.712  0.7554  2.0776 -0.0022
  122CHL1    C515222   2.094   4.261  12.846  0.1553 -0.6602 -0.1950
  122CHL1    C615223   1.993   4.208  12.920 -0.3601  0.3618  0.0134
  122CHL1    H615224   1.888   4.238  12.907 -0.0604  1.5928  0.3264
  122CHL1    C715225   2.021   4.105  13.027  0.7368 -0.0801  0.5646
  122CHL1   H7A15226   1.953   4.108  13.115 -0.7623 -0.5699 -0.5145
  122CHL1   H7B15227   2.000   4.004  12.986 -0.2699  0.2373  0.2618
  122CHL1    C815228   2.167   4.102  13.076  0.7547 -1.2064 -0.2684
  122CHL1    H815229   2.198   4.187  13.140  1.4134 -1.7035  0.0925
  122CHL1   C1415230   2.188   3.970  13.157 -0.3133 -0.3579 -0.2640
  122CHL1   H1415231   2.167   3.888  13.084  1.5907 -0.7500 -0.4159
  122CHL1   C1515232   2.093   3.950  13.279  0.4683 -0.3249 -0.0920
  122CHL1  H15A15233   2.103   4.049  13.328  1.0459  0.3530 -1.5331
  122CHL1  H15B15234   1.986   3.933  13.253  0.8145 -1.2605 -0.9593
  122CHL1   C1615235   2.162   3.836  13.357 -0.6122  0.2552 -0.7183
  122CHL1  H16A15236   2.155   3.853  13.467 -0.9853 -1.0445 -0.5286
  122CHL1  H16B15237   2.112   3.739  13.336 -0.7157  0.5041 -1.6325
  122CHL1   C1715238   2.309   3.824  13.300  0.2106 -0.4733  0.3656
  122CHL1   H1715239   2.304   3.747  13.220 -0.6431  2.4502 -2.6337
  122CHL1   C1315240   2.328   3.955  13.214 -0.6921  0.6399 -0.3741
  122CHL1   C1815241   2.367   4.071  13.308  0.5084 -0.3866  0.4491
  122CHL1  H18A15242   2.471   4.054  13.343  0.6113 -1.3220 -0.2679
  122CHL1  H18B15243   2.357   4.172  13.263 -1.1950  0.1610  1.8970
  122CHL1  H18C15244   2.305   4.058  13.400  1.3335 -0.9580  0.9383
  122CHL1   C1215245   2.419   3.945  13.093 -0.3474 -1.0096 -0.2282
  122CHL1  H12A15246   2.527   3.939  13.119 -0.3959 -0.1064  0.2330
  122CHL1  H12B15247   2.392   3.851  13.041  0.4834 -1.4660  0.1404
  122CHL1   C1115248   2.407   4.069  13.000 -0.3218  0.1417  0.2032
  122CHL1  H11A15249   2.460   4.155  13.046 -1.1219  1.1690 -0.7496
  122CHL1  H11B15250   2.457   4.038  12.906 -1.6291 -0.0957 -0.4330
  122CHL1    C915251   2.263   4.102  12.958  0.4396 -0.6425  0.0871
  122CHL1    H915252   2.225   4.022  12.891  0.9967  0.3699 -1.5049
  122CHL1   C1015253   2.249   4.229  12.866  0.6178 -0.5803 -0.2234
  122CHL1   C1915254   2.321   4.347  12.930 -0.1067  0.5778  0.2822
  122CHL1  H19A15255   2.295   4.359  13.038  0.3148 -0.0959  0.4698
  122CHL1  H19B15256   2.431   4.330  12.934 -0.3463 -0.9453  1.8470
  122CHL1  H19C15257   2.294   4.444  12.883 -1.4828  0.7741  1.3935
  122CHL1    C115258   2.312   4.197  12.731  0.4719  0.1040  0.3819
  122CHL1   H1A15259   2.422   4.179  12.727  0.2180 -1.4420  0.0407
  122CHL1   H1B15260   2.265   4.105  12.692  2.1443 -1.0723  1.0500
  122CHL1    C215261   2.273   4.294  12.621  0.1259 -0.3433  0.0266
  122CHL1   H2A15262   2.318   4.266  12.524 -0.4160  0.6065 -0.5104
  122CHL1   H2B15263   2.320   4.390  12.653 -0.0534  0.2303 -1.3909
  122CHL1   C2015264   2.406   3.789  13.412 -0.3710  0.2947 -0.0884
  122CHL1   H2015265   2.423   3.878  13.477  2.9562 -0.3923  0.1786
  122CHL1   C2115266   2.537   3.743  13.350  0.4344  0.1404  0.3605
  122CHL1  H21A15267   2.594   3.818  13.291  1.4127 -1.5896 -1.0012
  122CHL1  H21B15268   2.506   3.671  13.272  2.0677  0.3666 -0.5391
  122CHL1  H21C15269   2.609   3.697  13.421 -0.0871  0.7731  1.3191
  122CHL1   C2215270   2.369   3.661  13.497  0.0891  1.3261 -0.0865
  122CHL1  H22A15271   2.265   3.676  13.535  0.0161  0.2144  0.1956
  122CHL1  H22B15272   2.380   3.566  13.439  0.1586 -0.0770  2.1320
  122CHL1   C2315273   2.461   3.627  13.620  0.7464 -0.6713  0.9808
  122CHL1  H23A15274   2.559   3.594  13.581  1.6093  1.7434  0.9993
  122CHL1  H23B15275   2.464   3.726  13.671 -0.6498  2.0759 -3.6607
  122CHL1   C2415276   2.396   3.529  13.713  0.3294  0.1991 -0.0400
  122CHL1  H24A15277   2.311   3.575  13.767 -1.1650 -0.7610 -1.4931
  122CHL1  H24B15278   2.343   3.442  13.670  0.4368 -0.2531  0.7297
  122CHL1   C2515279   2.491   3.476  13.820  0.1106  0.1312  0.0996
  122CHL1   H2515280   2.538   3.557  13.880  0.1008 -0.0682  0.3768
  122CHL1   C2615281   2.410   3.394  13.928  0.0978 -0.9753  0.8446
  122CHL1  H26A15282   2.323   3.453  13.964  0.3309 -0.8199  1.1604
  122CHL1  H26B15283   2.385   3.290  13.896 -2.1771 -0.2858  0.1306
  122CHL1  H26C15284   2.479   3.376  14.012  2.3688 -1.7970 -1.0856
  122CHL1   C2715285   2.614   3.398  13.779 -0.0134 -0.0719 -0.1736
  122CHL1  H27A15286   2.662   3.356  13.870 -2.3505  0.3926  1.3626
  122CHL1  H27B15287   2.576   3.315  13.716  0.0133 -0.7095  0.6278
  122CHL1  H27C15288   2.685   3.463  13.725  2.1810  0.7314  3.3380
  123CHL1    C315289   5.144   4.718  12.559  0.0987  0.1055 -0.4029
  123CHL1    H315290   5.097   4.617  12.558 -0.7693  0.4972 -0.1495
  123CHL1    O315291   5.191   4.757  12.434  0.6590 -0.4245 -0.2144
  123CHL1   H3'15292   5.118   4.789  12.381 -0.2316  0.1441  1.3044
  123CHL1    C415293   5.035   4.811  12.613  0.1558 -0.3409 -0.5828
  123CHL1   H4A15294   5.074   4.915  12.602  0.5737 -0.5889 -1.5432
  123CHL1   H4B15295   4.949   4.799  12.543 -1.8607 -0.9206  1.8562
  123CHL1    C515296   4.994   4.793  12.759  0.1949 -0.4748 -0.0573
  123CHL1    C615297   4.863   4.774  12.785  0.3324 -0.2918  0.5232
  123CHL1    H615298   4.788   4.778  12.705 -1.6645 -3.2897  2.0678
  123CHL1    C715299   4.814   4.732  12.918 -0.2157 -0.3149 -0.6214
  123CHL1   H7A15300   4.722   4.790  12.938 -0.6859 -0.9406 -0.9554
  123CHL1   H7B15301   4.795   4.624  12.903  1.5734 -0.3820 -3.2644
  123CHL1    C815302   4.917   4.738  13.029 -0.0305 -0.0522 -0.6911
  123CHL1    H815303   4.930   4.842  13.066 -1.0417  0.0137 -0.4927
  123CHL1   C1415304   4.868   4.656  13.148  0.2847 -0.1898 -0.6085
  123CHL1   H1415305   4.864   4.548  13.122  0.9696 -0.0629 -1.2718
  123CHL1   C1515306   4.728   4.686  13.207 -0.8926  0.0998 -0.7538
  123CHL1  H15A15307   4.727   4.797  13.218 -0.8111 -0.0250  0.7924
  123CHL1  H15B15308   4.641   4.664  13.143 -2.0008  3.7312 -0.7233
  123CHL1   C1615309   4.731   4.605  13.340 -0.0876  0.1858 -0.0087
  123CHL1  H16A15310   4.687   4.684  13.405 -1.0197  1.6578 -2.3043
  123CHL1  H16B15311   4.669   4.513  13.328 -2.0062  1.5863 -1.6464
  123CHL1   C1715312   4.882   4.577  13.375 -0.1368  0.7182 -0.3674
  123CHL1   H1715313   4.895   4.468  13.363 -3.0019  0.3178 -0.5792
  123CHL1   C1315314   4.966   4.655  13.275 -0.1751 -0.9601 -0.1717
  123CHL1   C1815315   4.990   4.799  13.329  0.5819  0.5283  0.7537
  123CHL1  H18A15316   5.032   4.874  13.259 -0.9240 -0.4007 -1.2682
  123CHL1  H18B15317   4.895   4.844  13.365 -0.9820 -1.0672 -1.1111
  123CHL1  H18C15318   5.059   4.803  13.415  0.1663  0.0340  1.1189
  123CHL1   C1215319   5.102   4.597  13.226  0.2033  0.4635 -0.8466
  123CHL1  H12A15320   5.172   4.585  13.312  1.1331 -1.8622 -1.8276
  123CHL1  H12B15321   5.075   4.492  13.201 -1.3775  0.2329  1.4640
  123CHL1   C1115322   5.160   4.683  13.106  0.0343  0.8385 -0.3197
  123CHL1  H11A15323   5.203   4.779  13.142  1.2647  0.6311 -1.1758
  123CHL1  H11B15324   5.240   4.619  13.065 -1.5271 -1.7758  0.4633
  123CHL1    C915325   5.059   4.689  12.986  0.7522 -0.5017 -0.6175
  123CHL1    H915326   5.035   4.588  12.947 -1.4166 -0.2470 -0.0685
  123CHL1   C1015327   5.111   4.759  12.858  0.4999  0.5668  0.7274
  123CHL1   C1915328   5.185   4.892  12.896 -0.0960 -0.4507  0.5827
  123CHL1  H19A15329   5.227   4.942  12.806 -0.6593  1.0383  1.1143
  123CHL1  H19B15330   5.126   4.972  12.945  0.6303  0.3419  0.1862
  123CHL1  H19C15331   5.258   4.871  12.977 -0.2888  0.3205  0.9667
  123CHL1    C115332   5.206   4.655  12.786 -0.0912  0.2551 -0.3380
  123CHL1   H1A15333   5.297   4.654  12.850 -0.8058  2.6259  0.8571
  123CHL1   H1B15334   5.163   4.553  12.774 -1.4787  0.7664 -0.0102
  123CHL1    C215335   5.260   4.706  12.656 -0.4826  0.1608 -0.0051
  123CHL1   H2A15336   5.337   4.636  12.617 -0.4236 -0.4019  1.0823
  123CHL1   H2B15337   5.301   4.809  12.666 -1.4399  0.6857 -1.2047
  123CHL1   C2015338   4.918   4.586  13.525  0.3784 -0.9802 -0.1574
  123CHL1   H2015339   4.920   4.693  13.553  1.7120 -1.4029  1.5070
  123CHL1   C2115340   5.055   4.528  13.552 -0.1782  0.6306  0.2021
  123CHL1  H21A15341   5.087   4.512  13.657  0.1430 -1.4468 -0.1799
  123CHL1  H21B15342   5.134   4.591  13.505  0.1387  0.9230  1.1046
  123CHL1  H21C15343   5.065   4.430  13.502  1.3510  0.5303  0.6516
  123CHL1   C2215344   4.813   4.522  13.620 -0.2829  0.2176 -0.3185
  123CHL1  H22A15345   4.710   4.561  13.605 -0.4361 -0.0816 -0.0554
  123CHL1  H22B15346   4.804   4.414  13.597 -2.1916  0.5246 -1.1858
  123CHL1   C2315347   4.831   4.524  13.769 -0.1958 -0.1983 -0.4138
  123CHL1  H23A15348   4.927   4.472  13.791  1.0658  1.4785 -1.6133
  123CHL1  H23B15349   4.847   4.632  13.792 -1.2053  0.0003 -0.5986
  123CHL1   C2415350   4.721   4.463  13.859 -0.1900  0.1112  0.1921
  123CHL1  H24A15351   4.626   4.508  13.824 -0.5999 -1.8054 -1.2673
  123CHL1  H24B15352   4.703   4.354  13.849  0.5805  0.1296 -1.6773
  123CHL1   C2515353   4.744   4.498  14.010 -0.5918 -0.3697  0.4412
  123CHL1   H2515354   4.737   4.609  14.020 -1.6042 -0.0114 -2.9197
  123CHL1   C2615355   4.635   4.450  14.102  0.2446  0.9127 -0.0055
  123CHL1  H26A15356   4.529   4.470  14.075 -0.3724 -0.1232  1.5280
  123CHL1  H26B15357   4.650   4.340  14.105 -0.9195  0.7640  1.3960
  123CHL1  H26C15358   4.650   4.490  14.205 -1.6567 -1.5029  1.2995
  123CHL1   C2715359   4.872   4.453  14.062 -0.0192  0.6483  0.3563
  123CHL1  H27A15360   4.874   4.461  14.173 -3.2805  1.4821  0.4596
  123CHL1  H27B15361   4.880   4.344  14.047 -0.5110  0.6305  0.1887
  123CHL1  H27C15362   4.961   4.502  14.019  3.7893 -4.0684  2.0338
  124CHL1    C315363   3.994   4.616  12.874  0.4772  0.4093 -0.4833
  124CHL1    H315364   4.065   4.701  12.876  1.2690 -0.2509  0.9010
  124CHL1    O315365   3.951   4.593  12.743  0.1084 -0.5710  0.6787
  124CHL1   H3'15366   3.884   4.657  12.717  0.4875 -0.7644 -0.8198
  124CHL1    C415367   4.074   4.492  12.916  0.5062 -0.7403 -0.4040
  124CHL1   H4A15368   4.008   4.404  12.909  0.4531 -0.6652 -0.8923
  124CHL1   H4B15369   4.158   4.466  12.847  2.1312 -2.3347  2.0304
  124CHL1    C515370   4.127   4.505  13.057  0.1438  0.0731  0.7879
  124CHL1    C615371   4.253   4.497  13.097  0.9376 -0.3682  0.1133
  124CHL1    H615372   4.328   4.476  13.018  0.1485 -0.2425 -0.6888
  124CHL1    C715373   4.308   4.494  13.231  0.1110 -0.2096 -0.3604
  124CHL1   H7A15374   4.367   4.401  13.243 -1.1035 -0.9285  0.2393
  124CHL1   H7B15375   4.371   4.585  13.242  0.1411  0.2353 -3.4000
  124CHL1    C815376   4.202   4.488  13.340  0.3624  0.0721  0.9538
  124CHL1    H815377   4.158   4.386  13.349 -1.1291  0.5421 -0.4751
  124CHL1   C1415378   4.257   4.547  13.467  0.1849 -0.4170 -0.3047
  124CHL1   H1415379   4.277   4.651  13.434 -1.2793 -0.4538 -1.4349
  124CHL1   C1515380   4.384   4.493  13.535 -0.0675 -0.3377  0.6828
  124CHL1  H15A15381   4.382   4.382  13.537  3.0922 -0.4646  2.7002
  124CHL1  H15B15382   4.475   4.531  13.485 -0.7149  0.4916  0.1084
  124CHL1   C1615383   4.379   4.542  13.676 -0.2683  0.1143 -0.5550
  124CHL1  H16A15384   4.389   4.457  13.746  2.7526  0.2286 -0.7306
  124CHL1  H16B15385   4.463   4.612  13.697  0.3396 -0.9252  0.5984
  124CHL1   C1715386   4.247   4.619  13.701  0.0980 -0.2569 -0.0660
  124CHL1   H1715387   4.258   4.728  13.684 -0.5319 -0.1658  0.0765
  124CHL1   C1315388   4.158   4.559  13.586 -0.0736 -0.1106 -0.4021
  124CHL1   C1815389   4.111   4.414  13.631  0.0179 -0.3229 -0.0432
  124CHL1  H18A15390   4.071   4.365  13.540  1.5171  1.3289 -1.6728
  124CHL1  H18B15391   4.184   4.355  13.690  0.2144 -1.4556 -1.3594
  124CHL1  H18C15392   4.028   4.420  13.704  0.9967  0.5497  1.0302
  124CHL1   C1215393   4.040   4.651  13.546 -0.2420 -0.8883  0.6283
  124CHL1  H12A15394   3.957   4.660  13.619 -0.6820  3.4199 -0.1522
  124CHL1  H12B15395   4.081   4.752  13.522 -1.6851 -0.4043  0.1394
  124CHL1   C1115396   3.978   4.593  13.418  0.4870 -0.4213  0.1836
  124CHL1  H11A15397   3.924   4.501  13.448 -0.4743  0.3784  0.9659
  124CHL1  H11B15398   3.897   4.662  13.385 -0.2173 -0.7790  1.1087
  124CHL1    C915399   4.081   4.575  13.299  0.3945 -0.3526  0.0134
  124CHL1    H915400   4.126   4.675  13.286  1.2885 -0.8601 -0.9473
  124CHL1   C1015401   4.019   4.536  13.165 -0.2951  0.0961 -0.0984
  124CHL1   C1915402   3.937   4.407  13.182 -0.3602 -0.5623 -0.6085
  124CHL1  H19A15403   3.882   4.365  13.095 -2.2419 -2.1112  1.2155
  124CHL1  H19B15404   4.006   4.329  13.222 -1.2444  0.1636  2.6916
  124CHL1  H19C15405   3.849   4.415  13.249 -1.8134 -0.5055 -2.4565
  124CHL1    C115406   3.928   4.651  13.117  0.1120  0.7630  0.4426
  124CHL1   H1A15407   3.849   4.670  13.193 -0.5218  2.2337 -0.5307
  124CHL1   H1B15408   3.988   4.744  13.126 -0.2141  0.9847  0.3707
  124CHL1    C215409   3.877   4.637  12.971  0.2694 -0.4624 -0.4070
  124CHL1   H2A15410   3.832   4.735  12.945 -0.0266 -0.8372 -1.3929
  124CHL1   H2B15411   3.797   4.560  12.978  0.9853 -1.0360  2.3150
  124CHL1   C2015412   4.198   4.603  13.848 -0.3161  0.0471 -0.1900
  124CHL1   H2015413   4.185   4.496  13.875  0.7137  0.2742  1.3868
  124CHL1   C2115414   4.066   4.672  13.873 -0.2789  0.3762  0.0881
  124CHL1  H21A15415   4.053   4.771  13.824 -0.1777  0.7118  0.7188
  124CHL1  H21B15416   4.059   4.683  13.984  0.1160 -0.7705  0.2415
  124CHL1  H21C15417   3.977   4.609  13.855  0.1029 -0.2315  0.2839
  124CHL1   C2215418   4.316   4.648  13.947  0.4765  0.0425  0.0519
  124CHL1  H22A15419   4.273   4.640  14.049  0.1670  1.1251  0.0217
  124CHL1  H22B15420   4.402   4.577  13.944  0.4037 -0.0331 -0.3283
  124CHL1   C2315421   4.379   4.785  13.924  0.0045  0.6624 -0.0426
  124CHL1  H23A15422   4.427   4.771  13.825  2.2497 -4.4127  1.4357
  124CHL1  H23B15423   4.304   4.867  13.927 -0.3091  0.3382  2.3110
  124CHL1   C2415424   4.497   4.817  14.021  0.4038  0.0573 -0.6343
  124CHL1  H24A15425   4.458   4.848  14.120 -0.5092  1.5248 -1.4100
  124CHL1  H24B15426   4.561   4.730  14.045  0.9756  0.5261 -0.4171
  124CHL1   C2515427   4.594   4.930  13.974 -0.3477  0.2656 -0.7471
  124CHL1   H2515428   4.526   5.007  13.931  0.4106  1.1104 -0.4714
  124CHL1   C2615429   4.683   4.977  14.087  0.1245  0.2166  0.3745
  124CHL1  H26A15430   4.763   5.049  14.059 -1.0813  2.3794  2.1785
  124CHL1  H26B15431   4.613   5.026  14.159  0.0521 -1.5569  1.5919
  124CHL1  H26C15432   4.732   4.892  14.140  0.2604 -0.2213 -0.4393
  124CHL1   C2715433   4.675   4.893  13.850  0.2312  0.0092 -0.5537
  124CHL1  H27A15434   4.608   4.841  13.778 -0.7273  0.7961 -0.2642
  124CHL1  H27B15435   4.725   4.984  13.811 -1.5807  1.7753  1.0033
  124CHL1  H27C15436   4.751   4.818  13.879 -0.0206 -0.5896 -1.3842
  125CHL1    C315437   4.300   4.703  12.610 -0.9861  0.0102 -0.3001
  125CHL1    H315438   4.230   4.626  12.650  0.6008 -1.3083  0.0718
  125CHL1    O315439   4.335   4.660  12.481  0.3006  0.8381  0.0976
  125CHL1   H3'15440   4.399   4.724  12.449  0.9585 -0.7288 -1.9440
  125CHL1    C415441   4.228   4.843  12.616  0.0345  0.3305 -0.6409
  125CHL1   H4A15442   4.294   4.908  12.554 -1.8122  0.6805 -2.3269
  125CHL1   H4B15443   4.131   4.851  12.563 -1.3765  0.7584  1.8322
  125CHL1    C515444   4.215   4.897  12.760 -0.7240 -0.3542  0.0588
  125CHL1    C615445   4.102   4.958  12.796 -0.4532  0.7135 -0.4329
  125CHL1    H615446   4.024   4.977  12.721 -0.5233 -0.1213 -0.5826
  125CHL1    C715447   4.080   5.012  12.938  0.6474  0.8847  0.1054
  125CHL1   H7A15448   4.044   5.117  12.933  1.8312  1.2698 -0.7318
  125CHL1   H7B15449   4.013   4.946  12.997  2.6099 -0.3163  1.0853
  125CHL1    C815450   4.208   5.022  13.018  0.3164 -0.7997 -0.4804
  125CHL1    H815451   4.258   5.115  12.984  1.8527 -1.7179 -0.8276
  125CHL1   C1415452   4.177   5.039  13.166  0.2404 -0.0862 -0.3698
  125CHL1   H1415453   4.120   4.947  13.189  0.5308 -0.5654 -1.5188
  125CHL1   C1515454   4.079   5.153  13.210  0.3908  0.9175  1.1484
  125CHL1  H15A15455   4.104   5.250  13.161 -1.5850  0.8816 -0.0358
  125CHL1  H15B15456   3.978   5.124  13.177  0.4714 -0.8360  2.3285
  125CHL1   C1615457   4.109   5.172  13.360  0.1574  0.2671  0.0287
  125CHL1  H16A15458   4.139   5.276  13.386  3.3329 -0.7235  0.7896
  125CHL1  H16B15459   4.017   5.142  13.416  0.4588 -0.2344  0.2705
  125CHL1   C1715460   4.228   5.076  13.392  0.0837 -0.1437  0.1179
  125CHL1   H1715461   4.177   4.981  13.419  0.7548 -0.5015  0.1688
  125CHL1   C1315462   4.306   5.047  13.260 -0.1229  0.5089  0.4410
  125CHL1   C1815463   4.397   5.163  13.220  0.0717  0.4054  0.3952
  125CHL1  H18A15464   4.432   5.153  13.115  1.1955 -1.1332  0.8895
  125CHL1  H18B15465   4.342   5.260  13.219 -3.3144 -1.3411  2.2893
  125CHL1  H18C15466   4.486   5.182  13.284  0.4004  2.3936 -0.5563
  125CHL1   C1215467   4.374   4.904  13.236 -0.5694 -0.4881  0.2392
  125CHL1  H12A15468   4.466   4.896  13.298 -1.5322 -1.4896  1.6043
  125CHL1  H12B15469   4.314   4.820  13.278  0.5986 -1.4083  0.1146
  125CHL1   C1115470   4.416   4.887  13.088 -0.4723 -0.1095  0.1206
  125CHL1  H11A15471   4.497   4.960  13.064 -0.2805  0.3416  1.9708
  125CHL1  H11B15472   4.470   4.790  13.081  0.3150  0.3751 -0.9227
  125CHL1    C915473   4.290   4.896  12.996 -0.4821  0.3652  0.0494
  125CHL1    H915474   4.224   4.811  13.023  0.7490 -0.5220  0.3892
  125CHL1   C1015475   4.339   4.873  12.853 -0.0390  0.3554  0.1241
  125CHL1   C1915476   4.445   4.980  12.824  0.0286 -0.0232  0.8930
  125CHL1  H19A15477   4.457   4.984  12.714 -0.4781  1.4553  0.8721
  125CHL1  H19B15478   4.432   5.081  12.866 -0.6393 -0.0540  0.7680
  125CHL1  H19C15479   4.544   4.946  12.864  1.5593  0.6398 -2.0560
  125CHL1    C115480   4.390   4.728  12.840 -0.1934 -0.1683 -0.4818
  125CHL1   H1A15481   4.481   4.710  12.902 -0.0107 -0.2812 -0.7786
  125CHL1   H1B15482   4.323   4.655  12.890 -1.0532  0.2937 -0.9459
  125CHL1    C215483   4.426   4.691  12.700  0.7709  0.1982  0.5761
  125CHL1   H2A15484   4.467   4.588  12.694 -1.6195 -0.8022  0.1751
  125CHL1   H2B15485   4.507   4.753  12.656 -0.2506  1.7024  0.7458
  125CHL1   C2015486   4.304   5.132  13.516  0.6277  0.0163 -0.5278
  125CHL1   H2015487   4.362   5.224  13.491  1.9704 -0.1860  1.6490
  125CHL1   C2115488   4.410   5.032  13.561  0.2982  0.4962  0.1636
  125CHL1  H21A15489   4.458   5.062  13.657  1.0537  2.5645 -0.7959
  125CHL1  H21B15490   4.498   5.045  13.495 -0.1702  0.1904 -0.5255
  125CHL1  H21C15491   4.376   4.926  13.559 -0.0855  0.5411  2.0813
  125CHL1   C2215492   4.212   5.167  13.640 -0.0998  0.0458 -0.9705
  125CHL1  H22A15493   4.287   5.170  13.722  1.0391 -1.4110 -1.9153
  125CHL1  H22B15494   4.157   5.264  13.635  0.6313  0.4342 -1.6060
  125CHL1   C2315495   4.117   5.058  13.692 -0.0399  0.6766  0.3095
  125CHL1  H23A15496   4.036   5.042  13.618  1.0805  0.0605 -0.8209
  125CHL1  H23B15497   4.163   4.958  13.704  0.5785  0.7670 -1.0458
  125CHL1   C2415498   4.059   5.094  13.829  0.3143 -0.0460 -0.3581
  125CHL1  H24A15499   4.002   5.009  13.872 -0.1382 -0.4129 -1.6493
  125CHL1  H24B15500   4.136   5.115  13.906 -1.5665  1.7038  1.1927
  125CHL1   C2515501   3.961   5.208  13.832  0.8807  0.2113  0.0495
  125CHL1   H2515502   4.015   5.295  13.789  1.4992 -0.5547 -0.7801
  125CHL1   C2615503   3.830   5.191  13.758 -0.5582  0.4477  0.4885
  125CHL1  H26A15504   3.759   5.276  13.767  0.5398  1.4688 -0.3123
  125CHL1  H26B15505   3.860   5.179  13.651 -0.5489  1.9484  0.3037
  125CHL1  H26C15506   3.769   5.103  13.789 -0.3682  0.5259  1.0753
  125CHL1   C2715507   3.924   5.233  13.976 -0.2436  0.0255 -0.0651
  125CHL1  H27A15508   3.875   5.332  13.990 -2.8970 -1.2491  0.2054
  125CHL1  H27B15509   3.861   5.157  14.025 -1.3041  1.7513  1.3585
  125CHL1  H27C15510   4.018   5.223  14.035 -0.3618  0.4117  0.1876
  126CHL1    C315511   3.063   4.906  12.806  0.3959  0.1553  0.2591
  126CHL1    H315512   2.952   4.918  12.802  0.7368  4.5906 -0.1623
  126CHL1    O315513   3.116   4.953  12.685 -0.4607 -0.4911  0.0307
  126CHL1   H3'15514   3.064   5.034  12.680  0.8601  0.6041  2.3563
  126CHL1    C415515   3.116   4.996  12.908  0.2354  0.2673 -0.7579
  126CHL1   H4A15516   3.227   5.004  12.918  0.0913 -0.4719  2.5097
  126CHL1   H4B15517   3.070   5.097  12.905 -0.5349  0.2803  3.8501
  126CHL1    C515518   3.065   4.951  13.048 -0.0893 -0.3069 -0.0929
  126CHL1    C615519   2.997   5.034  13.130  0.2185 -0.2587 -0.4148
  126CHL1    H615520   2.967   5.138  13.111 -3.0617 -0.2746  3.1985
  126CHL1    C715521   2.933   4.984  13.259  0.0159  0.3562  0.0474
  126CHL1   H7A15522   2.922   5.066  13.333 -2.9387 -1.0309  1.3360
  126CHL1   H7B15523   2.827   4.961  13.232  0.3369 -0.4471 -0.5584
  126CHL1    C815524   2.996   4.853  13.317  0.5552  0.1322  0.7447
  126CHL1    H815525   3.097   4.882  13.352  0.7869 -0.2950  0.4444
  126CHL1   C1415526   2.911   4.796  13.432 -0.4120 -0.1159  0.6840
  126CHL1   H1415527   2.813   4.759  13.394  0.3104 -1.4782  0.1002
  126CHL1   C1515528   2.872   4.888  13.547  0.1746 -0.9508  0.3806
  126CHL1  H15A15529   2.937   4.975  13.571 -0.8560 -0.4206  1.3127
  126CHL1  H15B15530   2.778   4.941  13.520  1.9353  2.2753  0.1104
  126CHL1   C1615531   2.858   4.786  13.659 -0.5587  0.5009 -0.9333
  126CHL1  H16A15532   2.933   4.811  13.737 -2.5078  1.7617  0.6226
  126CHL1  H16B15533   2.761   4.775  13.711 -1.0803  0.2972 -1.9191
  126CHL1   C1715534   2.892   4.641  13.612  0.2381 -0.1489  0.9255
  126CHL1   H1715535   2.803   4.584  13.578  0.0415  0.1166  0.9977
  126CHL1   C1315536   2.989   4.673  13.488 -0.2810  0.3242 -0.0242
  126CHL1   C1815537   3.132   4.713  13.543  0.0013 -0.2081  0.6130
  126CHL1  H18A15538   3.190   4.770  13.467 -2.9148  1.0577 -0.8356
  126CHL1  H18B15539   3.115   4.777  13.632 -2.7774  0.1680 -0.0792
  126CHL1  H18C15540   3.191   4.620  13.555  0.8226  0.0432 -1.1830
  126CHL1   C1215541   3.002   4.562  13.380 -0.3314  0.1947 -0.0729
  126CHL1  H12A15542   3.054   4.471  13.416  1.3436  0.7998 -0.8439
  126CHL1  H12B15543   2.897   4.533  13.360 -0.1314 -1.3699  0.9797
  126CHL1   C1115544   3.083   4.615  13.259  0.7145 -0.6958 -0.2701
  126CHL1  H11A15545   3.185   4.635  13.300  0.5895  1.9361 -1.0657
  126CHL1  H11B15546   3.088   4.539  13.178  0.1542 -1.4471  0.3825
  126CHL1    C915547   3.016   4.751  13.206 -0.1278 -0.0015  0.4900
  126CHL1    H915548   2.915   4.718  13.172 -0.4223  0.4864  0.8695
  126CHL1   C1015549   3.091   4.803  13.081  0.9843 -0.4574 -0.2866
  126CHL1   C1915550   3.241   4.800  13.099  0.5812  0.1746  0.3829
  126CHL1  H19A15551   3.279   4.866  13.180  1.9062 -0.5495  0.3822
  126CHL1  H19B15552   3.279   4.696  13.113  2.3652  0.7325 -0.0111
  126CHL1  H19C15553   3.282   4.837  13.003 -3.0857 -1.5853 -2.0997
  126CHL1    C115554   3.062   4.705  12.963 -0.4617 -0.0538 -0.6029
  126CHL1   H1A15555   3.115   4.609  12.979 -1.5140 -0.6731 -0.7517
  126CHL1   H1B15556   2.953   4.691  12.972 -0.8109  2.5290  0.2114
  126CHL1    C215557   3.104   4.759  12.825 -0.0707  0.4428 -0.1645
  126CHL1   H2A15558   3.065   4.690  12.747 -0.0247 -2.6414  2.3515
  126CHL1   H2B15559   3.214   4.755  12.814 -0.2106  0.6355 -1.9297
  126CHL1   C2015560   2.946   4.559  13.726 -0.0153 -0.5864  0.2733
  126CHL1   H2015561   3.038   4.603  13.770  0.2639 -0.9850  0.0961
  126CHL1   C2115562   2.983   4.416  13.665  0.1620 -0.3083  0.1844
  126CHL1  H21A15563   3.080   4.426  13.612  0.9504  1.3423  1.8417
  126CHL1  H21B15564   2.898   4.380  13.603  0.5041 -1.8868  0.5754
  126CHL1  H21C15565   3.002   4.349  13.751  2.2578  0.7422  0.6032
  126CHL1   C2215566   2.842   4.551  13.842  0.1910 -0.2044 -0.9025
  126CHL1  H22A15567   2.841   4.652  13.889  0.6210 -1.5684  2.2903
  126CHL1  H22B15568   2.742   4.523  13.802 -0.4429  1.2002 -0.3722
  126CHL1   C2315569   2.862   4.448  13.959 -0.6266 -0.3019  0.2097
  126CHL1  H23A15570   2.847   4.347  13.914  1.8821  0.3920 -2.5156
  126CHL1  H23B15571   2.970   4.449  13.983  0.0815  0.9010 -2.6461
  126CHL1   C2415572   2.785   4.483  14.089  0.1755 -0.3119  0.5026
  126CHL1  H24A15573   2.816   4.404  14.160 -1.0019 -1.1516  0.1234
  126CHL1  H24B15574   2.821   4.582  14.123 -2.6743  0.4270  1.6250
  126CHL1   C2515575   2.634   4.492  14.073 -0.0262  0.0733 -0.1904
  126CHL1   H2515576   2.604   4.577  14.009 -3.7049 -1.3227 -0.5917
  126CHL1   C2615577   2.590   4.362  14.008 -0.0463 -0.1181 -0.0466
  126CHL1  H26A15578   2.623   4.332  13.906 -1.2777 -0.6556 -0.3004
  126CHL1  H26B15579   2.629   4.272  14.061  0.8341  0.5118  0.4072
  126CHL1  H26C15580   2.480   4.352  14.003 -0.1040  0.9455 -1.3134
  126CHL1   C2715581   2.576   4.514  14.216 -0.3510  0.0828  0.6600
  126CHL1  H27A15582   2.602   4.427  14.280 -0.1613  0.0822  0.5849
  126CHL1  H27B15583   2.611   4.605  14.269  1.0410 -0.1690  0.2410
  126CHL1  H27C15584   2.467   4.514  14.197 -0.3992 -1.7534  0.7877
  127CHL1    C315585   2.880   6.303  12.807  0.4055  0.9333  0.7401
  127CHL1    H315586   2.975   6.360  12.798  0.3063  0.9349 -0.4511
  127CHL1    O315587   2.825   6.297  12.677 -0.1377  0.6224 -0.0036
  127CHL1   H3'15588   2.753   6.234  12.685 -0.6141  1.3288  1.7915
  127CHL1    C415589   2.892   6.159  12.870 -0.6078 -0.3404  0.0534
  127CHL1   H4A15590   2.808   6.089  12.856 -1.3815  0.1920  1.8192
  127CHL1   H4B15591   2.974   6.105  12.817 -1.9851 -2.4652 -0.0258
  127CHL1    C515592   2.932   6.173  13.013  0.4171 -0.2970 -0.6881
  127CHL1    C615593   3.040   6.110  13.069 -0.2768 -0.2333  0.3095
  127CHL1    H615594   3.103   6.048  13.004 -0.2381 -0.6997  0.7791
  127CHL1    C715595   3.074   6.106  13.211  0.0135  0.5129  0.7046
  127CHL1   H7A15596   3.094   5.999  13.233 -0.3624  0.1680 -0.5173
  127CHL1   H7B15597   3.159   6.177  13.222 -1.7673  2.8904  0.1213
  127CHL1    C815598   2.956   6.158  13.306  0.0813  0.1701 -0.1640
  127CHL1    H815599   2.889   6.069  13.311  0.4676 -0.1208 -0.0974
  127CHL1   C1415600   3.008   6.188  13.449  0.3089 -0.5470  0.0172
  127CHL1   H1415601   3.079   6.270  13.427  0.4507 -0.5606  0.4159
  127CHL1   C1515602   3.096   6.081  13.516  0.2330 -0.7667 -1.3504
  127CHL1  H15A15603   3.043   5.984  13.518 -3.0301  0.8769 -1.3711
  127CHL1  H15B15604   3.197   6.070  13.472  0.5625  0.7023 -1.0427
  127CHL1   C1615605   3.090   6.144  13.659 -0.4133 -0.5043  0.4757
  127CHL1  H16A15606   3.058   6.072  13.738 -2.7122  0.2309  0.2832
  127CHL1  H16B15607   3.191   6.183  13.683  0.1878  0.3001 -2.8367
  127CHL1   C1715608   2.996   6.266  13.671  0.6257  0.5014 -0.3370
  127CHL1   H1715609   3.059   6.357  13.663  0.7928  0.5437  1.1189
  127CHL1   C1315610   2.906   6.246  13.546  0.4755 -0.8247  0.2211
  127CHL1   C1815611   2.797   6.138  13.574 -0.3098 -0.4860 -0.0645
  127CHL1  H18A15612   2.750   6.112  13.477  1.8917 -0.6777 -1.1339
  127CHL1  H18B15613   2.847   6.049  13.618 -0.7934 -1.0235 -0.5878
  127CHL1  H18C15614   2.723   6.169  13.651  2.6055  1.0171  2.3620
  127CHL1   C1215615   2.852   6.375  13.483 -0.0779  0.6256 -0.5429
  127CHL1  H12A15616   2.794   6.440  13.553  0.8796 -0.2536  1.1422
  127CHL1  H12B15617   2.945   6.424  13.449 -0.1032  0.4816 -0.8206
  127CHL1   C1115618   2.786   6.349  13.345 -0.0077 -0.7776 -0.0646
  127CHL1  H11A15619   2.692   6.291  13.355 -1.3557  1.4757  1.5984
  127CHL1  H11B15620   2.758   6.444  13.294 -0.6479 -2.3639 -2.8701
  127CHL1    C915621   2.880   6.277  13.246  0.4737  0.3039  0.2986
  127CHL1    H915622   2.968   6.345  13.243  0.5414  0.2721  1.1028
  127CHL1   C1015623   2.827   6.253  13.099 -0.2890  0.7408  0.3479
  127CHL1   C1915624   2.695   6.178  13.103 -0.0350 -0.1834  0.0270
  127CHL1  H19A15625   2.663   6.144  13.002 -2.1821  1.0341  0.2512
  127CHL1  H19B15626   2.697   6.087  13.167 -0.3047  0.6109  1.2021
  127CHL1  H19C15627   2.610   6.236  13.143 -0.2293 -1.0966  0.9881
  127CHL1    C115628   2.797   6.390  13.033 -0.8312 -0.2422 -0.3727
  127CHL1   H1A15629   2.705   6.436  13.074 -0.4707 -0.1532  0.3510
  127CHL1   H1B15630   2.882   6.458  13.057 -0.4764 -0.6217 -0.5394
  127CHL1    C215631   2.774   6.386  12.880  0.1888  0.1736  0.3458
  127CHL1   H2A15632   2.769   6.491  12.844 -0.9083  0.7112  1.9498
  127CHL1   H2B15633   2.674   6.342  12.858  0.0034  0.4585  0.6024
  127CHL1   C2015634   2.927   6.271  13.812  0.4613 -0.0410  0.4365
  127CHL1   H2015635   2.863   6.181  13.825  0.4169  0.1256  1.3837
  127CHL1   C2115636   2.843   6.403  13.824  0.1319  0.1950 -0.2906
  127CHL1  H21A15637   2.749   6.395  13.764  0.1878 -0.0564 -0.3468
  127CHL1  H21B15638   2.909   6.483  13.783  0.2727 -0.8239 -2.1627
  127CHL1  H21C15639   2.824   6.417  13.932  0.3832 -0.6081 -0.1417
  127CHL1   C2215640   3.025   6.274  13.933 -0.1367 -0.3723 -0.1600
  127CHL1  H22A15641   3.095   6.188  13.922  2.1822  1.3797  0.3530
  127CHL1  H22B15642   3.082   6.368  13.923  1.4280 -1.5349 -4.0093
  127CHL1   C2315643   2.969   6.255  14.074 -0.0044  0.0222 -0.8209
  127CHL1  H23A15644   3.057   6.244  14.142 -1.5566  0.3888  1.3481
  127CHL1  H23B15645   2.902   6.334  14.113 -1.5300 -1.0513 -1.1614
  127CHL1   C2415646   2.897   6.115  14.081 -0.2674  0.0879  0.0038
  127CHL1  H24A15647   2.819   6.111  14.002 -2.7435  2.0774  2.1533
  127CHL1  H24B15648   2.966   6.030  14.060 -0.1018  0.0886  0.5215
  127CHL1   C2515649   2.838   6.096  14.221 -0.4236  0.9928  0.0947
  127CHL1   H2515650   2.917   6.138  14.287  1.2572 -0.0194 -1.1646
  127CHL1   C2615651   2.700   6.165  14.236 -0.3943 -0.3052 -0.1951
  127CHL1  H26A15652   2.619   6.097  14.202 -0.3255 -0.7602  0.5490
  127CHL1  H26B15653   2.677   6.184  14.343 -1.8039 -2.0848 -0.1404
  127CHL1  H26C15654   2.700   6.257  14.174  1.3623  0.4202  0.8169
  127CHL1   C2715655   2.824   5.944  14.245  0.8788  0.1607 -0.4925
  127CHL1  H27A15656   2.752   5.907  14.169 -1.8365  2.3205  0.8571
  127CHL1  H27B15657   2.928   5.904  14.241  1.8385  2.0936  2.3584
  127CHL1  H27C15658   2.786   5.927  14.348 -0.1829 -0.5027 -0.9761
  128CHL1    C315659   2.031   1.717  12.719 -0.5969 -0.2626 -0.0384
  128CHL1    H315660   1.926   1.754  12.714  0.3491  2.7634  0.8417
  128CHL1    O315661   2.076   1.675  12.590  0.0684  0.3318  0.5121
  128CHL1   H3'15662   2.161   1.631  12.601  0.2605  0.5609 -0.0058
  128CHL1    C415663   2.123   1.830  12.776 -0.3126  0.0828 -0.2665
  128CHL1   H4A15664   2.224   1.794  12.747  0.2804  1.1805  0.3377
  128CHL1   H4B15665   2.096   1.926  12.726  0.4231  0.8631  0.7670
  128CHL1    C515666   2.116   1.850  12.927 -0.3608 -0.2519 -0.4807
  128CHL1    C615667   2.104   1.976  12.979 -0.5835  0.8599 -0.2838
  128CHL1    H615668   2.121   2.063  12.915 -0.5330 -0.2982 -1.8923
  128CHL1    C715669   2.129   1.999  13.126  0.0842  0.4318 -0.6956
  128CHL1   H7A15670   2.221   2.060  13.135  1.4456 -1.6949  0.4439
  128CHL1   H7B15671   2.044   2.057  13.168 -0.3372 -0.5702 -0.1161
  128CHL1    C815672   2.156   1.870  13.205  0.8383  0.1065  0.1038
  128CHL1    H815673   2.262   1.842  13.189  0.5042 -1.1827  0.0295
  128CHL1   C1415674   2.113   1.886  13.354 -0.1617  0.1436  0.1605
  128CHL1   H1415675   2.003   1.885  13.348 -0.2122 -1.1113  0.7998
  128CHL1   C1515676   2.158   2.016  13.424 -0.7613  0.4860  0.0534
  128CHL1  H15A15677   2.259   2.042  13.385 -0.7168 -0.1320 -0.2656
  128CHL1  H15B15678   2.082   2.093  13.398 -2.6280 -1.1744  0.3737
  128CHL1   C1615679   2.159   1.977  13.567  0.4343  0.0748  0.1109
  128CHL1  H16A15680   2.263   1.989  13.605  0.1325 -2.5574  2.0390
  128CHL1  H16B15681   2.096   2.041  13.632  0.0028  0.6941 -0.8924
  128CHL1   C1715682   2.107   1.838  13.576 -0.4803 -0.3029  0.8449
  128CHL1   H1715683   1.997   1.846  13.565 -0.1135  2.1410 -3.0316
  128CHL1   C1315684   2.145   1.773  13.440  0.4399  0.0870 -0.5138
  128CHL1   C1815685   2.296   1.720  13.439  0.3354  0.1303 -0.1981
  128CHL1  H18A15686   2.298   1.626  13.498  1.3965 -0.0565 -0.4987
  128CHL1  H18B15687   2.327   1.688  13.337  1.0743  1.9090 -0.5702
  128CHL1  H18C15688   2.358   1.808  13.467 -0.0177  1.1009 -2.2861
  128CHL1   C1215689   2.050   1.655  13.401  0.0320 -0.5065  1.5651
  128CHL1  H12A15690   2.073   1.563  13.460  2.1570 -1.5633 -0.7407
  128CHL1  H12B15691   1.948   1.693  13.423  0.1124  2.6310 -2.3803
  128CHL1   C1115692   2.068   1.623  13.254 -0.3361  0.1898 -0.1075
  128CHL1  H11A15693   2.163   1.569  13.234  1.2179  1.9660  1.9801
  128CHL1  H11B15694   1.986   1.556  13.221 -0.9103  0.1537  1.3229
  128CHL1    C915695   2.069   1.755  13.159  0.8555  0.3922  0.1885
  128CHL1    H915696   1.964   1.792  13.162  0.9304  0.5745  1.0970
  128CHL1   C1015697   2.103   1.719  13.016 -0.6457 -0.0418  0.4980
  128CHL1   C1915698   2.235   1.639  13.010 -0.4389  0.0280 -0.1028
  128CHL1  H19A15699   2.221   1.529  13.015 -0.0381  0.0237  1.4784
  128CHL1  H19B15700   2.278   1.644  12.907 -0.6319 -1.9556 -0.3268
  128CHL1  H19C15701   2.317   1.680  13.072  1.0704 -1.4022 -1.0599
  128CHL1    C115702   1.999   1.630  12.951 -0.5920  0.7115  0.0837
  128CHL1   H1A15703   2.000   1.532  13.004 -2.1230  0.4365 -0.3392
  128CHL1   H1B15704   1.893   1.663  12.960 -1.7288 -2.4928 -0.1902
  128CHL1    C215705   2.022   1.594  12.809 -0.1976 -0.0420  0.6009
  128CHL1   H2A15706   1.944   1.524  12.772  0.3798 -0.6724  0.5443
  128CHL1   H2B15707   2.114   1.532  12.799 -0.2768 -0.2364  1.0447
  128CHL1   C2015708   2.121   1.758  13.704 -0.3481 -0.1704 -0.3253
  128CHL1   H2015709   2.095   1.654  13.676 -0.8368 -0.8955  2.5619
  128CHL1   C2115710   2.006   1.793  13.796 -0.1800  0.0005  1.1468
  128CHL1  H21A15711   2.009   1.740  13.893 -1.5284 -0.0443  1.1811
  128CHL1  H21B15712   1.909   1.769  13.749  0.1176  0.5254  0.2274
  128CHL1  H21C15713   2.023   1.900  13.822  1.4675  0.1636 -0.3491
  128CHL1   C2215714   2.265   1.753  13.777  0.1981 -0.0291  0.6281
  128CHL1  H22A15715   2.340   1.797  13.707 -0.3200  0.3690  0.3116
  128CHL1  H22B15716   2.256   1.812  13.870 -1.3131 -2.0980  1.8829
  128CHL1   C2315717   2.291   1.605  13.825 -0.1912  0.3393 -0.6041
  128CHL1  H23A15718   2.215   1.594  13.905 -1.0509  1.4341 -1.2352
  128CHL1  H23B15719   2.261   1.533  13.746  0.1220 -3.2497  2.3093
  128CHL1   C2415720   2.430   1.578  13.881  0.7204  1.2227 -0.1524
  128CHL1  H24A15721   2.458   1.655  13.956 -1.9238  0.0779  2.2265
  128CHL1  H24B15722   2.432   1.480  13.933  0.8327 -0.0615 -2.4586
  128CHL1   C2515723   2.550   1.567  13.779 -0.4567  0.4870  0.3716
  128CHL1   H2515724   2.530   1.640  13.698 -1.0161  0.9055  0.8796
  128CHL1   C2615725   2.686   1.614  13.845  0.1120 -0.1379  0.2657
  128CHL1  H26A15726   2.687   1.724  13.866  1.6244 -0.1717  0.4570
  128CHL1  H26B15727   2.696   1.570  13.946 -0.0961  0.7854  0.7026
  128CHL1  H26C15728   2.767   1.606  13.770  1.0629  1.6066  1.0423
  128CHL1   C2715729   2.548   1.423  13.721 -0.0022  0.4386 -0.0578
  128CHL1  H27A15730   2.442   1.415  13.690 -0.1915 -0.1215  0.7115
  128CHL1  H27B15731   2.618   1.406  13.636  0.0598 -1.1456  0.2733
  128CHL1  H27C15732   2.569   1.346  13.799  0.8314  0.6778 -0.0328
  129CHL1    C315733   5.991   6.120  12.840  0.5978  0.0089  0.0258
  129CHL1    H315734   6.059   6.207  12.850 -1.5594  1.5502  2.5231
  129CHL1    O315735   5.922   6.121  12.720 -0.0138 -0.1038  0.4200
  129CHL1   H3'15736   5.989   6.145  12.655 -0.6566  0.1774 -0.1404
  129CHL1    C415737   6.095   6.008  12.847 -0.2876  0.1124 -0.2189
  129CHL1   H4A15738   6.027   5.923  12.825 -2.3967  2.1891 -2.3394
  129CHL1   H4B15739   6.169   6.014  12.765  0.1586 -1.5768  0.0263
  129CHL1    C515740   6.160   5.976  12.984 -0.4152  0.8193 -0.0972
  129CHL1    C615741   6.289   5.951  12.993  0.3122 -0.9535  0.4327
  129CHL1    H615742   6.345   5.947  12.898  0.2062  0.8342  0.2427
  129CHL1    C715743   6.362   5.914  13.115  0.3785  0.2038  0.4303
  129CHL1   H7A15744   6.423   5.822  13.100 -0.1427  0.0269 -0.7479
  129CHL1   H7B15745   6.428   5.996  13.151  1.3138 -0.5618  0.5173
  129CHL1    C815746   6.270   5.906  13.237 -0.4249 -0.1713  0.0640
  129CHL1    H815747   6.231   5.802  13.240  1.9333 -1.0927  0.4063
  129CHL1   C1415748   6.345   5.924  13.368 -0.1743 -0.5108 -0.1550
  129CHL1   H1415749   6.370   6.032  13.365 -1.1317 -0.1735  1.9243
  129CHL1   C1515750   6.485   5.858  13.402  0.5308  0.1557  0.5343
  129CHL1  H15A15751   6.482   5.749  13.382  1.5949  0.3740 -0.9873
  129CHL1  H15B15752   6.565   5.900  13.338  1.6118 -2.1406  0.2820
  129CHL1   C1615753   6.500   5.877  13.552  1.3175 -0.2054  0.1758
  129CHL1  H16A15754   6.520   5.779  13.599 -3.9248 -1.4697  0.3441
  129CHL1  H16B15755   6.574   5.957  13.576  0.0460  1.2276 -0.4600
  129CHL1   C1715756   6.359   5.930  13.607 -0.2997  0.3783  1.2676
  129CHL1   H1715757   6.383   6.039  13.612  0.2755  0.5480 -2.2841
  129CHL1   C1315758   6.257   5.907  13.496  0.4585  0.2913 -0.3831
  129CHL1   C1815759   6.208   5.759  13.499 -0.7822 -0.1597  0.3978
  129CHL1  H18A15760   6.140   5.757  13.587 -1.4413  0.6747 -0.0815
  129CHL1  H18B15761   6.138   5.735  13.417 -1.2512  0.9353  0.4605
  129CHL1  H18C15762   6.288   5.681  13.500 -1.4057 -0.8071  0.0650
  129CHL1   C1215763   6.134   5.998  13.487 -0.0042  0.9592  0.2515
  129CHL1  H12A15764   6.067   5.966  13.570  1.1529 -0.7599  0.5688
  129CHL1  H12B15765   6.165   6.103  13.506 -0.5478  0.8916  1.6573
  129CHL1   C1115766   6.055   5.990  13.360 -0.4656  0.0536  0.1277
  129CHL1  H11A15767   6.008   5.889  13.352 -0.1801  0.0677 -2.3014
  129CHL1  H11B15768   5.965   6.055  13.362 -1.1916 -0.8208  3.9115
  129CHL1    C915769   6.148   5.999  13.235  0.9811  0.4790 -0.0225
  129CHL1    H915770   6.189   6.102  13.238 -1.3239  1.5112 -1.2949
  129CHL1   C1015771   6.065   5.982  13.108  0.3020 -0.6955 -0.7323
  129CHL1   C1915772   5.974   5.856  13.116  0.5307 -0.3839  0.8291
  129CHL1  H19A15773   6.023   5.774  13.172 -0.4764 -2.2100 -0.8515
  129CHL1  H19B15774   5.885   5.879  13.179  0.0720  0.1450  0.0163
  129CHL1  H19C15775   5.931   5.828  13.017  0.7324  0.7405  0.4055
  129CHL1    C115776   5.966   6.100  13.090  0.3527  0.4548 -0.5421
  129CHL1   H1A15777   5.888   6.082  13.168 -0.6079 -3.3841 -2.1633
  129CHL1   H1B15778   6.019   6.197  13.103  2.3945 -0.9429  2.9686
  129CHL1    C215779   5.887   6.117  12.954  0.3693  0.1960  0.2134
  129CHL1   H2A15780   5.823   6.208  12.955 -0.6622 -0.4841  2.3419
  129CHL1   H2B15781   5.820   6.029  12.939  0.9752 -0.4578  1.2642
  129CHL1   C2015782   6.323   5.886  13.754 -0.6173  0.8740  0.3853
  129CHL1   H2015783   6.212   5.890  13.757 -0.7329 -1.6676  1.8837
  129CHL1   C2115784   6.390   5.988  13.854  0.2463 -0.1484  0.1032
  129CHL1  H21A15785   6.352   6.092  13.848  1.8576  0.4981  0.6925
  129CHL1  H21B15786   6.500   5.980  13.845  0.6026  1.1729  2.4150
  129CHL1  H21C15787   6.376   5.950  13.958  0.8138  1.7057  0.8997
  129CHL1   C2215788   6.371   5.746  13.793  0.5181 -0.4470  0.2806
  129CHL1  H22A15789   6.363   5.669  13.714 -0.1836 -3.1915  2.8748
  129CHL1  H22B15790   6.477   5.743  13.826  0.4067  0.3650  0.7460
  129CHL1   C2315791   6.280   5.666  13.885  0.5809  0.3158  0.2264
  129CHL1  H23A15792   6.233   5.710  13.975 -2.3473 -3.4337  0.7819
  129CHL1  H23B15793   6.195   5.636  13.821  0.4793  1.1903 -0.0634
  129CHL1   C2415794   6.360   5.545  13.937 -0.4831  0.2658  0.4136
  129CHL1  H24A15795   6.411   5.502  13.848 -0.3014  0.7672  0.2731
  129CHL1  H24B15796   6.446   5.587  13.994 -0.9059 -0.7062  1.8293
  129CHL1   C2515797   6.281   5.439  14.021 -0.4702 -0.2487  0.0596
  129CHL1   H2515798   6.194   5.406  13.960  0.3029 -3.2842  0.4401
  129CHL1   C2615799   6.360   5.307  14.058  0.2486 -0.0639  0.1787
  129CHL1  H26A15800   6.303   5.235  14.121  2.3326 -0.5366  1.6149
  129CHL1  H26B15801   6.410   5.255  13.974  1.1779  0.4462  0.4085
  129CHL1  H26C15802   6.447   5.346  14.115 -0.0926  0.1009  0.5942
  129CHL1   C2715803   6.227   5.500  14.158  0.5303 -0.3607  0.2102
  129CHL1  H27A15804   6.171   5.421  14.214 -0.0003  0.9501  1.6101
  129CHL1  H27B15805   6.313   5.531  14.222  1.0969  2.1540 -1.6610
  129CHL1  H27C15806   6.165   5.590  14.143  0.7286  0.3327  2.9454
  130CHL1    C315807   2.676   6.910  12.866  0.2218 -0.0730 -0.4525
  130CHL1    H315808   2.565   6.909  12.876  0.2841  0.4708  0.3904
  130CHL1    O315809   2.726   6.918  12.730 -0.0567  0.2520 -0.1999
  130CHL1   H3'15810   2.688   6.999  12.695  1.9961  0.2965 -2.6636
  130CHL1    C415811   2.726   7.027  12.951  0.3567  0.3645  0.4884
  130CHL1   H4A15812   2.837   7.030  12.952  0.3566  0.2992  1.0997
  130CHL1   H4B15813   2.688   7.116  12.895 -3.7104  0.0079  2.3120
  130CHL1    C515814   2.676   7.032  13.094  0.1020  0.7479  0.7354
  130CHL1    C615815   2.587   7.117  13.142 -0.7666 -0.0075  0.7354
  130CHL1    H615816   2.554   7.194  13.071 -0.2425 -0.1904  0.2881
  130CHL1    C715817   2.522   7.115  13.281 -0.1194  0.2690 -0.1086
  130CHL1   H7A15818   2.538   7.212  13.334  0.5180 -0.1313  0.4426
  130CHL1   H7B15819   2.414   7.090  13.269  0.3773 -2.4392  0.3897
  130CHL1    C815820   2.588   7.010  13.377  0.0716  0.2560  0.1415
  130CHL1    H815821   2.664   7.069  13.431  0.0677  0.9242 -0.5786
  130CHL1   C1415822   2.510   6.973  13.496  0.0748  0.1671 -0.9004
  130CHL1   H1415823   2.425   6.908  13.465  0.2079  0.9252 -3.0328
  130CHL1   C1515824   2.436   7.087  13.581 -0.3702  0.8721  0.5249
  130CHL1  H15A15825   2.505   7.172  13.597  0.3237  0.7507 -1.4880
  130CHL1  H15B15826   2.347   7.124  13.526  1.5017  0.0207 -3.4917
  130CHL1   C1615827   2.399   7.010  13.708 -0.3910 -0.0170 -0.3521
  130CHL1  H16A15828   2.426   7.072  13.796  0.1719  0.1708 -0.6562
  130CHL1  H16B15829   2.292   6.978  13.702 -0.5076 -0.3061  2.1226
  130CHL1   C1715830   2.480   6.871  13.708  0.6940 -0.0522  0.7706
  130CHL1   H1715831   2.407   6.800  13.662  1.3401  1.0604 -2.2296
  130CHL1   C1315832   2.587   6.880  13.598 -0.4181  0.4787 -0.2045
  130CHL1   C1815833   2.702   6.967  13.659 -0.2964  0.5941 -0.7025
  130CHL1  H18A15834   2.681   7.051  13.728  1.8335 -0.4497  1.3831
  130CHL1  H18B15835   2.768   6.905  13.725  1.0349  0.3020 -2.2492
  130CHL1  H18C15836   2.785   6.997  13.591  0.8332  3.0634  1.5777
  130CHL1   C1215837   2.633   6.746  13.533 -0.5295  0.1017  0.0600
  130CHL1  H12A15838   2.698   6.678  13.592 -0.4268  1.2842  1.3531
  130CHL1  H12B15839   2.542   6.687  13.507  0.4884 -1.2963 -0.5018
  130CHL1   C1115840   2.713   6.783  13.402 -0.0413  1.1491 -0.2796
  130CHL1  H11A15841   2.810   6.824  13.437  0.2955  0.4658 -0.3859
  130CHL1  H11B15842   2.746   6.691  13.349  3.4948  1.3824  1.2211
  130CHL1    C915843   2.645   6.883  13.310 -0.3294  0.1401  0.5007
  130CHL1    H915844   2.556   6.819  13.290 -1.4785  1.5859  0.8184
  130CHL1   C1015845   2.716   6.905  13.172  0.1244  0.6150 -0.5678
  130CHL1   C1915846   2.867   6.907  13.197  0.3511  0.4996 -0.4992
  130CHL1  H19A15847   2.920   6.954  13.111  0.1127  0.5948 -0.5967
  130CHL1  H19B15848   2.899   6.968  13.284  2.5865 -1.0442 -0.1821
  130CHL1  H19C15849   2.903   6.803  13.209  1.5682  0.9418 -0.2151
  130CHL1    C115850   2.681   6.774  13.081 -0.3331  0.0695  0.1029
  130CHL1   H1A15851   2.715   6.680  13.130 -0.0507  0.4791  0.7028
  130CHL1   H1B15852   2.571   6.765  13.075 -0.2675 -1.2384  0.5495
  130CHL1    C215853   2.721   6.775  12.934  0.7601 -0.0650 -0.4218
  130CHL1   H2A15854   2.661   6.701  12.876 -0.5861 -1.2293  2.2878
  130CHL1   H2B15855   2.831   6.760  12.930  0.6209 -1.5886  0.5639
  130CHL1   C2015856   2.521   6.818  13.843  0.9348  0.1617 -0.4854
  130CHL1   H2015857   2.583   6.900  13.885  0.3710 -0.1254  0.9619
  130CHL1   C2115858   2.594   6.684  13.843 -0.0842 -0.1669 -0.1352
  130CHL1  H21A15859   2.543   6.618  13.770  1.0070  0.5941 -1.6485
  130CHL1  H21B15860   2.597   6.641  13.945  0.4794 -2.1071 -0.9196
  130CHL1  H21C15861   2.695   6.696  13.798 -0.8830  0.1371 -1.9476
  130CHL1   C2215862   2.394   6.814  13.934  0.1578 -1.0797  0.3985
  130CHL1  H22A15863   2.425   6.794  14.039  0.9769  1.9523  0.8309
  130CHL1  H22B15864   2.345   6.913  13.942  0.3167 -0.5986 -3.0253
  130CHL1   C2315865   2.276   6.718  13.902 -0.0373 -0.2520 -0.4440
  130CHL1  H23A15866   2.247   6.736  13.797  0.1212 -0.2582 -0.4888
  130CHL1  H23B15867   2.307   6.612  13.914  0.1835 -0.1290  0.1505
  130CHL1   C2415868   2.152   6.754  13.983  0.1601 -0.1417 -1.0423
  130CHL1  H24A15869   2.180   6.735  14.088  2.1114  1.8761 -1.1145
  130CHL1  H24B15870   2.128   6.863  13.988 -0.0154 -0.2442  0.6377
  130CHL1   C2515871   2.024   6.673  13.943 -0.0568  0.0594  0.8302
  130CHL1   H2515872   1.948   6.683  14.024 -2.2254 -1.6539 -0.8890
  130CHL1   C2615873   1.964   6.739  13.819 -0.2218  0.5313 -0.6027
  130CHL1  H26A15874   1.908   6.829  13.851  1.3328  0.6628  2.0421
  130CHL1  H26B15875   2.030   6.774  13.736 -1.1088 -0.1502 -1.6148
  130CHL1  H26C15876   1.888   6.674  13.771 -1.1584 -0.4700  2.0431
  130CHL1   C2715877   2.051   6.523  13.924  0.0168  0.0760  0.5179
  130CHL1  H27A15878   2.109   6.487  14.012  1.3464  0.9517  0.0342
  130CHL1  H27B15879   1.953   6.472  13.920  0.3047 -0.4574  0.0924
  130CHL1  H27C15880   2.113   6.498  13.835 -1.3389 -3.1861  0.3540
  131CHL1    C315881   0.730   5.359  12.691 -0.4865 -0.2690  0.0205
  131CHL1    H315882   0.806   5.287  12.655 -1.1577 -1.9661  1.7693
  131CHL1    O315883   0.680   5.451  12.594 -0.1261 -0.6041  0.1525
  131CHL1   H3'15884   0.630   5.516  12.644 -1.6053  0.0322 -1.9895
  131CHL1    C415885   0.601   5.283  12.727 -0.0645  0.2266 -0.5933
  131CHL1   H4A15886   0.523   5.362  12.732  0.2912  0.5806 -0.5126
  131CHL1   H4B15887   0.580   5.218  12.640 -0.7102 -1.4218  0.7475
  131CHL1    C515888   0.602   5.194  12.852  0.1897 -0.0355 -0.8879
  131CHL1    C615889   0.586   5.061  12.843 -0.2205  0.4598  0.0592
  131CHL1    H615890   0.563   5.015  12.746  3.2450  1.3166 -1.3283
  131CHL1    C715891   0.587   4.970  12.962  0.4561  0.2156  0.2487
  131CHL1   H7A15892   0.507   4.894  12.946  1.4076 -0.4491 -1.7206
  131CHL1   H7B15893   0.676   4.903  12.961 -1.2824 -2.3303  2.0778
  131CHL1    C815894   0.584   5.041  13.096 -0.4749  0.2729  0.2422
  131CHL1    H815895   0.481   5.074  13.118 -0.6083 -0.7189  1.2066
  131CHL1   C1415896   0.630   4.950  13.213  0.7304 -0.7092  0.8903
  131CHL1   H1415897   0.737   4.939  13.183  0.4110  0.1100 -0.6992
  131CHL1   C1515898   0.572   4.811  13.225 -0.2590  0.6312  0.6136
  131CHL1  H15A15899   0.461   4.813  13.211 -0.3751  3.6942  1.2416
  131CHL1  H15B15900   0.613   4.734  13.157 -1.6408  0.8435 -0.5084
  131CHL1   C1615901   0.606   4.770  13.368 -0.1594 -0.2600  0.2175
  131CHL1  H16A15902   0.513   4.740  13.423  0.2742  0.2102  1.2407
  131CHL1  H16B15903   0.684   4.691  13.376  0.9070  0.8825  1.9146
  131CHL1   C1715904   0.664   4.897  13.437  1.0553  0.8687 -0.3332
  131CHL1   H1715905   0.773   4.903  13.416  0.8084  1.2718 -1.5754
  131CHL1   C1315906   0.620   5.016  13.355 -0.6475 -0.0998 -0.2699
  131CHL1   C1815907   0.472   5.045  13.384  0.1621 -0.5381 -0.0426
  131CHL1  H18A15908   0.445   5.118  13.304  0.2005  0.3471  0.7367
  131CHL1  H18B15909   0.404   4.956  13.386  0.7784 -1.0083  1.7004
  131CHL1  H18C15910   0.456   5.088  13.485  2.1321 -1.9073  0.9185
  131CHL1   C1215911   0.702   5.147  13.357 -0.4065  0.9892  0.5615
  131CHL1  H12A15912   0.687   5.196  13.456  1.0316 -0.9961  1.8410
  131CHL1  H12B15913   0.806   5.109  13.360 -0.7751 -0.2033 -0.5110
  131CHL1   C1115914   0.689   5.236  13.235  0.5365 -0.3427  0.2712
  131CHL1  H11A15915   0.586   5.278  13.241  0.5185 -0.1015 -1.4040
  131CHL1  H11B15916   0.773   5.309  13.239  0.3141 -0.1189  1.4483
  131CHL1    C915917   0.680   5.162  13.095  0.1620  0.6008 -0.0291
  131CHL1    H915918   0.778   5.114  13.074 -0.1150 -0.4222  0.9182
  131CHL1   C1015919   0.647   5.258  12.979 -0.2270 -0.9301 -0.3325
  131CHL1   C1915920   0.531   5.361  13.013 -0.7801  0.3361  0.3615
  131CHL1  H19A15921   0.515   5.438  12.935 -3.2925 -0.6427 -0.1784
  131CHL1  H19B15922   0.436   5.316  13.049 -0.7411 -1.1485 -1.2722
  131CHL1  H19C15923   0.562   5.419  13.103 -1.5790  1.8002 -0.2695
  131CHL1    C115924   0.772   5.347  12.952 -0.1701  0.3930  0.9197
  131CHL1   H1A15925   0.779   5.420  13.036 -3.9322  2.8226 -0.6357
  131CHL1   H1B15926   0.861   5.283  12.935  0.0575  1.3200 -1.7429
  131CHL1    C215927   0.773   5.428  12.822 -0.1573  0.2179 -0.0315
  131CHL1   H2A15928   0.872   5.475  12.805 -0.8372  2.3502  1.4236
  131CHL1   H2B15929   0.704   5.514  12.839 -0.5038 -0.1774  0.6623
  131CHL1   C2015930   0.644   4.906  13.587  0.2885  0.3638  0.0498
  131CHL1   H2015931   0.535   4.914  13.610  0.0351  0.8833 -1.2466
  131CHL1   C2115932   0.707   5.034  13.649 -0.1024  0.0961 -0.1250
  131CHL1  H21A15933   0.725   5.027  13.758  1.0439  0.3107 -0.2875
  131CHL1  H21B15934   0.628   5.111  13.636 -1.9688 -1.9396 -1.5522
  131CHL1  H21C15935   0.804   5.046  13.596 -0.0722 -1.9940 -0.6354
  131CHL1   C2215936   0.684   4.776  13.662 -0.3377 -0.1077 -0.1994
  131CHL1  H22A15937   0.679   4.788  13.773 -1.2514 -1.3515 -0.0894
  131CHL1  H22B15938   0.610   4.699  13.632  1.2227 -1.6751 -0.1630
  131CHL1   C2315939   0.827   4.712  13.643 -0.4783  0.8293 -0.1433
  131CHL1  H23A15940   0.856   4.686  13.539  0.2628  1.5595 -0.1319
  131CHL1  H23B15941   0.905   4.788  13.667 -0.2636  1.2571 -2.0469
  131CHL1   C2415942   0.846   4.586  13.722 -0.5497  0.1407  0.1703
  131CHL1  H24A15943   0.829   4.594  13.831  0.3618 -0.3483  0.3574
  131CHL1  H24B15944   0.768   4.511  13.698 -0.6558  0.0714  0.7412
  131CHL1   C2515945   0.981   4.510  13.723 -0.2510  0.5306  0.0201
  131CHL1   H2515946   1.023   4.488  13.622 -0.1310  0.6245  0.0500
  131CHL1   C2615947   1.079   4.600  13.801 -0.6814  0.0585 -0.3050
  131CHL1  H26A15948   1.170   4.549  13.838 -0.1837  0.6594 -0.6697
  131CHL1  H26B15949   1.111   4.677  13.727 -2.9339 -1.7918 -3.4850
  131CHL1  H26C15950   1.035   4.653  13.888  0.9573 -0.6616  1.0206
  131CHL1   C2715951   0.971   4.370  13.786 -0.2273 -0.1653  0.2033
  131CHL1  H27A15952   1.063   4.308  13.776  0.3428  0.4843  1.2654
  131CHL1  H27B15953   0.954   4.383  13.895 -0.6608 -0.7559  0.2099
  131CHL1  H27C15954   0.890   4.305  13.746 -1.0999  0.5924  0.7136
  132CHL1    C315955   4.697   6.952  12.915 -0.5828  0.3376 -0.2160
  132CHL1    H315956   4.739   6.851  12.898  0.9218  1.2968 -2.9024
  132CHL1    O315957   4.656   7.006  12.792 -0.0520  0.0035 -0.8193
  132CHL1   H3'15958   4.738   7.023  12.745 -0.7342  2.1215 -1.3588
  132CHL1    C415959   4.569   6.926  13.010 -0.7593  0.1979  0.2353
  132CHL1   H4A15960   4.534   7.032  13.011 -1.1334  0.1004 -1.0533
  132CHL1   H4B15961   4.499   6.860  12.955  0.7218 -0.5755 -0.7852
  132CHL1    C515962   4.602   6.889  13.154 -0.0130  0.4909  0.8421
  132CHL1    C615963   4.529   6.797  13.218  0.3995 -0.3112 -0.5121
  132CHL1    H615964   4.445   6.760  13.157 -0.2290  2.1340 -1.2457
  132CHL1    C715965   4.540   6.755  13.364 -0.4853 -0.3949 -0.1189
  132CHL1   H7A15966   4.446   6.742  13.422 -0.1805 -2.2279  0.0217
  132CHL1   H7B15967   4.574   6.649  13.362  1.3257  0.1409  0.9269
  132CHL1    C815968   4.632   6.849  13.439 -0.3739 -0.1844  0.1177
  132CHL1    H815969   4.588   6.951  13.444 -2.4723 -0.8659 -2.1211
  132CHL1   C1415970   4.665   6.785  13.572  0.2450  0.0083  0.4294
  132CHL1   H1415971   4.697   6.682  13.546 -1.6268 -0.1463 -1.5861
  132CHL1   C1515972   4.550   6.751  13.666  0.1655  0.7636 -0.6098
  132CHL1  H15A15973   4.478   6.835  13.671  0.1777  0.7936 -0.9560
  132CHL1  H15B15974   4.486   6.666  13.634  0.9995 -0.3381  0.5253
  132CHL1   C1615975   4.626   6.720  13.797 -0.5013  0.4069  0.1084
  132CHL1  H16A15976   4.575   6.772  13.880  1.6163  2.0456  0.4420
  132CHL1  H16B15977   4.639   6.612  13.819  3.7831  0.2373 -2.2479
  132CHL1   C1715978   4.775   6.770  13.780  0.1517  0.2811 -0.3502
  132CHL1   H1715979   4.831   6.677  13.756 -1.8221 -1.4108  1.2123
  132CHL1   C1315980   4.769   6.863  13.658  0.0089 -0.1978  1.0178
  132CHL1   C1815981   4.707   7.005  13.683 -0.4761 -0.2056  0.1304
  132CHL1  H18A15982   4.635   7.000  13.767  0.2671  1.9873  0.9630
  132CHL1  H18B15983   4.787   7.077  13.707 -1.0679  0.0632  1.3416
  132CHL1  H18C15984   4.665   7.060  13.596  1.4705 -1.1338 -1.4829
  132CHL1   C1215985   4.897   6.873  13.574  0.2209 -0.2848 -0.3644
  132CHL1  H12A15986   4.979   6.920  13.635 -0.1695 -1.8464  1.4646
  132CHL1  H12B15987   4.933   6.770  13.556  2.4014  0.4264 -0.4552
  132CHL1   C1115988   4.870   6.950  13.440  0.1665  0.1661 -0.7193
  132CHL1  H11A15989   4.856   7.059  13.453 -0.7862 -0.1559  1.2152
  132CHL1  H11B15990   4.965   6.932  13.383  0.6006  1.0745 -0.2936
  132CHL1    C915991   4.758   6.891  13.350  0.7905  0.2634  0.5746
  132CHL1    H915992   4.793   6.790  13.320  0.8944  0.7255 -0.9455
  132CHL1   C1015993   4.718   6.969  13.217 -0.2813  0.1649 -0.7501
  132CHL1   C1915994   4.664   7.112  13.249 -0.1117  0.5352 -0.2562
  132CHL1  H19A15995   4.636   7.169  13.158  0.1304 -1.7832 -1.8568
  132CHL1  H19B15996   4.566   7.106  13.301  0.1886  0.2529  0.2819
  132CHL1  H19C15997   4.731   7.177  13.310 -0.5154  1.3799 -0.6970
  132CHL1    C115998   4.839   6.976  13.121  0.0575 -0.1705  0.0371
  132CHL1   H1A15999   4.925   7.030  13.166  0.5391 -2.8538  2.6709
  132CHL1   H1B16000   4.874   6.872  13.110 -0.4820 -0.4211  0.6273
  132CHL1    C216001   4.798   7.038  12.987  0.8322  0.3181 -0.1758
  132CHL1   H2A16002   4.887   7.053  12.922 -0.6456  0.9815 -2.1514
  132CHL1   H2B16003   4.744   7.135  12.990  1.8459  0.8866 -0.1985
  132CHL1   C2016004   4.847   6.823  13.905  0.3789  0.6974  0.0203
  132CHL1   H2016005   4.801   6.917  13.940  1.0539  0.5400  1.3919
  132CHL1   C2116006   4.999   6.837  13.881  0.1429  0.1105  0.2579
  132CHL1  H21A16007   5.027   6.933  13.833  2.3514 -0.0387  1.1693
  132CHL1  H21B16008   5.030   6.752  13.817 -0.8750  0.2106 -0.3967
  132CHL1  H21C16009   5.052   6.838  13.978  2.7388  0.8593 -1.0749
  132CHL1   C2216010   4.835   6.722  14.028 -0.3898  0.3639  0.0572
  132CHL1  H22A16011   4.847   6.781  14.121 -1.2273  0.4089  0.1459
  132CHL1  H22B16012   4.729   6.695  14.047 -0.4195  1.5721  1.9186
  132CHL1   C2316013   4.918   6.596  14.018  0.1611  0.6525  0.3102
  132CHL1  H23A16014   4.888   6.527  13.936  0.2996 -1.3032  1.8201
  132CHL1  H23B16015   5.026   6.607  13.998  0.6146 -3.0214  0.0446
  132CHL1   C2416016   4.914   6.519  14.153 -0.0130  0.4218 -0.2437
  132CHL1  H24A16017   4.941   6.596  14.229 -1.5621 -0.4224  1.2145
  132CHL1  H24B16018   4.812   6.482  14.176 -0.5087  0.4375 -2.2644
  132CHL1   C2516019   5.023   6.409  14.157 -0.2206 -0.1062 -0.0659
  132CHL1   H2516020   4.996   6.356  14.063  0.5915 -0.4222 -0.1305
  132CHL1   C2616021   5.170   6.457  14.133 -0.0594 -0.1576  0.5759
  132CHL1  H26A16022   5.191   6.515  14.040 -0.7346  0.0874  0.5708
  132CHL1  H26B16023   5.208   6.521  14.215 -2.3120 -0.9678  2.3396
  132CHL1  H26C16024   5.238   6.369  14.127  1.4080  0.9459  0.4414
  132CHL1   C2716025   5.016   6.310  14.269  0.0696 -0.5011  0.3886
  132CHL1  H27A16026   4.909   6.282  14.272 -0.5927  1.6065 -1.3138
  132CHL1  H27B16027   5.081   6.221  14.253  0.8051 -0.2233  1.6866
  132CHL1  H27C16028   5.046   6.358  14.365  0.8029  1.7511 -0.8934
  133CHL1    C316029   0.647   2.418  12.946  0.2903 -0.3686  0.6655
  133CHL1    H316030   0.577   2.486  12.999  1.3963  0.4947  1.0522
  133CHL1    O316031   0.672   2.456  12.814 -0.3378 -0.2675 -0.5733
  133CHL1   H3'16032   0.751   2.402  12.806 -1.0396 -1.4207  0.0132
  133CHL1    C416033   0.783   2.443  13.014  0.1566  0.6959 -0.7112
  133CHL1   H4A16034   0.864   2.387  12.961  0.0035  1.3371 -1.6469
  133CHL1   H4B16035   0.807   2.551  13.003 -1.5954  0.8850 -3.9775
  133CHL1    C516036   0.771   2.399  13.158 -0.0595 -0.5299  0.0880
  133CHL1    C616037   0.806   2.482  13.257 -0.1395  0.0758 -0.0477
  133CHL1    H616038   0.854   2.579  13.237  0.3529 -0.7643 -3.7547
  133CHL1    C716039   0.815   2.422  13.394 -0.4103 -0.4481 -0.4073
  133CHL1   H7A16040   0.910   2.448  13.446 -1.5240  2.1496  0.5134
  133CHL1   H7B16041   0.741   2.470  13.461 -2.0681 -1.6756 -1.3012
  133CHL1    C816042   0.790   2.271  13.417 -0.1669  0.3476 -0.1498
  133CHL1    H816043   0.882   2.215  13.388 -2.2424 -3.1782 -0.5151
  133CHL1   C1416044   0.748   2.228  13.561  0.0046  0.2926  0.2847
  133CHL1   H1416045   0.656   2.289  13.577  0.2793  0.4330  1.4010
  133CHL1   C1516046   0.834   2.287  13.679 -0.0058  0.4092  0.1359
  133CHL1  H15A16047   0.939   2.307  13.649 -0.0872  0.9099  0.1757
  133CHL1  H15B16048   0.799   2.389  13.703 -1.8214 -0.4901  1.6768
  133CHL1   C1616049   0.814   2.195  13.798  0.2315  0.1199  0.2007
  133CHL1  H16A16050   0.908   2.147  13.832  0.3581  0.9575  1.1009
  133CHL1  H16B16051   0.773   2.260  13.879 -1.9062 -0.2220 -0.5565
  133CHL1   C1716052   0.704   2.097  13.751  0.5644 -0.2601  0.5830
  133CHL1   H1716053   0.602   2.138  13.770  0.6263  0.0450  0.2553
  133CHL1   C1316054   0.725   2.084  13.592 -0.0487 -0.2447 -0.2179
  133CHL1   C1816055   0.849   1.993  13.574 -0.3910 -0.2643  0.3683
  133CHL1  H18A16056   0.934   2.019  13.640 -1.0694  1.0625  0.7536
  133CHL1  H18B16057   0.823   1.885  13.587 -0.8226 -0.0829  1.0682
  133CHL1  H18C16058   0.892   2.009  13.473 -0.6877 -0.3374  0.2278
  133CHL1   C1216059   0.619   2.041  13.498 -0.4799  0.1442  0.2903
  133CHL1  H12A16060   0.598   1.932  13.508  3.3198 -1.1334 -3.0199
  133CHL1  H12B16061   0.521   2.077  13.535  0.9414  4.1347  0.6637
  133CHL1   C1116062   0.653   2.073  13.354  0.1768 -0.1251  0.0605
  133CHL1  H11A16063   0.737   2.012  13.314 -1.2638 -1.1614 -1.4815
  133CHL1  H11B16064   0.570   2.030  13.295 -0.6102 -0.1743  1.1726
  133CHL1    C916065   0.685   2.217  13.321  0.2000  0.5871 -0.6523
  133CHL1    H916066   0.594   2.272  13.354  0.7915  0.4148  1.4344
  133CHL1   C1016067   0.713   2.253  13.173  0.2697  0.8707  0.1406
  133CHL1   C1916068   0.817   2.153  13.118 -0.5839  0.5364 -0.1129
  133CHL1  H19A16069   0.850   2.185  13.016  0.6525  1.6345  0.5985
  133CHL1  H19B16070   0.914   2.155  13.172 -2.0332  2.0218  2.6099
  133CHL1  H19C16071   0.774   2.052  13.102 -1.8778  0.8781  1.1027
  133CHL1    C116072   0.575   2.242  13.097  0.0260  0.1365  0.3477
  133CHL1   H1A16073   0.549   2.135  13.111  2.1977 -0.0970  3.7477
  133CHL1   H1B16074   0.512   2.313  13.154 -2.9148 -1.7787 -0.3266
  133CHL1    C216075   0.596   2.277  12.955  0.0314  0.4067 -0.1562
  133CHL1   H2A16076   0.496   2.262  12.907 -1.1214  4.0801  0.7962
  133CHL1   H2B16077   0.667   2.214  12.896 -0.6676  0.3057 -0.9157
  133CHL1   C2016078   0.704   1.963  13.828  0.3258  0.5671  0.2254
  133CHL1   H2016079   0.780   1.886  13.806  0.9072  1.2664 -0.2279
  133CHL1   C2116080   0.580   1.889  13.787 -0.4131  0.1306  0.3224
  133CHL1  H21A16081   0.488   1.950  13.790  0.1035  0.9809 -0.3947
  133CHL1  H21B16082   0.552   1.801  13.848 -1.2404  1.2978  1.6739
  133CHL1  H21C16083   0.595   1.847  13.685  0.6616  3.4326 -1.0205
  133CHL1   C2216084   0.708   1.975  13.978 -0.8302 -0.1395 -0.1650
  133CHL1  H22A16085   0.804   2.022  14.009 -0.4421  0.1336 -1.6874
  133CHL1  H22B16086   0.633   2.048  14.017  1.5234  2.6242 -0.4697
  133CHL1   C2316087   0.696   1.848  14.061 -0.1751  0.1055 -0.2688
  133CHL1  H23A16088   0.693   1.877  14.168 -0.0066  0.3085 -0.3190
  133CHL1  H23B16089   0.608   1.791  14.025 -1.9777  2.9501 -0.6442
  133CHL1   C2416090   0.826   1.760  14.048 -0.2868 -0.0074 -0.0438
  133CHL1  H24A16091   0.836   1.734  13.940  2.8099 -1.7765  0.5599
  133CHL1  H24B16092   0.908   1.831  14.073 -0.5617  0.2935  0.0089
  133CHL1   C2516093   0.846   1.627  14.139  0.4573 -0.3989  0.0837
  133CHL1   H2516094   0.938   1.577  14.102  1.0442 -0.2332  1.2733
  133CHL1   C2616095   0.859   1.678  14.282  0.2605 -0.2282 -0.4680
  133CHL1  H26A16096   0.892   1.594  14.346  1.2069  0.4975  0.0282
  133CHL1  H26B16097   0.930   1.763  14.293  1.2798 -0.8574 -1.8771
  133CHL1  H26C16098   0.756   1.700  14.319 -0.2073 -1.6330 -0.8644
  133CHL1   C2716099   0.728   1.525  14.119 -0.5898 -0.2688  0.3906
  133CHL1  H27A16100   0.720   1.499  14.011  2.5377  2.2447 -0.6048
  133CHL1  H27B16101   0.749   1.440  14.187 -1.7186 -1.7153 -0.9996
  133CHL1  H27C16102   0.634   1.573  14.153 -0.1284 -0.8619  2.6792
  134CHL1    C316103   6.951   3.342  12.968  0.0374  0.3751  0.3720
  134CHL1    H316104   6.848   3.301  12.973 -0.1262  0.2498 -2.4067
  134CHL1    O316105   6.955   3.381  12.832 -0.0429  0.1299  0.1886
  134CHL1   H3'16106   7.035   3.431  12.816  0.9209 -0.9084  1.4764
  134CHL1    C416107   6.982   3.459  13.061  0.6002  0.5428 -0.6405
  134CHL1   H4A16108   7.074   3.507  13.021  2.6421 -1.8217  0.9256
  134CHL1   H4B16109   6.902   3.532  13.039 -0.6622 -0.3928  0.6763
  134CHL1    C516110   7.001   3.425  13.206 -0.5555  0.1665 -0.1878
  134CHL1    C616111   6.925   3.484  13.300  0.1847 -0.3702  0.2449
  134CHL1    H616112   6.854   3.560  13.263  1.1339 -0.2571 -1.4137
  134CHL1    C716113   6.948   3.463  13.447 -0.6196  0.4113  0.5914
  134CHL1   H7A16114   6.949   3.563  13.495 -0.7165 -0.8608  3.4520
  134CHL1   H7B16115   6.859   3.411  13.489 -2.0780  3.7596  2.0032
  134CHL1    C816116   7.084   3.390  13.477  0.0424 -0.3508 -0.1064
  134CHL1    H816117   7.164   3.467  13.472 -1.3409  1.2234  0.8469
  134CHL1   C1416118   7.081   3.345  13.626 -0.0926  0.1803  0.3055
  134CHL1   H1416119   6.998   3.272  13.637  2.1928 -2.5408  0.7021
  134CHL1   C1516120   7.055   3.463  13.730 -0.3753  0.5612  1.0557
  134CHL1  H15A16121   7.137   3.536  13.717  1.6264 -1.4118  1.9348
  134CHL1  H15B16122   6.958   3.517  13.725  0.0141  1.3798  2.1002
  134CHL1   C1616123   7.089   3.383  13.861 -0.2546 -0.1630 -0.0185
  134CHL1  H16A16124   7.166   3.445  13.912 -1.3438  1.7889 -0.6289
  134CHL1  H16B16125   6.990   3.372  13.911 -1.1541  2.0083 -1.1534
  134CHL1   C1716126   7.157   3.243  13.826 -0.2808  0.1103 -0.3561
  134CHL1   H1716127   7.073   3.171  13.817 -1.6511  1.3997  1.1997
  134CHL1   C1316128   7.203   3.263  13.683 -0.1622  0.3063 -0.2293
  134CHL1   C1816129   7.327   3.346  13.672 -0.1755 -0.7233 -0.2127
  134CHL1  H18A16130   7.335   3.413  13.760 -0.9726 -3.4392  2.0932
  134CHL1  H18B16131   7.425   3.294  13.671  0.2715  0.0925  0.2032
  134CHL1  H18C16132   7.334   3.388  13.569  1.0646 -0.2434  0.0538
  134CHL1   C1216133   7.213   3.144  13.596 -0.3233 -0.1048 -0.1515
  134CHL1  H12A16134   7.315   3.108  13.622  0.0790  1.6877  0.8764
  134CHL1  H12B16135   7.132   3.073  13.623 -0.7736 -0.3416 -1.9874
  134CHL1   C1116136   7.218   3.182  13.444 -0.1260  0.1795  0.3477
  134CHL1  H11A16137   7.318   3.222  13.419  0.1622 -0.7158  0.0413
  134CHL1  H11B16138   7.220   3.083  13.394  2.0058 -0.3303  1.3520
  134CHL1    C916139   7.100   3.276  13.388 -0.4813  0.3964  0.1970
  134CHL1    H916140   7.013   3.209  13.395 -0.5135  0.4612  0.4130
  134CHL1   C1016141   7.108   3.322  13.239 -0.6093 -0.3070 -0.1006
  134CHL1   C1916142   7.254   3.374  13.204  0.4460  0.5797  0.7083
  134CHL1  H19A16143   7.255   3.422  13.104 -0.7737 -1.0187 -0.1197
  134CHL1  H19B16144   7.302   3.457  13.259  1.2481  0.3054  0.4351
  134CHL1  H19C16145   7.328   3.291  13.199 -1.7549 -1.6439  2.5146
  134CHL1    C116146   7.084   3.202  13.147 -0.7185 -0.1620  0.1397
  134CHL1   H1A16147   7.168   3.129  13.153  0.4984  1.1097 -0.6726
  134CHL1   H1B16148   6.995   3.152  13.190 -0.1689 -0.4422  0.9887
  134CHL1    C216149   7.065   3.242  12.997 -0.3261 -0.8772  0.3796
  134CHL1   H2A16150   7.062   3.154  12.929  0.2883 -0.5588 -0.0757
  134CHL1   H2B16151   7.153   3.307  12.978 -1.8066  1.6450  1.6078
  134CHL1   C2016152   7.252   3.191  13.939 -0.2290  0.1466  0.2047
  134CHL1   H2016153   7.336   3.263  13.947  0.1080 -0.2981  0.7258
  134CHL1   C2116154   7.311   3.050  13.902 -0.2348 -0.6566 -0.2272
  134CHL1  H21A16155   7.370   3.057  13.808 -1.2788  1.1956 -0.7896
  134CHL1  H21B16156   7.229   2.980  13.875 -1.3750  1.9445 -4.5443
  134CHL1  H21C16157   7.363   3.010  13.992 -1.4911  0.6251  1.1191
  134CHL1   C2216158   7.189   3.177  14.087  0.3317 -0.6140  0.2569
  134CHL1  H22A16159   7.146   3.278  14.104 -1.4223 -1.3852  0.5562
  134CHL1  H22B16160   7.110   3.101  14.071  0.1001 -0.3745  0.2559
  134CHL1   C2316161   7.274   3.131  14.201 -0.5653  0.0990 -0.2437
  134CHL1  H23A16162   7.302   3.025  14.186  2.9119  0.5095  1.9466
  134CHL1  H23B16163   7.376   3.173  14.185 -1.2884  1.6379 -0.9575
  134CHL1   C2416164   7.208   3.153  14.340  0.3033  0.1060  0.1610
  134CHL1  H24A16165   7.181   3.257  14.364 -3.4968 -0.6212 -0.4267
  134CHL1  H24B16166   7.111   3.100  14.334  0.5096 -0.1226 -2.0235
  134CHL1   C2516167   7.303   3.099  14.448 -0.1981 -1.0118  0.3389
  134CHL1   H2516168   7.405   3.122  14.412 -1.0797 -1.8657 -3.0421
  134CHL1   C2616169   7.285   3.164  14.581 -1.2576 -0.0467 -0.4689
  134CHL1  H26A16170   7.187   3.146  14.630 -0.6919 -0.3970  0.5657
  134CHL1  H26B16171   7.368   3.117  14.637 -0.6465  1.1614 -0.3164
  134CHL1  H26C16172   7.315   3.271  14.576  0.7037 -0.5894 -2.4310
  134CHL1   C2716173   7.300   2.943  14.452  0.4690 -0.3832 -0.1523
  134CHL1  H27A16174   7.376   2.906  14.525 -0.2158  0.0990  0.8252
  134CHL1  H27B16175   7.196   2.916  14.479 -0.1648  0.4275 -1.6376
  134CHL1  H27C16176   7.328   2.900  14.353  3.3500 -1.7882  1.1404
  135CHL1    C316177   6.471   3.271  12.846 -0.2118  0.2734 -0.6616
  135CHL1    H316178   6.567   3.327  12.849  1.1952 -1.9980 -0.5392
  135CHL1    O316179   6.425   3.263  12.713 -0.2170  0.3652  0.8309
  135CHL1   H3'16180   6.329   3.253  12.714 -0.2256 -0.1410 -0.8549
  135CHL1    C416181   6.485   3.128  12.906 -0.1891 -0.0634 -0.3607
  135CHL1   H4A16182   6.385   3.081  12.900 -0.1700 -0.1206 -0.2374
  135CHL1   H4B16183   6.558   3.070  12.845  0.1582  1.3503 -1.3390
  135CHL1    C516184   6.526   3.132  13.054 -0.3178 -0.2727  0.1096
  135CHL1    C616185   6.641   3.082  13.094  0.6819 -0.6081 -0.1125
  135CHL1    H616186   6.713   3.021  13.038  0.1520  0.4688 -2.0671
  135CHL1    C716187   6.676   3.091  13.244  0.0401  0.3596  0.1142
  135CHL1   H7A16188   6.715   2.993  13.278  1.2316 -0.2214 -2.6539
  135CHL1   H7B16189   6.767   3.155  13.251  0.3294  0.0785 -0.8251
  135CHL1    C816190   6.567   3.131  13.349  0.3775  0.4189 -0.2857
  135CHL1    H816191   6.500   3.044  13.365  1.7712 -0.5960  0.2421
  135CHL1   C1416192   6.644   3.167  13.472  0.6681 -0.3265 -0.4172
  135CHL1   H1416193   6.708   3.254  13.445  0.2764  0.5095  1.1492
  135CHL1   C1516194   6.739   3.064  13.533 -0.7863 -0.0458 -0.6375
  135CHL1  H15A16195   6.700   2.963  13.512 -2.5233 -0.2223  2.6442
  135CHL1  H15B16196   6.840   3.081  13.491  0.4517 -1.7236  1.4466
  135CHL1   C1616197   6.746   3.097  13.685 -0.3853 -0.1681  0.1156
  135CHL1  H16A16198   6.689   3.017  13.737  0.0536  0.4236  1.5367
  135CHL1  H16B16199   6.852   3.098  13.719 -0.2718 -2.2012 -0.0248
  135CHL1   C1716200   6.672   3.232  13.696  0.2732  0.0817 -0.0786
  135CHL1   H1716201   6.738   3.314  13.659 -1.6333  2.0972  0.7420
  135CHL1   C1316202   6.558   3.222  13.584 -0.3896  0.0997  0.3909
  135CHL1   C1816203   6.460   3.111  13.627  0.2499  0.1135  0.3305
  135CHL1  H18A16204   6.403   3.148  13.715 -1.4371 -1.3685 -0.0759
  135CHL1  H18B16205   6.382   3.079  13.555  1.1658 -1.6258  0.0325
  135CHL1  H18C16206   6.509   3.014  13.651  0.1608  0.1627  0.7184
  135CHL1   C1216207   6.484   3.349  13.528  0.0032  1.1818  0.5889
  135CHL1  H12A16208   6.414   3.401  13.597 -0.1928  1.4069  0.2278
  135CHL1  H12B16209   6.561   3.423  13.497  1.7958 -0.4048  1.1379
  135CHL1   C1116210   6.407   3.328  13.398 -0.2344 -0.3218 -0.3335
  135CHL1  H11A16211   6.315   3.265  13.404  0.3417 -1.2063 -0.6835
  135CHL1  H11B16212   6.360   3.415  13.348 -3.0727 -3.0011 -2.8188
  135CHL1    C916213   6.500   3.251  13.292  0.8396  0.1130 -0.3219
  135CHL1    H916214   6.581   3.325  13.274  2.1966 -0.9877  1.0739
  135CHL1   C1016215   6.438   3.220  13.147 -0.6889  0.1232 -0.5846
  135CHL1   C1916216   6.308   3.143  13.171 -1.0417 -0.2732 -0.0619
  135CHL1  H19A16217   6.218   3.207  13.185 -1.2438 -0.6468  0.3967
  135CHL1  H19B16218   6.279   3.074  13.090  0.5505 -1.2221  0.1503
  135CHL1  H19C16219   6.314   3.079  13.262  1.4842  0.7089  0.5436
  135CHL1    C116220   6.392   3.356  13.079  0.1202  0.1548  0.3347
  135CHL1   H1A16221   6.295   3.391  13.120  0.2081  2.7637 -1.4262
  135CHL1   H1B16222   6.472   3.429  13.107 -0.2066  0.3620  0.7408
  135CHL1    C216223   6.368   3.349  12.929  0.5008  0.1566  0.0901
  135CHL1   H2A16224   6.372   3.455  12.895 -0.4600  0.2028  0.0987
  135CHL1   H2B16225   6.266   3.316  12.901  1.0676 -1.6133 -0.0221
  135CHL1   C2016226   6.622   3.273  13.842 -0.9685  0.2757 -0.2220
  135CHL1   H2016227   6.529   3.217  13.867 -0.1336 -0.6588  0.9727
  135CHL1   C2116228   6.602   3.422  13.843  0.5906  0.0643 -0.1239
  135CHL1  H21A16229   6.559   3.440  13.944  1.2802 -0.4218  0.2628
  135CHL1  H21B16230   6.518   3.445  13.774 -0.4903  0.9341  1.4163
  135CHL1  H21C16231   6.691   3.481  13.817  1.3704  0.0476  2.2463
  135CHL1   C2216232   6.722   3.228  13.963 -0.2077  0.3654 -0.3490
  135CHL1  H22A16233   6.824   3.233  13.919 -0.3233  1.5847 -0.5272
  135CHL1  H22B16234   6.719   3.301  14.047  0.6922 -0.9044  0.8244
  135CHL1   C2316235   6.686   3.091  14.029 -0.1850 -0.7782 -0.0936
  135CHL1  H23A16236   6.579   3.092  14.059  0.0546 -0.0081  0.7623
  135CHL1  H23B16237   6.700   3.007  13.956  2.2607 -1.4657  1.0753
  135CHL1   C2416238   6.765   3.063  14.155 -0.0917  0.0249 -0.3671
  135CHL1  H24A16239   6.874   3.077  14.138 -0.0571 -1.2777 -1.3065
  135CHL1  H24B16240   6.750   3.134  14.239  1.2720 -0.4750  0.3449
  135CHL1   C2516241   6.729   2.917  14.204 -0.5986  0.1332 -0.9977
  135CHL1   H2516242   6.624   2.906  14.170 -1.4601  3.1232  0.4036
  135CHL1   C2616243   6.825   2.816  14.134  0.0784  0.2499  0.6832
  135CHL1  H26A16244   6.820   2.821  14.023  0.3234  1.5147  0.7073
  135CHL1  H26B16245   6.930   2.840  14.161  0.8656 -1.1160 -1.0292
  135CHL1  H26C16246   6.792   2.714  14.162  0.0896 -1.1638 -3.7799
  135CHL1   C2716247   6.752   2.905  14.353 -0.0655  0.3918 -0.4896
  135CHL1  H27A16248   6.737   2.800  14.387 -1.2335  0.4035 -0.9605
  135CHL1  H27B16249   6.858   2.937  14.367  0.3288  0.9158 -3.8367
  135CHL1  H27C16250   6.677   2.952  14.421  1.7596  1.0915  1.1586
  136CHL1    C316251   6.024   1.158  12.987 -0.0376  0.3404  0.3857
  136CHL1    H316252   6.066   1.252  13.028 -1.8555  1.1361  0.5165
  136CHL1    O316253   6.084   1.140  12.862 -0.1024 -0.0562  0.4404
  136CHL1   H3'16254   6.027   1.069  12.832  0.6730 -1.4847  2.1679
  136CHL1    C416255   6.072   1.049  13.089 -0.1829  0.9175  0.0714
  136CHL1   H4A16256   6.047   0.960  13.027  0.6076  0.8788 -0.1993
  136CHL1   H4B16257   6.182   1.062  13.095  0.1180 -0.2906 -1.9249
  136CHL1    C516258   6.006   1.054  13.221 -0.1030 -0.2219 -0.3614
  136CHL1    C616259   6.076   1.066  13.338 -0.3365  0.8198 -0.0544
  136CHL1    H616260   6.186   1.068  13.328 -0.1323 -0.0287  1.6692
  136CHL1    C716261   6.010   1.079  13.470 -0.3915  0.8781 -0.3923
  136CHL1   H7A16262   6.063   1.007  13.536 -0.4577  0.1723 -1.0886
  136CHL1   H7B16263   6.011   1.182  13.510 -2.6052  0.7723  0.0205
  136CHL1    C816264   5.867   1.038  13.467  0.5452  0.1784  0.3496
  136CHL1    H816265   5.844   0.930  13.455 -1.6723  0.8941 -2.9638
  136CHL1   C1416266   5.805   1.091  13.597 -0.1277  0.3703  0.1831
  136CHL1   H1416267   5.821   1.201  13.589 -2.9812  0.7975 -0.6394
  136CHL1   C1516268   5.873   1.057  13.729  0.6587  0.5047 -0.0062
  136CHL1  H15A16269   5.902   0.949  13.732  0.3535  0.4255  0.0492
  136CHL1  H15B16270   5.962   1.118  13.757  1.7608 -0.5101 -1.1144
  136CHL1   C1616271   5.761   1.071  13.835 -0.1036 -0.0833  0.5192
  136CHL1  H16A16272   5.750   0.971  13.882 -1.3763 -0.3921 -0.3735
  136CHL1  H16B16273   5.786   1.154  13.904  3.9380  0.3300 -1.1534
  136CHL1   C1716274   5.634   1.112  13.754 -0.0307 -0.4375 -0.2357
  136CHL1   H1716275   5.642   1.223  13.744 -0.3944 -0.4723 -0.9947
  136CHL1   C1316276   5.659   1.062  13.615  0.0492  0.0719 -0.6839
  136CHL1   C1816277   5.638   0.908  13.611  0.6480  0.3088  0.3430
  136CHL1  H18A16278   5.650   0.872  13.506  0.8718  0.9234  0.1512
  136CHL1  H18B16279   5.713   0.859  13.677  0.8339  1.1893  0.8028
  136CHL1  H18C16280   5.536   0.881  13.645 -0.5910  0.9165 -2.5462
  136CHL1   C1216281   5.589   1.140  13.504  0.2640  0.9679 -0.1916
  136CHL1  H12A16282   5.478   1.142  13.502  0.2510  1.3325  0.6771
  136CHL1  H12B16283   5.611   1.247  13.521 -0.2067  1.0595 -0.1537
  136CHL1   C1116284   5.639   1.095  13.360  0.2689  1.1692  0.2931
  136CHL1  H11A16285   5.609   0.990  13.339 -2.1323  1.8548  0.0043
  136CHL1  H11B16286   5.590   1.155  13.280  0.9786  0.3298 -0.8142
  136CHL1    C916287   5.795   1.104  13.356 -0.6086 -0.0017  0.2066
  136CHL1    H916288   5.820   1.212  13.364 -0.4613  0.1389 -1.7937
  136CHL1   C1016289   5.853   1.069  13.217 -0.1485  0.2434  0.1740
  136CHL1   C1916290   5.783   0.939  13.166 -0.1199 -0.3664  0.0133
  136CHL1  H19A16291   5.828   0.895  13.075  1.0119  0.2287  0.2635
  136CHL1  H19B16292   5.801   0.864  13.245  0.1457  0.3342  0.6357
  136CHL1  H19C16293   5.677   0.947  13.135  0.9088  1.9412 -3.4770
  136CHL1    C116294   5.815   1.178  13.107  0.2019  0.0542 -0.0848
  136CHL1   H1A16295   5.704   1.178  13.101 -0.0252 -2.4090  2.1355
  136CHL1   H1B16296   5.843   1.275  13.152  0.8644  0.9498 -2.3264
  136CHL1    C216297   5.874   1.167  12.968 -0.3136 -0.7621  0.1236
  136CHL1   H2A16298   5.851   1.258  12.909  4.1518 -0.5481 -1.6893
  136CHL1   H2B16299   5.833   1.078  12.915 -2.2320 -1.1597  2.1258
  136CHL1   C2016300   5.499   1.073  13.824  0.1045  0.0283 -0.1919
  136CHL1   H2016301   5.499   0.962  13.822  2.0519 -0.1022  2.0324
  136CHL1   C2116302   5.373   1.122  13.746  0.4168 -0.8644 -0.7395
  136CHL1  H21A16303   5.405   1.222  13.708  0.4997 -0.3882  0.5373
  136CHL1  H21B16304   5.282   1.134  13.808  0.7861 -0.2077 -0.3155
  136CHL1  H21C16305   5.338   1.055  13.665 -1.6876 -0.1424 -0.4885
  136CHL1   C2216306   5.492   1.116  13.979 -0.1571 -0.0206  0.5956
  136CHL1  H22A16307   5.589   1.079  14.018 -0.6473 -2.7623 -0.5886
  136CHL1  H22B16308   5.488   1.227  13.977 -1.5661 -0.0618  0.7246
  136CHL1   C2316309   5.381   1.047  14.060 -0.4452  0.5527  0.4466
  136CHL1  H23A16310   5.279   1.087  14.046 -0.9795 -0.2805  1.7367
  136CHL1  H23B16311   5.380   0.950  14.006 -1.9605  0.3379  0.8174
  136CHL1   C2416312   5.408   1.028  14.211  0.6382 -0.3684  0.4386
  136CHL1  H24A16313   5.328   0.953  14.232  0.5922 -0.9390 -1.5340
  136CHL1  H24B16314   5.514   0.997  14.221  0.7323 -0.4080 -0.5411
  136CHL1   C2516315   5.387   1.162  14.289 -0.1048 -0.4414 -0.4301
  136CHL1   H2516316   5.440   1.151  14.386 -1.9468 -2.9127  0.4282
  136CHL1   C2616317   5.435   1.293  14.220 -0.6321  0.4441 -0.3735
  136CHL1  H26A16318   5.539   1.289  14.183 -0.9244  0.5297 -1.2528
  136CHL1  H26B16319   5.371   1.320  14.133 -0.7288 -0.0402 -0.4549
  136CHL1  H26C16320   5.427   1.383  14.284  0.2459  0.1981  0.0848
  136CHL1   C2716321   5.247   1.191  14.330 -0.2753 -0.5405  0.2092
  136CHL1  H27A16322   5.257   1.277  14.399 -3.5516  0.3491 -0.2494
  136CHL1  H27B16323   5.193   1.226  14.239 -1.5825  0.7492  1.4158
  136CHL1  H27C16324   5.197   1.106  14.381 -0.8965  0.1521  0.7704
  137CHL1    C316325   0.998   1.707  12.680  0.5130  0.1039 -0.2403
  137CHL1    H316326   1.026   1.814  12.669  1.2881 -0.1187 -0.4521
  137CHL1    O316327   0.975   1.663  12.546  0.2132 -0.1636  0.3631
  137CHL1   H3'16328   1.054   1.610  12.528  0.8096  0.2263  1.7519
  137CHL1    C416329   1.109   1.626  12.741  0.4018 -0.7684 -0.3985
  137CHL1   H4A16330   1.080   1.520  12.727 -0.0139 -0.9352  1.3833
  137CHL1   H4B16331   1.205   1.629  12.686  0.6203 -1.9197 -0.0842
  137CHL1    C516332   1.125   1.664  12.891 -0.1772 -0.3738  0.0072
  137CHL1    C616333   1.244   1.709  12.935 -0.0769 -0.1663 -0.5379
  137CHL1    H616334   1.334   1.708  12.871  0.5046 -1.3000  0.2804
  137CHL1    C716335   1.266   1.730  13.085  0.1011 -0.4726 -0.4256
  137CHL1   H7A16336   1.366   1.699  13.123  0.2408 -0.0692 -0.4512
  137CHL1   H7B16337   1.266   1.840  13.106  1.7687 -0.3763 -0.7881
  137CHL1    C816338   1.149   1.675  13.174 -0.5302 -0.3550 -0.0888
  137CHL1    H816339   1.171   1.566  13.169 -0.1481 -0.3151  0.5276
  137CHL1   C1416340   1.166   1.719  13.323 -0.4246  0.0339 -0.8924
  137CHL1   H1416341   1.138   1.827  13.322 -1.7946 -0.1146  3.4528
  137CHL1   C1516342   1.302   1.717  13.393 -0.4285 -0.4035 -0.1020
  137CHL1  H15A16343   1.349   1.617  13.378 -0.3127 -0.5799  1.2609
  137CHL1  H15B16344   1.367   1.797  13.351  0.1669  0.9679  3.1200
  137CHL1   C1616345   1.277   1.747  13.540 -0.9051  0.4318  0.9080
  137CHL1  H16A16346   1.339   1.674  13.598 -0.5415  0.0929  0.1125
  137CHL1  H16B16347   1.316   1.844  13.579 -1.9311  1.5593 -0.7801
  137CHL1   C1716348   1.119   1.735  13.565 -0.1165  0.6443  1.0361
  137CHL1   H1716349   1.081   1.839  13.574 -1.8297  0.1718 -0.1880
  137CHL1   C1316350   1.072   1.661  13.428  0.4000 -0.4187  0.0020
  137CHL1   C1816351   1.096   1.508  13.440 -0.1825  0.2126  0.1971
  137CHL1  H18A16352   1.026   1.455  13.508 -1.9392  0.1315 -1.5952
  137CHL1  H18B16353   1.087   1.458  13.341  0.3096  1.8132 -0.6960
  137CHL1  H18C16354   1.200   1.487  13.473 -0.0290 -0.9415 -0.9100
  137CHL1   C1216355   0.934   1.698  13.374  0.4104 -0.2478  0.0598
  137CHL1  H12A16356   0.857   1.654  13.440 -1.6598  2.2280 -0.5666
  137CHL1  H12B16357   0.926   1.809  13.373  0.0994 -0.2658  0.4219
  137CHL1   C1116358   0.910   1.650  13.224  0.5118  0.3650 -0.2739
  137CHL1  H11A16359   0.923   1.540  13.230  1.9135  0.5861  2.0000
  137CHL1  H11B16360   0.806   1.685  13.205  0.0376  1.3486  3.3524
  137CHL1    C916361   1.013   1.707  13.117  1.3231  0.8930  0.4008
  137CHL1    H916362   1.011   1.818  13.110  2.5884  1.0974  2.3781
  137CHL1   C1016363   0.991   1.656  12.977  0.1315  0.4367 -0.3716
  137CHL1   C1916364   0.942   1.499  12.978 -0.2570  0.5160  0.1580
  137CHL1  H19A16365   1.019   1.464  13.050  0.6124  3.8093  1.0141
  137CHL1  H19B16366   0.845   1.464  13.018 -0.1568 -0.0116 -0.0614
  137CHL1  H19C16367   0.947   1.450  12.879 -0.2955  0.2959  0.2649
  137CHL1    C116368   0.881   1.739  12.904 -0.5870  0.4989  0.5668
  137CHL1   H1A16369   0.787   1.716  12.957 -0.1862 -0.0613  1.0359
  137CHL1   H1B16370   0.911   1.846  12.910 -1.7008  0.8453  0.1394
  137CHL1    C216371   0.863   1.699  12.760  0.5498 -0.1466 -0.0294
  137CHL1   H2A16372   0.788   1.758  12.703 -1.0329  0.7439  2.7787
  137CHL1   H2B16373   0.815   1.599  12.748 -0.0146  0.2810 -1.7168
  137CHL1   C2016374   1.086   1.671  13.701  0.6633  0.5526 -0.8323
  137CHL1   H2016375   1.134   1.571  13.707 -1.9477 -0.7204  0.8405
  137CHL1   C2116376   0.932   1.633  13.709 -0.6009 -0.5426  0.0898
  137CHL1  H21A16377   0.913   1.553  13.634  2.2259 -1.8050  0.5732
  137CHL1  H21B16378   0.859   1.715  13.692 -0.8685 -0.6511  0.6990
  137CHL1  H21C16379   0.908   1.588  13.807  3.9236  0.2083  1.7899
  137CHL1   C2216380   1.133   1.750  13.820 -0.3739 -0.1583  0.3843
  137CHL1  H22A16381   1.227   1.804  13.796  0.8607 -3.0598 -1.8884
  137CHL1  H22B16382   1.062   1.832  13.844  2.2786  2.7124 -0.7530
  137CHL1   C2316383   1.180   1.672  13.945  0.2466  0.0424  0.6013
  137CHL1  H23A16384   1.086   1.631  13.989  0.1517  1.1189  1.4528
  137CHL1  H23B16385   1.248   1.591  13.911  0.4476  0.6130 -0.4005
  137CHL1   C2416386   1.239   1.765  14.050 -0.0019 -0.4146 -0.8293
  137CHL1  H24A16387   1.334   1.814  14.018 -0.3715  0.8494 -0.0912
  137CHL1  H24B16388   1.164   1.847  14.053 -0.4178 -0.8227  1.2907
  137CHL1   C2516389   1.245   1.706  14.192 -0.2835  0.7206  0.3616
  137CHL1   H2516390   1.143   1.696  14.234 -1.4734  0.7540 -2.3389
  137CHL1   C2616391   1.318   1.574  14.190 -0.6860 -0.0618  0.3233
  137CHL1  H26A16392   1.336   1.534  14.292 -1.7811 -2.9727 -0.5019
  137CHL1  H26B16393   1.263   1.497  14.132 -0.2067 -0.3325  0.2245
  137CHL1  H26C16394   1.417   1.594  14.146 -0.8696 -0.0926 -0.1066
  137CHL1   C2716395   1.309   1.814  14.280  0.4005  0.0188  0.2086
  137CHL1  H27A16396   1.257   1.911  14.268  0.4719  0.0588  0.2234
  137CHL1  H27B16397   1.299   1.787  14.388 -0.9194  1.7839  0.5595
  137CHL1  H27C16398   1.418   1.810  14.259  0.6139 -3.6200  1.3092
  138CHL1    C316399   6.612   0.423  13.047 -0.3351  0.2438  0.4062
  138CHL1    H316400   6.619   0.534  13.051  0.7416  0.1578  1.7663
  138CHL1    O316401   6.618   0.382  12.911  0.1874 -0.4561  0.1764
  138CHL1   H3'16402   6.541   0.424  12.871 -0.2515 -0.5809  0.8734
  138CHL1    C416403   6.730   0.347  13.123  0.5353 -0.3013 -0.0982
  138CHL1   H4A16404   6.733   0.239  13.095 -0.5104  0.1424 -2.1321
  138CHL1   H4B16405   6.828   0.384  13.087  0.2545  0.7168  0.1488
  138CHL1    C516406   6.714   0.370  13.271 -0.8077 -0.9472  0.3851
  138CHL1    C616407   6.814   0.411  13.352 -0.4534 -0.1204  0.4712
  138CHL1    H616408   6.907   0.427  13.296 -0.3036 -1.4924  0.2947
  138CHL1    C716409   6.802   0.431  13.505 -0.2873  0.6059  0.6694
  138CHL1   H7A16410   6.894   0.399  13.558 -1.2679 -3.1134  0.4238
  138CHL1   H7B16411   6.798   0.536  13.541 -0.5723  0.5666  0.7488
  138CHL1    C816412   6.688   0.350  13.561 -0.1109 -0.0016 -0.4143
  138CHL1    H816413   6.711   0.242  13.551 -1.2670 -0.2086 -1.0272
  138CHL1   C1416414   6.667   0.391  13.706  0.7309 -0.0342 -1.1246
  138CHL1   H1416415   6.651   0.501  13.709  1.0007 -0.0250  0.2445
  138CHL1   C1516416   6.785   0.357  13.797 -0.5935  0.3427  0.7194
  138CHL1  H15A16417   6.824   0.259  13.763 -1.7584  0.0960  0.0246
  138CHL1  H15B16418   6.870   0.427  13.785  0.8379 -1.1783  1.6384
  138CHL1   C1616419   6.718   0.355  13.934  0.5293 -0.3365  0.8241
  138CHL1  H16A16420   6.720   0.252  13.974  1.6829 -0.3003  0.9092
  138CHL1  H16B16421   6.760   0.433  14.002 -0.8020  2.1036 -0.9650
  138CHL1   C1716422   6.564   0.378  13.920  1.0524 -0.1170 -0.3286
  138CHL1   H1716423   6.551   0.488  13.926  1.4234  0.1940 -3.5614
  138CHL1   C1316424   6.540   0.330  13.770 -0.1356 -0.3185  0.3234
  138CHL1   C1816425   6.538   0.175  13.777 -0.6479 -0.2270 -0.0147
  138CHL1  H18A16426   6.619   0.135  13.842  1.6196  0.4633 -2.2270
  138CHL1  H18B16427   6.437   0.136  13.803 -0.5112  0.4826  1.7267
  138CHL1  H18C16428   6.558   0.132  13.676  0.2144  0.5670 -0.1947
  138CHL1   C1216429   6.427   0.395  13.690  0.5856  0.2001 -0.3687
  138CHL1  H12A16430   6.331   0.362  13.735 -0.1337 -0.5757 -2.3695
  138CHL1  H12B16431   6.447   0.505  13.691  1.4300  0.0562 -0.5768
  138CHL1   C1116432   6.426   0.354  13.544 -0.1847 -0.8848 -0.4387
  138CHL1  H11A16433   6.410   0.244  13.545 -1.3398 -0.7530 -1.4436
  138CHL1  H11B16434   6.346   0.403  13.486 -1.2991 -0.9146  1.0141
  138CHL1    C916435   6.564   0.391  13.478  0.1492  0.3706 -0.1330
  138CHL1    H916436   6.565   0.502  13.486  1.7304  0.4943 -1.4653
  138CHL1   C1016437   6.574   0.347  13.332 -1.1055  0.1381  0.4550
  138CHL1   C1916438   6.556   0.194  13.329  0.2274  0.1981 -0.2069
  138CHL1  H19A16439   6.455   0.155  13.355  1.3290 -1.8341  1.3118
  138CHL1  H19B16440   6.567   0.167  13.222  0.4606  0.8017 -0.3396
  138CHL1  H19C16441   6.619   0.130  13.394 -1.2230  0.3753  1.4749
  138CHL1    C116442   6.475   0.418  13.243  0.6420 -0.0806 -0.1007
  138CHL1   H1A16443   6.373   0.396  13.279  0.6328  0.2820  0.1063
  138CHL1   H1B16444   6.492   0.528  13.252  1.5896 -0.2509  0.3940
  138CHL1    C216445   6.473   0.380  13.097 -0.1583 -0.3878 -0.4791
  138CHL1   H2A16446   6.396   0.439  13.044  0.2108 -0.3210 -0.9470
  138CHL1   H2B16447   6.453   0.273  13.076  0.9180 -0.9643  1.1721
  138CHL1   C2016448   6.473   0.319  14.033 -0.0564  0.2359 -0.6828
  138CHL1   H2016449   6.492   0.210  14.031  3.4303  0.6824  0.7443
  138CHL1   C2116450   6.328   0.343  14.005 -1.0387 -0.4175 -0.2465
  138CHL1  H21A16451   6.283   0.287  13.920 -1.4723 -1.6774  0.7828
  138CHL1  H21B16452   6.322   0.450  13.978  3.2576  0.1987  0.5736
  138CHL1  H21C16453   6.277   0.320  14.101 -0.0442  0.0588  0.4028
  138CHL1   C2216454   6.499   0.368  14.177 -0.3704  0.2210 -0.6940
  138CHL1  H22A16455   6.447   0.302  14.250  1.1403  0.4202  0.6163
  138CHL1  H22B16456   6.607   0.356  14.200 -0.2761  1.1274 -0.6170
  138CHL1   C2316457   6.468   0.520  14.199  0.7928  0.5954 -0.0599
  138CHL1  H23A16458   6.542   0.577  14.139 -0.1722 -1.3261 -3.3330
  138CHL1  H23B16459   6.363   0.542  14.171 -0.1023 -1.9920  0.9790
  138CHL1   C2416460   6.484   0.582  14.346  0.3636 -0.1292 -0.3171
  138CHL1  H24A16461   6.529   0.499  14.405 -1.1693  0.4939  1.8693
  138CHL1  H24B16462   6.555   0.665  14.362 -0.4956  0.2111  2.2468
  138CHL1   C2516463   6.350   0.594  14.423 -0.8117 -0.5023  0.0297
  138CHL1   H2516464   6.277   0.666  14.381 -2.0924 -1.3450  0.7500
  138CHL1   C2616465   6.266   0.467  14.427  0.4281 -0.0778  0.2006
  138CHL1  H26A16466   6.314   0.384  14.483 -1.0315 -0.5029  0.8699
  138CHL1  H26B16467   6.168   0.488  14.475  0.7454 -0.1082  0.8713
  138CHL1  H26C16468   6.242   0.439  14.323  0.5816  2.3107 -0.5379
  138CHL1   C2716469   6.382   0.647  14.564  0.0148 -0.3904 -0.0903
  138CHL1  H27A16470   6.432   0.746  14.565 -1.3093  0.3283 -1.1047
  138CHL1  H27B16471   6.285   0.663  14.616  0.7809  1.3591  0.8830
  138CHL1  H27C16472   6.436   0.563  14.610 -1.0786 -0.9823  0.1483
  139CHL1    C316473   1.027   6.598  13.190 -0.7746  0.3056 -0.1442
  139CHL1    H316474   0.934   6.544  13.220 -1.8024  1.1143 -1.7723
  139CHL1    O316475   0.997   6.700  13.094  0.7441 -0.3317 -0.4278
  139CHL1   H3'16476   0.933   6.657  13.037 -1.2235  0.3336  1.1704
  139CHL1    C416477   1.096   6.661  13.306  0.4612  0.1316  0.1128
  139CHL1   H4A16478   1.194   6.706  13.277  0.1100  0.5443 -0.4594
  139CHL1   H4B16479   1.032   6.748  13.331  1.8100  1.2202 -0.0812
  139CHL1    C516480   1.118   6.567  13.415 -0.4117 -0.2142 -0.6352
  139CHL1    C616481   1.055   6.568  13.534  0.1101 -0.3393  0.6356
  139CHL1    H616482   0.986   6.651  13.553  1.3470  0.9872 -0.4260
  139CHL1    C716483   1.079   6.464  13.646  0.1048 -0.6755  0.4651
  139CHL1   H7A16484   1.085   6.512  13.746  2.2485  0.3428 -0.1096
  139CHL1   H7B16485   0.989   6.399  13.641 -0.4498  0.1420 -2.6230
  139CHL1    C816486   1.206   6.379  13.621 -0.5358  0.7895  0.0319
  139CHL1    H816487   1.295   6.443  13.643 -1.0957  1.5353  0.1831
  139CHL1   C1416488   1.208   6.258  13.710  0.0958 -0.0873 -0.1687
  139CHL1   H1416489   1.130   6.185  13.679 -1.7649  1.8688 -0.3325
  139CHL1   C1516490   1.175   6.278  13.857 -0.0257  0.2974 -0.2278
  139CHL1  H15A16491   1.217   6.373  13.897 -0.0612  0.0062  0.5122
  139CHL1  H15B16492   1.067   6.270  13.880 -0.0135  0.6153 -0.0494
  139CHL1   C1616493   1.248   6.168  13.923 -0.4772  0.4914  0.8310
  139CHL1  H16A16494   1.324   6.225  13.981 -0.0166  1.8395 -0.9883
  139CHL1  H16B16495   1.183   6.110  13.991 -0.4833  0.8113  1.1027
  139CHL1   C1716496   1.324   6.078  13.817  0.3681  0.2393 -0.0587
  139CHL1   H1716497   1.255   5.999  13.781  2.3991 -0.9382 -1.5660
  139CHL1   C1316498   1.343   6.179  13.698 -0.2043 -0.2446  0.2323
  139CHL1   C1816499   1.468   6.264  13.734 -0.0233 -0.0572 -0.1091
  139CHL1  H18A16500   1.554   6.193  13.736 -0.0768 -0.1231 -0.1007
  139CHL1  H18B16501   1.500   6.342  13.662 -0.6804  0.1594 -0.1763
  139CHL1  H18C16502   1.450   6.315  13.831  1.5036 -0.3515  0.3574
  139CHL1   C1216503   1.343   6.124  13.554  0.2321  0.0645 -0.7748
  139CHL1  H12A16504   1.438   6.070  13.534  0.4323  0.2158 -0.2419
  139CHL1  H12B16505   1.255   6.056  13.548 -0.6309  0.8261  1.8091
  139CHL1   C1116506   1.330   6.235  13.448  0.0324 -0.0027  0.0624
  139CHL1  H11A16507   1.428   6.285  13.457 -1.2537  2.5010  1.3706
  139CHL1  H11B16508   1.314   6.188  13.348 -0.6639 -0.4990  0.3939
  139CHL1    C916509   1.214   6.335  13.476 -0.2949  0.1912  0.2930
  139CHL1    H916510   1.116   6.284  13.462 -0.3620 -0.2747  2.1500
  139CHL1   C1016511   1.219   6.454  13.372  0.3010  1.0117 -1.0031
  139CHL1   C1916512   1.364   6.513  13.363  0.0046  0.0477 -0.1138
  139CHL1  H19A16513   1.428   6.442  13.306 -0.0561 -1.1337  1.2497
  139CHL1  H19B16514   1.362   6.609  13.308 -0.7071 -0.5150 -1.1063
  139CHL1  H19C16515   1.411   6.543  13.458 -2.1309  1.4083  0.5824
  139CHL1    C116516   1.172   6.393  13.235 -0.5487  0.0505  0.1077
  139CHL1   H1A16517   1.257   6.330  13.203 -0.3529  0.1693  0.3970
  139CHL1   H1B16518   1.088   6.326  13.262 -1.0994 -0.3950 -2.4659
  139CHL1    C216519   1.123   6.492  13.128 -0.6498 -0.3175 -0.4745
  139CHL1   H2A16520   1.066   6.446  13.044 -3.5531  1.6220  0.2765
  139CHL1   H2B16521   1.207   6.538  13.072 -1.2775  1.5724  0.0819
  139CHL1   C2016522   1.443   6.005  13.876 -0.5284 -0.0495  0.3486
  139CHL1   H2016523   1.515   6.084  13.907  0.5516 -1.7943  2.4958
  139CHL1   C2116524   1.505   5.919  13.761 -0.0891  0.0747 -0.6404
  139CHL1  H21A16525   1.558   5.990  13.694  0.6297  0.0762 -0.0842
  139CHL1  H21B16526   1.431   5.856  13.708  1.3360  0.0111 -2.6672
  139CHL1  H21C16527   1.581   5.857  13.813  0.0116  0.4938 -0.2849
  139CHL1   C2216528   1.407   5.917  13.997  0.5245 -0.2622  0.1176
  139CHL1  H22A16529   1.350   5.983  14.066  0.8424  1.6556 -1.3652
  139CHL1  H22B16530   1.346   5.833  13.957  1.7144 -1.1335  0.0880
  139CHL1   C2316531   1.521   5.859  14.085 -0.7639 -0.2965 -0.2007
  139CHL1  H23A16532   1.613   5.820  14.038 -0.0992  0.9494  0.0114
  139CHL1  H23B16533   1.551   5.943  14.152 -1.7110 -0.7512  0.8187
  139CHL1   C2416534   1.465   5.744  14.171  0.2687  0.5291 -0.4873
  139CHL1  H24A16535   1.364   5.755  14.217  0.9983  0.6915  1.1460
  139CHL1  H24B16536   1.442   5.661  14.101  0.2957 -0.9095  1.1383
  139CHL1   C2516537   1.566   5.692  14.267  0.1227 -0.0224 -0.4311
  139CHL1   H2516538   1.665   5.671  14.220  1.9102 -0.7308  3.2730
  139CHL1   C2616539   1.596   5.785  14.377 -0.4020  0.1589  0.1083
  139CHL1  H26A16540   1.671   5.742  14.448  2.3217  4.2537  0.0197
  139CHL1  H26B16541   1.643   5.879  14.340 -0.2485 -0.0071 -0.1258
  139CHL1  H26C16542   1.500   5.804  14.429  0.8923 -1.2268  3.2796
  139CHL1   C2716543   1.521   5.559  14.328  0.5869 -0.1057 -0.0279
  139CHL1  H27A16544   1.600   5.518  14.394 -0.0496  0.9507  1.4735
  139CHL1  H27B16545   1.440   5.579  14.402  1.6656 -0.7916  1.3724
  139CHL1  H27C16546   1.491   5.495  14.242 -1.8360  1.0788 -0.1656
  140CHL1    C316547   7.475   0.575  12.976  0.2940  0.1509 -0.4939
  140CHL1    H316548   7.467   0.685  12.989 -1.0714 -0.2816  3.6757
  140CHL1    O316549   7.504   0.532  12.848  0.0917 -0.0834  0.2945
  140CHL1   H3'16550   7.450   0.588  12.791 -1.2298 -0.3666  1.2389
  140CHL1    C416551   7.588   0.525  13.073  0.2900 -0.8303  0.1360
  140CHL1   H4A16552   7.601   0.421  13.038 -0.2390 -0.9027  0.1464
  140CHL1   H4B16553   7.676   0.588  13.050 -1.5584  1.8695 -0.1433
  140CHL1    C516554   7.546   0.546  13.217  0.6972 -0.1444 -0.5886
  140CHL1    C616555   7.617   0.626  13.299 -0.3424 -0.2399 -0.2522
  140CHL1    H616556   7.701   0.687  13.263 -1.1050  1.9770  1.4655
  140CHL1    C716557   7.598   0.643  13.446 -0.5018  0.1754  0.2027
  140CHL1   H7A16558   7.694   0.634  13.502 -0.5476  0.4069  0.3219
  140CHL1   H7B16559   7.554   0.743  13.467  1.1918  0.8896  0.5315
  140CHL1    C816560   7.492   0.540  13.493 -0.0154 -0.1586 -0.3677
  140CHL1    H816561   7.542   0.441  13.494 -0.9847 -0.6482 -0.1064
  140CHL1   C1416562   7.441   0.573  13.633 -0.2150 -0.0931  0.3119
  140CHL1   H1416563   7.386   0.668  13.615  0.5411  0.3673  0.3920
  140CHL1   C1516564   7.552   0.590  13.730 -0.2418  0.1581 -1.1148
  140CHL1  H15A16565   7.632   0.512  13.726 -0.7745 -0.4077 -0.8454
  140CHL1  H15B16566   7.611   0.683  13.716  0.0845 -0.0464 -1.1184
  140CHL1   C1616567   7.486   0.580  13.873 -0.2626 -0.6554 -0.6830
  140CHL1  H16A16568   7.554   0.523  13.939 -0.2921  1.7231  1.5709
  140CHL1  H16B16569   7.464   0.683  13.909  2.6285  0.2126 -1.1814
  140CHL1   C1716570   7.337   0.537  13.843  0.8492 -0.4390  0.2940
  140CHL1   H1716571   7.280   0.631  13.830  0.3604 -0.9302 -1.3369
  140CHL1   C1316572   7.339   0.483  13.700 -0.9603  0.2080 -0.2731
  140CHL1   C1816573   7.394   0.333  13.700 -0.3524 -0.5340 -0.1815
  140CHL1  H18A16574   7.397   0.298  13.595 -3.3896  3.1112 -1.7126
  140CHL1  H18B16575   7.498   0.326  13.740  0.8792 -0.0872 -3.0784
  140CHL1  H18C16576   7.327   0.269  13.761 -0.8858 -1.9184 -2.1497
  140CHL1   C1216577   7.217   0.496  13.614  0.1922  0.1663  0.1817
  140CHL1  H12A16578   7.135   0.429  13.647  0.6960  0.4291  2.0830
  140CHL1  H12B16579   7.178   0.599  13.629  1.4250  0.7633 -0.5382
  140CHL1   C1116580   7.240   0.458  13.468 -0.6736 -0.3036 -0.2555
  140CHL1  H11A16581   7.244   0.348  13.457  1.8716 -0.4270  1.2062
  140CHL1  H11B16582   7.155   0.501  13.412 -0.2925  0.3561 -0.3440
  140CHL1    C916583   7.368   0.527  13.408  0.0273 -0.2129  0.4575
  140CHL1    H916584   7.336   0.633  13.398  0.9938  0.0157 -0.4712
  140CHL1   C1016585   7.409   0.479  13.261 -0.6890  0.5227 -0.8938
  140CHL1   C1916586   7.415   0.328  13.259 -0.0409  0.3237  0.4388
  140CHL1  H19A16587   7.477   0.296  13.346 -1.2520 -0.2059  1.1351
  140CHL1  H19B16588   7.310   0.292  13.269 -0.2702  1.0582  0.7430
  140CHL1  H19C16589   7.461   0.290  13.165  1.9812  2.4655  0.4786
  140CHL1    C116590   7.304   0.537  13.163 -0.6531 -0.0985  0.1668
  140CHL1   H1A16591   7.210   0.486  13.192  0.3024 -3.9942 -2.8412
  140CHL1   H1B16592   7.299   0.646  13.186 -1.7782  0.0699 -0.7724
  140CHL1    C216593   7.340   0.515  13.014 -0.5992  0.9787 -0.2459
  140CHL1   H2A16594   7.260   0.559  12.951 -0.7459 -0.2813 -0.9793
  140CHL1   H2B16595   7.348   0.405  13.006  0.2892  0.9955  0.2196
  140CHL1   C2016596   7.272   0.448  13.946  0.4021  0.4610 -0.0474
  140CHL1   H2016597   7.318   0.348  13.950 -1.5300 -0.4567  0.5762
  140CHL1   C2116598   7.130   0.421  13.915 -0.5165 -0.3940 -0.4525
  140CHL1  H21A16599   7.067   0.507  13.884  0.9106  0.5853 -0.6860
  140CHL1  H21B16600   7.083   0.375  14.005  0.1819  1.4797  0.9236
  140CHL1  H21C16601   7.129   0.345  13.834  0.2463  1.4807 -2.3115
  140CHL1   C2216602   7.290   0.500  14.088  0.5659  0.0151 -0.1695
  140CHL1  H22A16603   7.397   0.524  14.105  0.2556  0.2019  1.7205
  140CHL1  H22B16604   7.228   0.592  14.094 -0.4154 -0.5268 -1.3394
  140CHL1   C2316605   7.253   0.410  14.207 -0.1837  0.4124  0.2896
  140CHL1  H23A16606   7.151   0.367  14.208  0.2532 -0.7067 -0.5601
  140CHL1  H23B16607   7.318   0.322  14.188 -0.4493 -0.0136  1.3191
  140CHL1   C2416608   7.294   0.475  14.340 -0.0210 -0.6030 -0.3098
  140CHL1  H24A16609   7.391   0.530  14.334  1.0216 -2.5335 -2.2149
  140CHL1  H24B16610   7.215   0.547  14.371 -0.9373 -1.6123 -0.2495
  140CHL1   C2516611   7.320   0.386  14.458  0.6911  0.2069  0.3359
  140CHL1   H2516612   7.404   0.328  14.416  0.0309 -0.9250  0.5249
  140CHL1   C2616613   7.215   0.279  14.484  0.3963 -0.5045 -0.1051
  140CHL1  H26A16614   7.118   0.328  14.509 -0.3674 -0.3382 -2.9676
  140CHL1  H26B16615   7.200   0.209  14.399  0.0172 -2.4886  1.5425
  140CHL1  H26C16616   7.250   0.216  14.568  3.6186  1.2535  0.0545
  140CHL1   C2716617   7.343   0.477  14.584 -0.2467  0.0993 -0.0704
  140CHL1  H27A16618   7.425   0.548  14.559 -0.2010  0.2768  0.5724
  140CHL1  H27B16619   7.252   0.537  14.606  0.0239  0.6316 -0.3589
  140CHL1  H27C16620   7.371   0.403  14.661  3.1159 -2.5169 -3.4586
  141DOPC     N16621   3.734   3.243  16.604  0.3363  0.0003  0.1945
  141DOPC   C1216622   3.738   3.252  16.453  0.7423 -0.1190 -0.8386
  141DOPC  H12A16623   3.776   3.161  16.408 -0.2950  0.1650 -2.3635
  141DOPC  H12B16624   3.806   3.332  16.430 -1.2418  1.3516 -1.9430
  141DOPC   C1316625   3.876   3.261  16.656 -0.0098 -0.0499 -0.3094
  141DOPC  H13A16626   3.921   3.355  16.625  1.8146 -0.0513  2.0265
  141DOPC  H13B16627   3.879   3.273  16.763 -1.0523  3.0990 -0.5145
  141DOPC  H13C16628   3.943   3.179  16.633  0.7065  0.2155  0.7491
  141DOPC   C1416629   3.671   3.113  16.644  0.3781 -0.2741  0.1747
  141DOPC  H14A16630   3.563   3.109  16.652  0.0060  2.8084 -1.6289
  141DOPC  H14B16631   3.723   3.027  16.607  0.2925  0.0364 -0.6860
  141DOPC  H14C16632   3.698   3.102  16.748  0.6823 -2.8905 -0.1372
  141DOPC   C1516633   3.662   3.356  16.659 -0.0927  0.4346 -0.3826
  141DOPC  H15A16634   3.665   3.349  16.767  0.4291  1.2746 -0.3295
  141DOPC  H15B16635   3.567   3.349  16.608 -0.1063 -0.1230 -0.2870
  141DOPC  H15C16636   3.719   3.440  16.623 -0.9371  0.2944 -2.1175
  141DOPC   C1116637   3.606   3.274  16.386 -0.1873  0.0576  0.2528
  141DOPC  H11A16638   3.589   3.379  16.418  1.9667  0.1337  1.3481
  141DOPC  H11B16639   3.609   3.272  16.275 -1.8856 -0.5408  0.1870
  141DOPC     P16640   3.351   3.193  16.410 -0.1789 -0.4450 -0.1555
  141DOPC   O1316641   3.309   3.317  16.480 -0.4038  0.2172 -0.0990
  141DOPC   O1416642   3.285   3.066  16.457 -0.3725 -0.0324  0.0696
  141DOPC   O1216643   3.506   3.175  16.435  0.4616 -0.3833 -0.0852
  141DOPC   O1116644   3.340   3.210  16.256  0.0533 -0.2361  0.0705
  141DOPC    C116645   3.274   3.124  16.161 -0.0690  0.1428 -0.3309
  141DOPC    HA16646   3.196   3.177  16.101 -2.3846 -0.6687  1.8082
  141DOPC    HB16647   3.209   3.046  16.204  0.8513 -0.4789 -0.0432
  141DOPC    C216648   3.373   3.046  16.081 -0.0802 -0.0782 -0.1332
  141DOPC    HS16649   3.426   2.970  16.141 -0.6611 -1.1059 -0.8996
  141DOPC   O2116650   3.464   3.140  16.019  0.1684 -0.2923  0.0140
  141DOPC   C2116651   3.589   3.103  16.001  0.3460  0.7174  0.1954
  141DOPC   O2216652   3.643   3.008  16.052  0.7478  0.1984 -0.5726
  141DOPC   C2216653   3.654   3.197  15.901  0.6465  0.0061  0.2095
  141DOPC   H2R16654   3.761   3.172  15.888  0.2037 -1.0718 -1.7971
  141DOPC   H2S16655   3.651   3.302  15.937 -0.0474 -0.3081  1.1148
  141DOPC    C316656   3.312   2.962  15.971  0.4752 -0.3244  0.6907
  141DOPC    HX16657   3.273   3.041  15.903  0.5000  0.4989  1.6076
  141DOPC    HY16658   3.226   2.905  16.012 -0.4595  1.7011  1.6650
  141DOPC   O3116659   3.407   2.887  15.895  0.3788  0.0886 -0.2717
  141DOPC   C3116660   3.416   2.758  15.931 -0.4606  0.0356  0.7213
  141DOPC   O3216661   3.344   2.694  16.003  0.1037 -0.5021  0.1905
  141DOPC   C3216662   3.550   2.706  15.880 -0.1707 -0.3773  0.1620
  141DOPC   H2X16663   3.610   2.797  15.856 -0.1022 -1.0099 -2.4082
  141DOPC   H2Y16664   3.601   2.645  15.957 -0.0305  1.9116  2.0083
  141DOPC   C2316665   3.591   3.198  15.764 -0.2074  0.1068  0.7807
  141DOPC   H3R16666   3.650   3.268  15.702  1.9823 -2.9066 -0.8058
  141DOPC   H3S16667   3.489   3.242  15.761  0.3336  1.3867 -1.6953
  141DOPC   C2416668   3.574   3.068  15.682 -0.1272 -0.3517  0.2195
  141DOPC   H4R16669   3.470   3.029  15.692 -0.1470 -0.9108 -1.8099
  141DOPC   H4S16670   3.647   3.002  15.734  0.2801  1.3223  1.9026
  141DOPC   C2516671   3.616   3.075  15.535 -0.4532 -0.5035  0.3210
  141DOPC   H5R16672   3.722   3.105  15.522 -0.3223 -1.5228 -1.1575
  141DOPC   H5S16673   3.553   3.156  15.492 -0.7375 -0.4853  0.7605
  141DOPC   C2616674   3.605   2.945  15.454 -0.0287  0.3034 -0.1470
  141DOPC   H6R16675   3.639   2.851  15.502 -1.2541 -0.6480 -1.0926
  141DOPC   H6S16676   3.668   2.957  15.363  2.4649 -3.9846  0.7316
  141DOPC   C2716677   3.460   2.922  15.420  0.1677  0.2488  0.3699
  141DOPC   H7R16678   3.425   3.014  15.367  1.3819 -0.7050 -2.2596
  141DOPC   H7S16679   3.409   2.904  15.517 -1.8315  0.6676 -0.5500
  141DOPC   C2816680   3.437   2.805  15.335 -1.0124  0.1298  0.1136
  141DOPC   H8R16681   3.465   2.712  15.388  2.1800  1.9150  1.9071
  141DOPC   H8S16682   3.494   2.817  15.240 -0.3010  0.2137  0.5423
  141DOPC   C2916683   3.294   2.775  15.302  0.7961  0.0750 -0.1665
  141DOPC   H9R16684   3.231   2.857  15.340 -0.5831 -1.5241  1.1684
  141DOPC  C21016685   3.241   2.675  15.228 -0.2497  0.4283 -0.7200
  141DOPC  H10R16686   3.133   2.675  15.211 -0.3278  1.3944 -0.2840
  141DOPC  C21116687   3.340   2.571  15.169  0.3560  0.3850  0.4408
  141DOPC  H11R16688   3.303   2.467  15.186  1.6774 -0.3123 -0.6851
  141DOPC  H11S16689   3.441   2.575  15.216  1.1829 -1.7236 -0.9624
  141DOPC  C21216690   3.371   2.586  15.017 -0.7701  0.5802  0.3949
  141DOPC  H12R16691   3.274   2.579  14.964 -1.0530 -1.4342  1.1095
  141DOPC  H12S16692   3.419   2.491  14.986 -1.2854  0.8700 -1.4141
  141DOPC  C21316693   3.467   2.693  14.981 -0.1005  0.2276 -0.2067
  141DOPC  H13R16694   3.571   2.678  15.015  1.3462 -0.4078 -4.3660
  141DOPC  H13S16695   3.424   2.790  15.017  1.0939 -0.0758  2.2891
  141DOPC  C21416696   3.497   2.719  14.830 -0.1065  0.1034  0.0704
  141DOPC  H14R16697   3.518   2.617  14.792 -0.8869  0.3749 -1.1720
  141DOPC  H14S16698   3.590   2.778  14.823 -0.5106  0.8598  0.8839
  141DOPC  C21516699   3.372   2.792  14.766  0.1385  0.7210  0.1652
  141DOPC  H15R16700   3.396   2.899  14.785 -0.1306  0.8058  0.0464
  141DOPC  H15S16701   3.278   2.765  14.820  1.1243 -0.1687  1.4874
  141DOPC  C21616702   3.345   2.754  14.618 -0.1378  0.6645  0.4436
  141DOPC  H16R16703   3.423   2.792  14.549 -1.1905 -1.5279 -2.1615
  141DOPC  H16S16704   3.252   2.811  14.596  0.2812  0.6151 -1.7075
  141DOPC  C21716705   3.325   2.609  14.582 -0.4929  0.5019  0.4794
  141DOPC  H17R16706   3.256   2.560  14.654 -1.0486  0.5265 -0.0405
  141DOPC  H17S16707   3.421   2.556  14.604 -0.0500  0.2216 -1.8664
  141DOPC  C21816708   3.289   2.583  14.431 -0.1850 -0.1641  0.6646
  141DOPC  H18R16709   3.345   2.655  14.368 -0.0097 -0.9331 -0.0830
  141DOPC  H18S16710   3.182   2.604  14.408 -0.5955  0.2463  2.7045
  141DOPC  H18T16711   3.309   2.477  14.402 -1.4954  0.2879 -2.2341
  141DOPC   C3316712   3.531   2.639  15.739 -0.0314 -0.0032 -0.0763
  141DOPC   H3X16713   3.626   2.631  15.681  0.4823 -1.3823  0.8870
  141DOPC   H3Y16714   3.462   2.698  15.676  0.6000  0.8788  0.0266
  141DOPC   C3416715   3.486   2.493  15.754 -0.4951 -0.9015  0.3506
  141DOPC   H4X16716   3.388   2.484  15.805 -0.8492 -1.3987 -0.4054
  141DOPC   H4Y16717   3.571   2.442  15.806  0.9783  1.7909  0.7630
  141DOPC   C3516718   3.458   2.431  15.615  0.0402 -0.0486 -0.3712
  141DOPC   H5X16719   3.554   2.439  15.561 -1.1942 -1.2687 -2.9419
  141DOPC   H5Y16720   3.382   2.488  15.557 -0.4575  1.2286  1.4575
  141DOPC   C3616721   3.411   2.290  15.637 -0.8846  0.2447 -0.6468
  141DOPC   H6X16722   3.419   2.228  15.545 -0.3580  0.4972 -0.7783
  141DOPC   H6Y16723   3.464   2.243  15.723 -0.9318  0.7705 -0.3275
  141DOPC   C3716724   3.267   2.288  15.674  0.3965  0.2899 -0.3951
  141DOPC   H7X16725   3.251   2.337  15.773 -3.4274 -0.0449 -0.7312
  141DOPC   H7Y16726   3.208   2.349  15.602 -0.7594 -0.1959  0.1244
  141DOPC   C3816727   3.209   2.141  15.682 -0.4242 -0.0710 -0.3888
  141DOPC   H8X16728   3.273   2.074  15.745  0.8824  1.5856  0.1122
  141DOPC   H8Y16729   3.217   2.115  15.575  1.2671  0.5637 -0.4488
  141DOPC   C3916730   3.067   2.143  15.731  0.2322 -0.0800  0.0877
  141DOPC   H9X16731   3.054   2.134  15.840  2.0269  0.7318  0.4095
  141DOPC  C31016732   2.954   2.143  15.653  0.3511 -0.0076 -0.2640
  141DOPC  H10X16733   2.859   2.140  15.708 -0.3941  1.5084 -1.4006
  141DOPC  C31116734   2.955   2.141  15.497 -0.3403 -0.6035  0.2158
  141DOPC  H11X16735   2.859   2.099  15.461 -0.8699 -0.6322  1.5815
  141DOPC  H11Y16736   3.035   2.071  15.463 -0.2351 -1.0457  1.3154
  141DOPC  C31216737   2.974   2.279  15.422  0.7023 -0.3201  0.4232
  141DOPC  H12X16738   3.073   2.325  15.443  1.7212 -2.1533 -0.1275
  141DOPC  H12Y16739   2.897   2.349  15.461  1.1400  0.8614 -0.7492
  141DOPC  C31316740   2.938   2.271  15.271  0.4723  0.6218  0.1469
  141DOPC  H13X16741   3.012   2.200  15.229  0.2889 -2.3622  4.3290
  141DOPC  H13Y16742   2.837   2.226  15.264  0.2524  0.9466  1.0756
  141DOPC  C31416743   2.948   2.403  15.200  0.6696  1.1969  0.1430
  141DOPC  H14X16744   2.864   2.467  15.234 -0.0267 -0.0313  0.7976
  141DOPC  H14Y16745   3.036   2.470  15.215  0.5296  1.4723 -0.2319
  141DOPC  C31516746   2.946   2.379  15.054  0.0723  0.0154  0.7989
  141DOPC  H15X16747   2.867   2.303  15.035  0.6369 -1.0372  2.3786
  141DOPC  H15Y16748   3.042   2.328  15.030 -0.1276 -0.3333  0.7342
  141DOPC  C31616749   2.923   2.501  14.968 -0.1759 -0.2430  0.1759
  141DOPC  H16X16750   2.838   2.561  15.007 -1.1071 -1.4302  0.0494
  141DOPC  H16Y16751   3.006   2.571  14.991  0.6397 -1.4124  0.9443
  141DOPC  C31716752   2.921   2.462  14.816  0.2198  0.1257  0.2802
  141DOPC  H17X16753   3.006   2.391  14.806 -1.0696 -1.4354 -0.0266
  141DOPC  H17Y16754   2.822   2.414  14.803 -1.4040  3.1320  0.6869
  141DOPC  C31816755   2.934   2.570  14.719 -0.2961 -0.0285  0.1630
  141DOPC  H18X16756   3.036   2.614  14.711  0.0477 -0.5922  1.1638
  141DOPC  H18Y16757   2.923   2.532  14.616 -0.8496 -1.3393  0.6894
  141DOPC  H18Z16758   2.857   2.650  14.729  1.7159  2.0533 -0.0567
  142DOPC     N16759   4.300   3.311  16.504  0.4448  0.5697  0.6125
  142DOPC   C1216760   4.366   3.375  16.388 -0.3759 -0.2009  0.4746
  142DOPC  H12A16761   4.425   3.304  16.332 -1.4044 -0.8765  0.2136
  142DOPC  H12B16762   4.435   3.449  16.424 -0.2017 -0.7472  1.3233
  142DOPC   C1316763   4.183   3.226  16.465 -0.3244 -0.1505 -0.3078
  142DOPC  H13A16764   4.124   3.282  16.395  0.6815  0.9776 -0.2946
  142DOPC  H13B16765   4.220   3.137  16.416 -1.1979 -0.4117 -0.5085
  142DOPC  H13C16766   4.120   3.193  16.546 -0.3041  0.5171 -0.0128
  142DOPC   C1416767   4.242   3.421  16.591  0.0320 -0.0681  0.0433
  142DOPC  H14A16768   4.318   3.480  16.638 -1.3140  0.1572  2.0521
  142DOPC  H14B16769   4.183   3.482  16.523  1.5691  2.1832  0.6071
  142DOPC  H14C16770   4.175   3.380  16.665 -2.4378  0.2353 -1.8832
  142DOPC   C1516771   4.395   3.229  16.579 -0.5026 -0.3409 -0.9671
  142DOPC  H15A16772   4.356   3.200  16.675 -0.8293  0.8936 -0.7051
  142DOPC  H15B16773   4.487   3.282  16.601 -0.1681 -1.0226 -0.6758
  142DOPC  H15C16774   4.419   3.144  16.517 -0.9911 -1.2312  0.0462
  142DOPC   C1116775   4.275   3.452  16.288  0.5990 -0.1456 -0.1562
  142DOPC  H11A16776   4.237   3.536  16.349  1.0198 -0.6267  0.7886
  142DOPC  H11B16777   4.341   3.496  16.211  0.1537  1.1857  0.1869
  142DOPC     P16778   4.201   3.298  16.090  0.7001  0.0090  0.2455
  142DOPC   O1316779   4.089   3.209  16.057  0.2169  0.1091  0.4945
  142DOPC   O1416780   4.335   3.243  16.112 -0.5434 -0.5952 -0.0358
  142DOPC   O1216781   4.162   3.378  16.225  0.6767  0.2855 -0.3225
  142DOPC   O1116782   4.205   3.423  15.997 -0.5460  0.0507  0.0576
  142DOPC    C116783   4.105   3.523  15.996 -0.1942 -0.3856 -0.8805
  142DOPC    HA16784   4.115   3.588  16.085  1.3612 -2.1361  0.2954
  142DOPC    HB16785   4.006   3.473  15.993 -1.2809  1.4568  1.6267
  142DOPC    C216786   4.123   3.611  15.877  0.1304 -0.8114 -0.3244
  142DOPC    HS16787   4.044   3.689  15.874  0.0867 -0.8701 -0.6605
  142DOPC   O2116788   4.128   3.532  15.761  0.4060 -0.3220  0.0337
  142DOPC   C2116789   4.015   3.478  15.723 -0.3613  0.0980 -1.1490
  142DOPC   O2216790   3.902   3.506  15.770  0.0895 -0.2961 -0.0502
  142DOPC   C2216791   4.047   3.387  15.602  0.6145 -0.2827 -0.5325
  142DOPC   H2R16792   4.107   3.298  15.631 -0.1080 -0.1383  1.5876
  142DOPC   H2S16793   4.120   3.431  15.531  1.5143 -2.1806 -0.8624
  142DOPC    C316794   4.260   3.686  15.876  0.6169  0.3439 -0.4120
  142DOPC    HX16795   4.343   3.613  15.868 -1.1719 -1.6085 -3.5630
  142DOPC    HY16796   4.287   3.737  15.971  2.7000 -0.7882 -0.3465
  142DOPC   O3116797   4.264   3.780  15.763  0.1030  0.0650 -0.9306
  142DOPC   C3116798   4.346   3.749  15.665  0.3817  0.2010 -0.0368
  142DOPC   O3216799   4.418   3.651  15.666 -0.0378 -0.3547 -0.2981
  142DOPC   C3216800   4.339   3.860  15.558  0.0146  0.0689 -0.9114
  142DOPC   H2X16801   4.229   3.872  15.543 -0.4035 -0.4038  1.4620
  142DOPC   H2Y16802   4.372   3.947  15.617 -0.3757  0.9504 -1.9504
  142DOPC   C2316803   3.922   3.356  15.517  0.0496 -0.1830  0.4351
  142DOPC   H3R16804   3.898   3.456  15.474  2.7173  0.0837 -0.6099
  142DOPC   H3S16805   3.837   3.323  15.582 -0.1826  0.2092  0.3363
  142DOPC   C2416806   3.960   3.251  15.411  0.7204 -0.1358 -0.0741
  142DOPC   H4R16807   3.952   3.147  15.449  0.3328 -0.3865 -0.8166
  142DOPC   H4S16808   4.060   3.273  15.366  1.3107 -2.2855  0.0821
  142DOPC   C2516809   3.857   3.254  15.289  0.0899 -0.6493  0.2636
  142DOPC   H5R16810   3.844   3.347  15.231  1.2095 -0.2878  0.5769
  142DOPC   H5S16811   3.757   3.221  15.325 -1.1155  1.1993 -1.2404
  142DOPC   C2616812   3.894   3.157  15.177  0.3246 -0.2012 -0.6262
  142DOPC   H6R16813   3.880   3.061  15.231  2.5099 -0.1495  0.1568
  142DOPC   H6S16814   4.003   3.167  15.160  1.0795 -0.8718  2.9281
  142DOPC   C2716815   3.804   3.178  15.060 -0.0043 -0.0954  0.9879
  142DOPC   H7R16816   3.840   3.259  14.994  0.3066 -2.4437 -1.9740
  142DOPC   H7S16817   3.698   3.200  15.083 -0.8880 -1.2228 -1.5406
  142DOPC   C2816818   3.814   3.040  14.992 -0.1514 -0.5191  1.1610
  142DOPC   H8R16819   3.797   2.954  15.060 -0.4502 -1.3817  0.0363
  142DOPC   H8S16820   3.917   3.035  14.952 -1.1842  1.0723 -2.0170
  142DOPC   C2916821   3.717   3.039  14.875 -1.0022 -0.1789 -0.2787
  142DOPC   H9R16822   3.627   2.979  14.898  0.7844 -1.9217  2.8242
  142DOPC  C21016823   3.742   3.100  14.758 -0.2432 -0.0397 -1.0186
  142DOPC  H10R16824   3.662   3.116  14.684 -0.6743  1.4375 -0.2708
  142DOPC  C21116825   3.864   3.177  14.716  0.0125 -0.0601 -0.4963
  142DOPC  H11R16826   3.927   3.207  14.803 -2.1755  2.0177  0.4855
  142DOPC  H11S16827   3.830   3.274  14.674 -1.7363 -1.1570 -1.7700
  142DOPC  C21216828   3.941   3.105  14.603 -0.3355 -0.5217  0.2676
  142DOPC  H12R16829   3.956   3.005  14.650 -1.0555 -0.4565  0.6562
  142DOPC  H12S16830   4.046   3.140  14.589 -0.6673  0.8936  1.1206
  142DOPC  C21316831   3.869   3.103  14.465  0.0078  0.0001  0.0425
  142DOPC  H13R16832   3.775   3.160  14.483  1.6583  2.0485  3.1946
  142DOPC  H13S16833   3.844   2.998  14.438 -0.6833  0.4509 -1.1302
  142DOPC  C21416834   3.933   3.199  14.365 -0.0272 -0.3329  0.3073
  142DOPC  H14R16835   4.036   3.165  14.344  0.6797  1.0790  1.2701
  142DOPC  H14S16836   3.943   3.294  14.422 -0.1169 -1.4445  2.2814
  142DOPC  C21516837   3.864   3.220  14.232 -0.3931  0.3561  0.4008
  142DOPC  H15R16838   3.754   3.228  14.245 -0.7021 -0.4920 -1.3782
  142DOPC  H15S16839   3.888   3.124  14.181  1.1920  0.3250  1.1489
  142DOPC  C21616840   3.919   3.339  14.145  0.6898 -0.2134  0.0466
  142DOPC  H16R16841   4.028   3.360  14.157  0.7814  0.6838 -2.0376
  142DOPC  H16S16842   3.865   3.431  14.175 -2.3917 -1.9803  0.3605
  142DOPC  C21716843   3.891   3.324  13.995  0.4679  0.0069 -0.7996
  142DOPC  H17R16844   3.785   3.292  13.984 -0.2458  2.0127 -0.1051
  142DOPC  H17S16845   3.956   3.249  13.945  1.0053  0.8228 -1.3532
  142DOPC  C21816846   3.924   3.451  13.905 -0.3946 -0.0933 -0.6754
  142DOPC  H18R16847   3.889   3.538  13.964 -1.9369 -1.7597  1.0024
  142DOPC  H18S16848   3.889   3.434  13.801  1.4449 -0.0148 -1.3604
  142DOPC  H18T16849   4.035   3.448  13.903 -0.4091 -0.4232 -1.4720
  142DOPC   C3316850   4.422   3.824  15.432  0.6516  0.1561  0.2088
  142DOPC   H3X16851   4.500   3.756  15.472 -1.4366 -1.6075  1.5008
  142DOPC   H3Y16852   4.464   3.912  15.379  0.2903  1.7280  2.3984
  142DOPC   C3416853   4.328   3.754  15.326  0.1698  0.8832 -0.2313
  142DOPC   H4X16854   4.381   3.752  15.228  0.5769 -0.0558 -0.0058
  142DOPC   H4Y16855   4.236   3.813  15.306 -0.6411 -0.5344 -0.8309
  142DOPC   C3516856   4.309   3.607  15.362 -0.3330  0.2592 -0.2594
  142DOPC   H5X16857   4.254   3.602  15.458  1.8197  0.4668  1.0384
  142DOPC   H5Y16858   4.408   3.557  15.361 -1.2783 -1.7859 -1.6899
  142DOPC   C3616859   4.206   3.539  15.265 -0.9227 -0.2238 -0.3716
  142DOPC   H6X16860   4.193   3.432  15.291  1.5261 -0.8388 -1.3926
  142DOPC   H6Y16861   4.118   3.605  15.281  0.4658  1.3707  1.1458
  142DOPC   C3716862   4.243   3.555  15.115  0.8722  0.1008 -0.0696
  142DOPC   H7X16863   4.255   3.661  15.085  1.2236  0.0284 -0.1819
  142DOPC   H7Y16864   4.344   3.511  15.106  1.6630  2.0452 -1.1061
  142DOPC   C3816865   4.151   3.479  15.011 -0.5404 -0.6298  0.2104
  142DOPC   H8X16866   4.157   3.372  15.041  1.7582 -0.5714  0.1538
  142DOPC   H8Y16867   4.198   3.492  14.911 -0.8828  0.0175  0.1336
  142DOPC   C3916868   4.001   3.500  15.002 -0.1800 -0.4892  0.2038
  142DOPC   H9X16869   3.946   3.460  15.089  0.7046 -1.7528  0.2003
  142DOPC  C31016870   3.931   3.559  14.902 -0.1803 -0.0985  0.1936
  142DOPC  H10X16871   3.821   3.564  14.908 -0.3135 -3.0926  1.7819
  142DOPC  C31116872   3.996   3.620  14.777  0.1385 -0.0819 -0.4350
  142DOPC  H11X16873   4.100   3.584  14.760  0.8186  1.6791 -0.2198
  142DOPC  H11Y16874   4.002   3.730  14.793  2.5486 -0.1587 -0.4979
  142DOPC  C31216875   3.909   3.589  14.651  0.1320 -0.5548 -0.6456
  142DOPC  H12X16876   3.811   3.638  14.666 -0.9443 -3.2023  1.8531
  142DOPC  H12Y16877   3.894   3.481  14.629 -1.0573 -0.0603 -2.5107
  142DOPC  C31316878   3.972   3.656  14.524 -0.2890 -1.4138  0.5855
  142DOPC  H13X16879   3.972   3.764  14.549 -1.1918 -1.4195  0.6364
  142DOPC  H13Y16880   4.079   3.623  14.527 -0.8473 -3.2741  1.3819
  142DOPC  C31416881   3.895   3.628  14.397 -0.2992 -0.3468 -1.3588
  142DOPC  H14X16882   3.884   3.519  14.376  0.5455 -0.9542  1.0189
  142DOPC  H14Y16883   3.798   3.681  14.406  0.7388  1.5399 -0.7454
  142DOPC  C31516884   3.975   3.686  14.281  0.6797  0.0000  0.0267
  142DOPC  H15X16885   4.043   3.605  14.247 -0.8954 -1.1628 -0.4637
  142DOPC  H15Y16886   4.054   3.753  14.322  0.7698  1.1954 -1.9651
  142DOPC  C31616887   3.889   3.758  14.170  0.0763  0.3995 -0.9122
  142DOPC  H16X16888   3.949   3.785  14.080  0.1880 -0.5446 -1.1285
  142DOPC  H16Y16889   3.804   3.690  14.148  0.2268  0.0938 -0.5726
  142DOPC  C31716890   3.823   3.888  14.219 -0.9587  0.1584 -0.5193
  142DOPC  H17X16891   3.769   3.924  14.129  1.6249  1.2671 -1.6960
  142DOPC  H17Y16892   3.745   3.853  14.290 -0.0406 -0.2722  0.2976
  142DOPC  C31816893   3.906   3.993  14.275 -0.8028 -0.3148 -0.8322
  142DOPC  H18X16894   3.982   4.029  14.203  1.2447  0.3400  1.4971
  142DOPC  H18Y16895   3.853   4.084  14.312 -0.7183 -0.7330  0.3693
  142DOPC  H18Z16896   3.972   3.959  14.358  0.0532 -0.2616 -1.4901
  143DOPC     N16897   2.859   3.309  16.741 -0.2769 -0.4381  0.4938
  143DOPC   C1216898   2.745   3.357  16.822 -0.1461 -0.2293 -0.2171
  143DOPC  H12A16899   2.788   3.405  16.908  0.6870  1.0388 -1.3006
  143DOPC  H12B16900   2.683   3.274  16.854 -2.7391  1.9570  0.8344
  143DOPC   C1316901   2.957   3.422  16.714  0.0060 -0.1397  0.3524
  143DOPC  H13A16902   2.911   3.501  16.657 -1.2625 -1.0956 -0.0151
  143DOPC  H13B16903   2.998   3.468  16.802 -0.5278  0.4779  0.2893
  143DOPC  H13C16904   3.041   3.377  16.664  0.6094 -1.3107  2.3137
  143DOPC   C1416905   2.818   3.252  16.604  0.2696  0.2178 -1.0259
  143DOPC  H14A16906   2.757   3.163  16.608  0.8610 -0.2220 -1.5599
  143DOPC  H14B16907   2.769   3.330  16.548  2.1752  1.6709 -0.7677
  143DOPC  H14C16908   2.911   3.224  16.556  0.5072 -0.1394 -0.3820
  143DOPC   C1516909   2.929   3.189  16.807  0.0268  0.7647  0.1869
  143DOPC  H15A16910   2.955   3.221  16.907 -1.3079  0.1800  0.7425
  143DOPC  H15B16911   3.010   3.151  16.745  0.1160  1.5778 -0.2140
  143DOPC  H15C16912   2.854   3.112  16.812 -0.2477  0.9216 -1.0782
  143DOPC   C1116913   2.644   3.458  16.757  0.3237  0.3159  0.6200
  143DOPC  H11A16914   2.579   3.388  16.701  0.7783 -1.1041  1.7960
  143DOPC  H11B16915   2.572   3.512  16.822  0.4797  0.8217  0.3820
  143DOPC     P16916   2.635   3.611  16.537 -0.0212 -0.1860 -0.7237
  143DOPC   O1316917   2.736   3.689  16.464 -0.1330 -0.3234 -0.3936
  143DOPC   O1416918   2.509   3.679  16.574 -0.1720 -0.2960  0.0828
  143DOPC   O1216919   2.704   3.560  16.675  0.0473  0.3842 -0.3810
  143DOPC   O1116920   2.596   3.480  16.463 -0.4044  0.4884  0.7866
  143DOPC    C116921   2.678   3.420  16.364  0.2205 -0.3855  0.5467
  143DOPC    HA16922   2.674   3.310  16.380 -0.3811 -0.4035  0.2742
  143DOPC    HB16923   2.787   3.445  16.367  0.0691  0.2241  1.1779
  143DOPC    C216924   2.636   3.456  16.220  0.2039  0.6946  0.4626
  143DOPC    HS16925   2.690   3.551  16.199  0.6170  0.6679  1.3523
  143DOPC   O2116926   2.491   3.473  16.219 -0.4722  0.6729 -0.0034
  143DOPC   C2116927   2.449   3.591  16.207  0.5017 -0.3681 -0.2350
  143DOPC   O2216928   2.506   3.698  16.184  0.0729 -0.4950  0.1933
  143DOPC   C2216929   2.293   3.582  16.210  0.6501  0.0001 -0.1555
  143DOPC   H2R16930   2.268   3.615  16.313  0.6899 -0.9444  0.1668
  143DOPC   H2S16931   2.261   3.475  16.206  0.6105 -0.2364  3.3663
  143DOPC    C316932   2.679   3.341  16.133 -0.2895  0.0304  0.2615
  143DOPC    HX16933   2.643   3.244  16.172  0.0758  0.1914  1.0239
  143DOPC    HY16934   2.789   3.330  16.144 -0.4256  0.2558  2.2165
  143DOPC   O3116935   2.642   3.365  15.990  0.1455 -0.6770 -0.5774
  143DOPC   C3116936   2.548   3.281  15.946  0.4080 -0.5756 -0.2072
  143DOPC   O3216937   2.519   3.174  15.995  0.5722  0.4496  0.0843
  143DOPC   C3216938   2.489   3.345  15.817 -0.5421  0.4919 -0.1342
  143DOPC   H2X16939   2.384   3.311  15.831 -0.1267 -0.5385  0.5782
  143DOPC   H2Y16940   2.495   3.456  15.813  2.8541  0.4982  1.5336
  143DOPC   C2316941   2.213   3.664  16.109  0.0614  0.2280 -0.8063
  143DOPC   H3R16942   2.235   3.771  16.129 -0.5306 -0.0909  1.9070
  143DOPC   H3S16943   2.105   3.647  16.128  0.1910  0.2056 -0.0873
  143DOPC   C2416944   2.231   3.612  15.959 -0.6766  0.3047 -0.1425
  143DOPC   H4R16945   2.191   3.509  15.967  1.8589 -0.8504 -1.2918
  143DOPC   H4S16946   2.340   3.595  15.943 -1.0233 -1.3619 -0.9453
  143DOPC   C2516947   2.170   3.705  15.859  0.1750  0.6163  0.0916
  143DOPC   H5R16948   2.059   3.709  15.860 -0.2612 -4.5627  0.5958
  143DOPC   H5S16949   2.206   3.667  15.761  3.0307  0.7192  0.9977
  143DOPC   C2616950   2.210   3.855  15.869 -0.3447 -0.2858 -0.8922
  143DOPC   H6R16951   2.319   3.874  15.882 -0.5062 -0.1966  0.4957
  143DOPC   H6S16952   2.176   3.891  15.968  0.6330 -1.5351 -0.0627
  143DOPC   C2716953   2.149   3.945  15.761  0.2123 -0.1919 -0.2347
  143DOPC   H7R16954   2.183   4.051  15.766 -0.8924  0.1545  0.1540
  143DOPC   H7S16955   2.040   3.954  15.780 -0.2727 -0.9769 -2.3050
  143DOPC   C2816956   2.169   3.907  15.608 -0.1779  0.3656  0.2475
  143DOPC   H8R16957   2.142   3.985  15.535  1.6940  0.7037 -0.1402
  143DOPC   H8S16958   2.100   3.823  15.586 -0.2092  0.3049  0.5675
  143DOPC   C2916959   2.318   3.873  15.582 -0.1345  0.1392  0.3591
  143DOPC   H9R16960   2.386   3.923  15.654 -0.2723 -0.4300  0.8956
  143DOPC  C21016961   2.371   3.787  15.492 -0.1363  0.1421 -0.5350
  143DOPC  H10R16962   2.479   3.785  15.476 -0.4177 -1.2415 -2.6251
  143DOPC  C21116963   2.288   3.715  15.394 -0.0697 -0.4409 -0.0279
  143DOPC  H11R16964   2.180   3.706  15.416 -0.5462  1.0022 -1.5183
  143DOPC  H11S16965   2.321   3.609  15.387  0.0973 -0.7257  3.5089
  143DOPC  C21216966   2.301   3.775  15.254 -0.0303 -0.0492  0.1247
  143DOPC  H12R16967   2.405   3.806  15.227 -0.8715  1.9510 -1.0832
  143DOPC  H12S16968   2.238   3.866  15.262  1.5473  1.2170 -1.1092
  143DOPC  C21316969   2.255   3.682  15.142  0.8512 -0.3421  0.2643
  143DOPC  H13R16970   2.145   3.677  15.159  0.9780  0.7968  1.5778
  143DOPC  H13S16971   2.310   3.588  15.159  2.2153  0.8647  3.1368
  143DOPC  C21416972   2.285   3.722  14.997 -0.0295 -0.1464 -0.4481
  143DOPC  H14R16973   2.392   3.715  14.965  0.5368  0.4199  1.2529
  143DOPC  H14S16974   2.255   3.826  14.971  0.9873  0.5367  1.0201
  143DOPC  C21516975   2.209   3.637  14.889  0.0658  0.1873  0.0311
  143DOPC  H15R16976   2.100   3.653  14.898 -0.1885 -1.6286  0.6553
  143DOPC  H15S16977   2.218   3.529  14.916  2.0077  0.5577  1.1307
  143DOPC  C21616978   2.251   3.675  14.755  0.0330  0.0438  0.3756
  143DOPC  H16R16979   2.350   3.633  14.728  0.3057  1.1257 -0.3592
  143DOPC  H16S16980   2.271   3.783  14.745  0.2829  0.2124  2.2617
  143DOPC  C21716981   2.158   3.613  14.649 -0.3747 -0.4156 -0.3314
  143DOPC  H17R16982   2.208   3.630  14.552 -1.3400 -0.5014 -0.8528
  143DOPC  H17S16983   2.064   3.673  14.656  0.0514  0.2840 -0.4762
  143DOPC  C21816984   2.114   3.462  14.660  0.4213  0.1263  0.1017
  143DOPC  H18R16985   2.062   3.433  14.566 -1.3959  1.1600  0.7387
  143DOPC  H18S16986   2.037   3.445  14.738 -1.4056  0.9281 -1.4534
  143DOPC  H18T16987   2.205   3.400  14.673 -0.0924 -0.8326 -0.7644
  143DOPC   C3316988   2.544   3.286  15.685  0.5385 -0.1497  0.4453
  143DOPC   H3X16989   2.573   3.179  15.697  2.1946  0.0140 -1.4109
  143DOPC   H3Y16990   2.642   3.330  15.655  0.5037 -0.7148 -0.5555
  143DOPC   C3416991   2.428   3.298  15.579  0.0210  0.5184  0.1738
  143DOPC   H4X16992   2.409   3.407  15.563  1.0523  0.6375 -0.3330
  143DOPC   H4Y16993   2.337   3.248  15.617  0.8284 -0.1989  1.1993
  143DOPC   C3516994   2.448   3.236  15.443  0.0166  0.7276  0.1474
  143DOPC   H5X16995   2.492   3.135  15.446  0.5450  0.9134 -0.7836
  143DOPC   H5Y16996   2.521   3.299  15.387  0.3112 -0.3987 -0.7800
  143DOPC   C3616997   2.310   3.238  15.369 -0.1296  0.0020 -0.9593
  143DOPC   H6X16998   2.237   3.184  15.432  0.2228  1.0837  0.4385
  143DOPC   H6Y16999   2.279   3.344  15.382  1.3449  0.3354  0.1907
  143DOPC   C3717000   2.314   3.193  15.221 -0.7377 -0.5458 -0.1189
  143DOPC   H7X17001   2.383   3.259  15.165  0.0428 -0.4633  0.9127
  143DOPC   H7Y17002   2.370   3.097  15.221  2.5056  1.1870  1.3539
  143DOPC   C3817003   2.175   3.180  15.155  0.0546  0.1779 -0.5850
  143DOPC   H8X17004   2.109   3.114  15.215  2.0976 -2.4427 -1.0377
  143DOPC   H8Y17005   2.198   3.122  15.063 -0.3089 -4.5452  2.0012
  143DOPC   C3917006   2.109   3.314  15.129  0.2645  0.0739  1.0222
  143DOPC   H9X17007   2.142   3.355  15.032  0.9353 -0.5183  0.9939
  143DOPC  C31017008   2.016   3.377  15.198  0.3238  0.2474 -0.4310
  143DOPC  H10X17009   1.969   3.467  15.156  0.6264  0.1639 -0.9615
  143DOPC  C31117010   1.952   3.321  15.327 -0.0217 -0.1339  1.2339
  143DOPC  H11X17011   1.988   3.220  15.357 -0.7302 -1.2231 -1.2867
  143DOPC  H11Y17012   1.845   3.312  15.299  0.1701  1.3621 -0.1563
  143DOPC  C31217013   1.963   3.418  15.449  0.4477  0.3335  0.0588
  143DOPC  H12X17014   1.903   3.509  15.427 -0.1543 -0.4250 -1.6489
  143DOPC  H12Y17015   2.070   3.442  15.462  0.5888  1.3708 -2.4108
  143DOPC  C31317016   1.916   3.346  15.577  0.2486 -0.1485 -0.0069
  143DOPC  H13X17017   1.812   3.309  15.568 -0.2418  1.5046 -2.1851
  143DOPC  H13Y17018   1.984   3.266  15.614  2.0971  2.1284  1.8680
  143DOPC  C31417019   1.921   3.445  15.696  0.8408 -0.5356  0.5340
  143DOPC  H14X17020   2.018   3.499  15.695 -1.1773  3.5178 -1.8217
  143DOPC  H14Y17021   1.841   3.519  15.675  2.8248  1.0194 -2.2082
  143DOPC  C31517022   1.886   3.367  15.819  0.1995 -0.1934 -0.6259
  143DOPC  H15X17023   1.962   3.287  15.835  1.3784  1.0496  0.1970
  143DOPC  H15Y17024   1.789   3.315  15.805  0.8401 -1.5856 -0.0945
  143DOPC  C31617025   1.869   3.464  15.943  0.6393 -0.4245 -0.0320
  143DOPC  H16X17026   1.970   3.510  15.943  1.2141 -1.6473 -0.3305
  143DOPC  H16Y17027   1.799   3.549  15.936  0.5828 -0.6045 -3.1704
  143DOPC  C31717028   1.858   3.391  16.080  0.0000 -0.3092  0.4018
  143DOPC  H17X17029   1.930   3.307  16.075  1.5938  1.0249 -0.0143
  143DOPC  H17Y17030   1.891   3.456  16.163  2.4857  0.9072 -1.4280
  143DOPC  C31817031   1.714   3.347  16.106  0.3405  0.1570 -0.2934
  143DOPC  H18X17032   1.713   3.251  16.162  0.0555 -0.3317 -1.1318
  143DOPC  H18Y17033   1.658   3.419  16.170  1.2769 -1.4495  2.4889
  143DOPC  H18Z17034   1.654   3.335  16.014 -0.9743  1.5553  0.3315
  144DOPC     N17035   2.600   2.254  16.334  0.2820  0.1594  0.3836
  144DOPC   C1217036   2.638   2.324  16.207 -0.5275  0.4101  0.3119
  144DOPC  H12A17037   2.732   2.282  16.176  0.6438  2.0784  1.4405
  144DOPC  H12B17038   2.653   2.430  16.222  0.1206  0.4431 -0.4850
  144DOPC   C1317039   2.695   2.313  16.442  0.6148  0.0014 -0.1767
  144DOPC  H13A17040   2.661   2.264  16.532 -0.1149  0.7112 -0.0577
  144DOPC  H13B17041   2.799   2.289  16.426  0.9330  1.0901  0.2116
  144DOPC  H13C17042   2.681   2.420  16.449 -1.3671  0.0825 -3.3772
  144DOPC   C1417043   2.625   2.108  16.312 -0.0737 -0.1537 -0.1699
  144DOPC  H14A17044   2.730   2.083  16.308 -0.0348 -0.1950  0.9221
  144DOPC  H14B17045   2.571   2.056  16.389  0.8597 -0.7647  0.0798
  144DOPC  H14C17046   2.586   2.092  16.212  0.7997 -2.3029 -0.2029
  144DOPC   C1517047   2.463   2.286  16.379  0.0990 -0.2964 -0.3121
  144DOPC  H15A17048   2.438   2.391  16.368  0.4051  0.0287  1.7402
  144DOPC  H15B17049   2.464   2.258  16.483  1.5144  1.8826  0.3303
  144DOPC  H15C17050   2.392   2.217  16.336 -0.6067 -1.9237  3.1354
  144DOPC   C1117051   2.542   2.317  16.090  0.4413  0.4494 -0.6513
  144DOPC  H11A17052   2.435   2.336  16.113  0.6737  0.3747  0.5839
  144DOPC  H11B17053   2.574   2.396  16.019  0.6650  0.0604 -0.9884
  144DOPC     P17054   2.666   2.126  15.961 -0.0532 -0.0057  0.1094
  144DOPC   O1317055   2.672   1.982  15.997  0.2364 -0.5236  0.1837
  144DOPC   O1417056   2.781   2.216  15.991 -0.0881  0.2098  0.0309
  144DOPC   O1217057   2.543   2.187  16.036  1.2163  0.1660  0.0939
  144DOPC   O1117058   2.629   2.153  15.812 -0.2013  0.5314 -1.0892
  144DOPC    C117059   2.509   2.135  15.754  0.4472 -0.1270 -0.3738
  144DOPC    HA17060   2.456   2.233  15.751  0.7680  0.0354 -0.7543
  144DOPC    HB17061   2.441   2.066  15.809  0.7136  1.3002  1.8727
  144DOPC    C217062   2.519   2.089  15.599 -0.2730 -0.8456 -0.3393
  144DOPC    HS17063   2.415   2.070  15.564 -0.3257  0.6302 -1.0857
  144DOPC   O2117064   2.597   1.973  15.574 -0.0797 -0.2351  0.3137
  144DOPC   C2117065   2.547   1.864  15.625 -0.3775  0.8755 -0.3548
  144DOPC   O2217066   2.436   1.851  15.677 -0.0092  0.0670  0.5520
  144DOPC   C2217067   2.644   1.748  15.615 -1.0027  0.4140  0.0537
  144DOPC   H2R17068   2.614   1.653  15.662  0.5747 -0.1187  0.0356
  144DOPC   H2S17069   2.736   1.786  15.665 -1.9523  1.3622  1.1328
  144DOPC    C317070   2.574   2.211  15.522 -0.7818 -0.6739  0.1241
  144DOPC    HX17071   2.685   2.212  15.526 -0.7872  1.3511  0.7389
  144DOPC    HY17072   2.530   2.299  15.573  1.7951  1.6711 -1.3938
  144DOPC   O3117073   2.540   2.217  15.382  0.1134  0.1755 -0.0064
  144DOPC   C3117074   2.545   2.335  15.331 -0.0255  0.3075  0.1612
  144DOPC   O3217075   2.553   2.439  15.395  0.4060  0.0986  0.1086
  144DOPC   C3217076   2.555   2.311  15.179  0.1401 -0.8140 -0.2541
  144DOPC   H2X17077   2.640   2.240  15.164 -0.1660 -1.1528 -0.4107
  144DOPC   H2Y17078   2.463   2.262  15.141  0.5926  0.8372 -3.9118
  144DOPC   C2317079   2.680   1.713  15.473  0.3299  0.5781  0.7807
  144DOPC   H3R17080   2.783   1.672  15.464  0.5113  1.2543 -0.4597
  144DOPC   H3S17081   2.695   1.808  15.417  0.6293 -0.8649 -1.7199
  144DOPC   C2417082   2.593   1.613  15.396 -1.0400  0.4295  1.1006
  144DOPC   H4R17083   2.598   1.520  15.458  1.1678 -0.4100 -0.2234
  144DOPC   H4S17084   2.633   1.590  15.295  1.3326 -0.2008  2.1246
  144DOPC   C2517085   2.446   1.645  15.366 -0.5302  0.2415 -0.4052
  144DOPC   H5R17086   2.387   1.655  15.460 -1.8089  2.1543 -1.3256
  144DOPC   H5S17087   2.409   1.561  15.303 -1.1672 -1.7453  2.4462
  144DOPC   C2617088   2.433   1.782  15.296  0.3410 -0.3120  0.3871
  144DOPC   H6R17089   2.475   1.865  15.356 -0.5113  0.7558 -0.4383
  144DOPC   H6S17090   2.324   1.798  15.282  0.8694  1.7641 -2.2849
  144DOPC   C2717091   2.502   1.810  15.164 -0.1834 -0.2566  0.1302
  144DOPC   H7R17092   2.469   1.739  15.085  0.5164 -0.8625  0.3719
  144DOPC   H7S17093   2.611   1.794  15.178  0.3134  1.5033 -1.2721
  144DOPC   C2817094   2.492   1.963  15.125 -0.0734  0.0475  0.3734
  144DOPC   H8R17095   2.510   2.018  15.220  2.8503 -0.3355  0.1356
  144DOPC   H8S17096   2.386   1.975  15.092  0.2533  0.8511 -0.4202
  144DOPC   C2917097   2.589   2.008  15.022  1.4649 -0.9927  0.2481
  144DOPC   H9R17098   2.694   2.022  15.055  0.9819 -0.7600  1.7653
  144DOPC  C21017099   2.566   2.039  14.900 -0.7243  0.1801  0.5106
  144DOPC  H10R17100   2.644   2.085  14.838 -0.0106  1.1596  2.0777
  144DOPC  C21117101   2.432   2.028  14.829  0.1414 -0.1715 -0.4918
  144DOPC  H11R17102   2.364   2.101  14.879  0.4356 -1.0873  1.3066
  144DOPC  H11S17103   2.387   1.927  14.821 -1.1905  0.3628 -0.0203
  144DOPC  C21217104   2.447   2.079  14.685  0.6543 -0.1325  0.1755
  144DOPC  H12R17105   2.508   2.006  14.627  0.6554 -0.9272  1.1436
  144DOPC  H12S17106   2.508   2.172  14.677 -1.4026  1.0851 -3.2356
  144DOPC  C21317107   2.313   2.119  14.609 -0.0186  0.0725  0.3363
  144DOPC  H13R17108   2.263   2.212  14.642 -3.0291 -0.5271 -2.1458
  144DOPC  H13S17109   2.234   2.050  14.644  1.0743 -0.3861  2.0546
  144DOPC  C21417110   2.324   2.117  14.452  0.4688 -0.2283 -0.1327
  144DOPC  H14R17111   2.336   2.012  14.418  1.9850 -0.0066 -0.3294
  144DOPC  H14S17112   2.412   2.174  14.415 -0.0054  0.4111 -0.2950
  144DOPC  C21517113   2.196   2.188  14.395 -0.5569  0.0747  0.0627
  144DOPC  H15R17114   2.211   2.298  14.396  1.2674 -0.0479 -2.3190
  144DOPC  H15S17115   2.107   2.151  14.449  1.6333 -3.2677  1.7532
  144DOPC  C21617116   2.184   2.160  14.244 -0.2377  0.5392 -0.5472
  144DOPC  H16R17117   2.177   2.053  14.212  3.8250 -0.2916  0.7446
  144DOPC  H16S17118   2.273   2.214  14.204  0.3653  1.4461  1.8351
  144DOPC  C21717119   2.061   2.226  14.186 -0.9551  0.6631 -0.2556
  144DOPC  H17R17120   2.061   2.337  14.194 -2.5757  0.6965 -0.3056
  144DOPC  H17S17121   1.969   2.197  14.241 -0.5007 -0.8053 -0.2474
  144DOPC  C21817122   2.047   2.190  14.038 -0.2163  0.5494 -0.6681
  144DOPC  H18R17123   1.955   2.234  13.993 -0.8056 -1.4158 -1.4963
  144DOPC  H18S17124   2.037   2.080  14.027  1.1655 -0.2656  3.9539
  144DOPC  H18T17125   2.143   2.220  13.992 -0.0453  2.2051  0.6759
  144DOPC   C3317126   2.565   2.440  15.091 -0.2037  0.1530  0.5458
  144DOPC   H3X17127   2.662   2.494  15.090  1.0515 -1.9917 -0.9220
  144DOPC   H3Y17128   2.488   2.517  15.115 -3.0504 -2.6284  0.8658
  144DOPC   C3417129   2.557   2.408  14.940  0.1095  0.5810 -0.2955
  144DOPC   H4X17130   2.476   2.333  14.926  0.7278  0.2032 -2.1438
  144DOPC   H4Y17131   2.651   2.353  14.921 -1.9927 -3.8907  0.8598
  144DOPC   C3517132   2.543   2.530  14.852  0.5470  0.0474  0.0091
  144DOPC   H5X17133   2.631   2.595  14.870  1.0286 -0.7078  0.4420
  144DOPC   H5Y17134   2.450   2.588  14.869  0.5415 -0.0538  0.3382
  144DOPC   C3617135   2.541   2.490  14.703  0.1667  0.2170  0.1083
  144DOPC   H6X17136   2.634   2.435  14.678  2.2551  3.2344  0.7184
  144DOPC   H6Y17137   2.448   2.433  14.686 -0.3252  0.6509  1.2422
  144DOPC   C3717138   2.526   2.615  14.611 -0.0480  0.2770  0.3094
  144DOPC   H7X17139   2.466   2.680  14.677  0.8309  0.3811  1.0225
  144DOPC   H7Y17140   2.622   2.663  14.583 -1.3413  1.2393 -3.0103
  144DOPC   C3817141   2.457   2.582  14.476 -0.9700 -0.2709 -0.5116
  144DOPC   H8X17142   2.448   2.677  14.419  0.1020  0.5503  0.6138
  144DOPC   H8Y17143   2.360   2.534  14.500 -1.1962  0.0518 -0.7770
  144DOPC   C3917144   2.536   2.487  14.386 -0.4143 -0.3686 -0.2432
  144DOPC   H9X17145   2.613   2.427  14.437 -0.1891 -1.8393 -2.1889
  144DOPC  C31017146   2.516   2.463  14.253  0.3535  0.3824 -0.5500
  144DOPC  H10X17147   2.581   2.395  14.196 -1.0409 -3.0408  1.5587
  144DOPC  C31117148   2.403   2.529  14.168 -0.1944 -0.1540 -0.7374
  144DOPC  H11X17149   2.327   2.584  14.227  0.2848  0.1228 -0.3690
  144DOPC  H11Y17150   2.341   2.451  14.118  0.3531 -0.5079 -0.8784
  144DOPC  C31217151   2.466   2.627  14.069 -0.3274  0.1120  0.8568
  144DOPC  H12X17152   2.389   2.634  13.989 -1.7831 -2.4295  1.9355
  144DOPC  H12Y17153   2.559   2.586  14.024 -0.6241 -1.0001  1.2432
  144DOPC  C31317154   2.487   2.762  14.124  0.5264 -0.2331 -0.1010
  144DOPC  H13X17155   2.390   2.789  14.170  0.0649 -3.1741  0.8698
  144DOPC  H13Y17156   2.553   2.770  14.213 -1.1556 -0.4757  1.2202
  144DOPC  C31417157   2.523   2.863  14.019 -0.0669  0.3296 -0.0124
  144DOPC  H14X17158   2.614   2.839  13.961 -0.1573 -0.9406  0.3215
  144DOPC  H14Y17159   2.445   2.854  13.940  0.7477  0.7839 -0.8820
  144DOPC  C31517160   2.522   2.998  14.095 -0.7532  0.6105 -0.0902
  144DOPC  H15X17161   2.436   3.000  14.165 -1.9163 -1.6694 -1.3651
  144DOPC  H15Y17162   2.507   3.070  14.012  0.0927  3.0884  1.7786
  144DOPC  C31617163   2.648   3.033  14.182  0.6696  0.5057  0.1813
  144DOPC  H16X17164   2.640   3.016  14.292 -1.4744  1.8424  0.2896
  144DOPC  H16Y17165   2.729   2.971  14.139 -0.4516 -1.6291  1.0226
  144DOPC  C31717166   2.680   3.179  14.179 -0.0750 -0.4291 -0.4138
  144DOPC  H17X17167   2.760   3.193  14.104 -0.8598  1.1133 -0.9903
  144DOPC  H17Y17168   2.590   3.241  14.157  1.1616  1.1025 -1.3445
  144DOPC  C31817169   2.728   3.245  14.309 -0.1649 -0.2319 -0.5676
  144DOPC  H18X17170   2.829   3.204  14.328  0.3694  0.5781 -1.5730
  144DOPC  H18Y17171   2.756   3.352  14.298  2.4377 -0.8217 -0.2194
  144DOPC  H18Z17172   2.653   3.236  14.391  0.8264 -1.6114  0.2247
  145DOPC     N17173   3.733   6.133  16.175 -0.1709  1.1640 -0.4845
  145DOPC   C1217174   3.726   6.129  16.030  0.2261  0.2511 -0.0185
  145DOPC  H12A17175   3.808   6.190  15.997  0.4544  0.6185  1.1625
  145DOPC  H12B17176   3.639   6.183  15.997 -0.1166 -0.2239  0.0861
  145DOPC   C1317177   3.837   6.041  16.237  0.3605 -0.2579  0.4161
  145DOPC  H13A17178   3.939   6.076  16.238  0.0466  0.7745 -0.9927
  145DOPC  H13B17179   3.823   6.042  16.344 -0.6239 -0.0858  0.2969
  145DOPC  H13C17180   3.834   5.943  16.192  1.0172  0.4761 -1.3005
  145DOPC   C1417181   3.603   6.072  16.227 -0.3828 -0.3254 -0.7650
  145DOPC  H14A17182   3.516   6.123  16.187 -0.5748 -0.3790 -0.4144
  145DOPC  H14B17183   3.600   5.967  16.203  1.2012 -0.4714 -0.4251
  145DOPC  H14C17184   3.596   6.075  16.335  3.2510 -1.8379 -0.3416
  145DOPC   C1517185   3.738   6.269  16.226 -0.2585  0.9324  0.3840
  145DOPC  H15A17186   3.831   6.317  16.197  0.5652 -0.7674  0.0743
  145DOPC  H15B17187   3.736   6.267  16.334  0.5322 -2.4598  0.4378
  145DOPC  H15C17188   3.651   6.326  16.197 -0.5922 -0.3677 -1.3298
  145DOPC   C1117189   3.733   5.996  15.951  0.4383  0.2328 -0.6099
  145DOPC  H11A17190   3.647   5.934  15.982  0.0382  1.3501  0.6067
  145DOPC  H11B17191   3.712   6.014  15.843  1.2802 -0.4220 -0.8970
  145DOPC     P17192   3.991   5.982  15.885 -0.3973 -0.3715 -0.1801
  145DOPC   O1317193   4.108   5.916  15.943 -0.3138 -0.3537  0.3620
  145DOPC   O1417194   3.995   6.129  15.887 -0.2624  0.4694 -0.3814
  145DOPC   O1217195   3.863   5.938  15.966 -0.0379  0.1154  0.4886
  145DOPC   O1117196   3.979   5.927  15.740  0.2425 -0.2410  1.0453
  145DOPC    C117197   3.906   5.803  15.723 -0.1636  0.2272  0.4077
  145DOPC    HA17198   3.806   5.825  15.681 -0.4946 -0.0018  1.0510
  145DOPC    HB17199   3.886   5.742  15.814 -1.6641 -0.5893 -0.4332
  145DOPC    C217200   3.987   5.704  15.629  0.4449 -0.1768  0.2283
  145DOPC    HS17201   4.063   5.663  15.698  0.0438 -0.4611  0.5119
  145DOPC   O2117202   4.046   5.774  15.512  0.5089  0.2533 -0.6410
  145DOPC   C2117203   4.166   5.828  15.539  0.5302 -0.2383 -0.2558
  145DOPC   O2217204   4.246   5.793  15.626 -0.1003 -0.5611  0.0289
  145DOPC   C2217205   4.182   5.932  15.431 -0.0082 -0.6949  0.2867
  145DOPC   H2R17206   4.231   6.021  15.476  0.3207  0.1220 -1.5753
  145DOPC   H2S17207   4.083   5.956  15.387 -0.0710 -0.7351  0.4060
  145DOPC    C317208   3.894   5.583  15.581  0.2480 -0.8254  0.5332
  145DOPC    HX17209   3.796   5.625  15.554  1.0566  1.4474  0.9140
  145DOPC    HY17210   3.890   5.524  15.675 -0.8584  0.1612  1.1332
  145DOPC   O3117211   3.951   5.520  15.464 -0.3027  0.6426 -0.1808
  145DOPC   C3117212   4.019   5.412  15.489  0.1973  0.1502  1.0385
  145DOPC   O3217213   4.032   5.352  15.594 -0.5780 -0.5066 -0.1561
  145DOPC   C3217214   4.087   5.377  15.355  0.1204  0.3649 -0.0667
  145DOPC   H2X17215   4.138   5.278  15.360  2.1485  1.1593 -2.7943
  145DOPC   H2Y17216   4.008   5.379  15.276  1.4562 -0.4431 -1.4790
  145DOPC   C2317217   4.258   5.882  15.308  0.2095  0.8314  0.1598
  145DOPC   H3R17218   4.208   5.793  15.264 -0.9012  1.1084  0.8039
  145DOPC   H3S17219   4.360   5.857  15.342 -0.6736 -1.6072  1.2342
  145DOPC   C2417220   4.264   5.982  15.198 -0.4253 -0.4903  0.6139
  145DOPC   H4R17221   4.272   6.086  15.237  1.7836 -0.7213  0.8879
  145DOPC   H4S17222   4.173   5.994  15.137  0.3453 -0.3834 -0.5379
  145DOPC   C2517223   4.381   5.951  15.110  0.2105 -1.0366 -0.3313
  145DOPC   H5R17224   4.388   5.842  15.085  0.2491 -0.9899 -0.5339
  145DOPC   H5S17225   4.481   5.974  15.153 -0.4823 -0.2694  0.9118
  145DOPC   C2617226   4.392   6.016  14.969 -0.9133 -0.1564  0.1724
  145DOPC   H6R17227   4.415   6.124  14.981 -0.0863 -0.4973  2.0293
  145DOPC   H6S17228   4.288   6.020  14.930 -0.0457  2.7895 -2.1991
  145DOPC   C2717229   4.481   5.948  14.862 -0.3308  0.0523 -0.0348
  145DOPC   H7R17230   4.453   5.990  14.763  1.5064  0.0618 -0.6002
  145DOPC   H7S17231   4.438   5.848  14.836 -0.1507  0.2681 -1.2277
  145DOPC   C2817232   4.634   5.967  14.863 -0.5557 -0.4436 -0.0386
  145DOPC   H8R17233   4.673   5.883  14.800 -0.1378 -1.6735  1.7892
  145DOPC   H8S17234   4.671   5.955  14.967  1.9195  2.0744 -0.5173
  145DOPC   C2917235   4.676   6.111  14.836  0.3699 -0.3702  0.1774
  145DOPC   H9R17236   4.612   6.188  14.880 -1.0850 -0.3105 -1.9075
  145DOPC  C21017237   4.779   6.148  14.760 -0.3215 -0.9548 -0.4299
  145DOPC  H10R17238   4.795   6.256  14.745 -0.5494 -0.6425  1.3174
  145DOPC  C21117239   4.874   6.060  14.688  0.8383 -0.3045 -0.0969
  145DOPC  H11R17240   4.851   6.073  14.580  0.2507  0.4905  0.1188
  145DOPC  H11S17241   4.855   5.958  14.729 -1.1360  0.6794  1.6362
  145DOPC  C21217242   5.018   6.072  14.731 -0.3168  0.2230  0.2650
  145DOPC  H12R17243   5.072   5.987  14.684  0.4903  0.5475  0.5864
  145DOPC  H12S17244   5.027   6.051  14.840  3.0274  1.3850  0.3276
  145DOPC  C21317245   5.085   6.205  14.701 -0.2990 -0.0898  0.5128
  145DOPC  H13R17246   5.080   6.282  14.781  1.4111 -0.7082  1.2851
  145DOPC  H13S17247   5.044   6.246  14.607 -1.7307  0.7575  1.4750
  145DOPC  C21417248   5.229   6.186  14.663  0.5349 -0.0153  0.7977
  145DOPC  H14R17249   5.235   6.126  14.570  1.7500 -0.3588  1.0751
  145DOPC  H14S17250   5.271   6.128  14.748 -0.4705  0.3107  1.5444
  145DOPC  C21517251   5.300   6.319  14.641  0.1783 -0.1106  0.6582
  145DOPC  H15R17252   5.286   6.392  14.723  1.2664  1.5801 -0.5859
  145DOPC  H15S17253   5.254   6.360  14.547  3.1784 -1.0490 -1.3585
  145DOPC  C21617254   5.450   6.306  14.627  0.3981 -0.3351  0.1623
  145DOPC  H16R17255   5.473   6.239  14.542 -0.4995  0.4581 -0.7283
  145DOPC  H16S17256   5.494   6.242  14.706 -0.4225 -1.6070 -0.3736
  145DOPC  C21717257   5.521   6.439  14.614 -0.3695  0.5306 -0.2835
  145DOPC  H17R17258   5.623   6.437  14.658  0.8106  1.2923 -2.7540
  145DOPC  H17S17259   5.460   6.513  14.668 -1.6977 -1.2102  0.6901
  145DOPC  C21817260   5.547   6.491  14.464  0.1226  0.3217  0.1254
  145DOPC  H18R17261   5.456   6.514  14.405  0.6524  1.4384 -0.2880
  145DOPC  H18S17262   5.604   6.417  14.403  3.0105  0.8511  1.9901
  145DOPC  H18T17263   5.600   6.588  14.476 -0.7231  1.0013 -1.3780
  145DOPC   C3317264   4.199   5.476  15.300 -0.7225 -0.1446 -1.0392
  145DOPC   H3X17265   4.275   5.455  15.379 -1.0706 -0.5468 -0.8027
  145DOPC   H3Y17266   4.171   5.582  15.319  1.4910  0.3384 -0.2089
  145DOPC   C3417267   4.217   5.460  15.154 -0.2460  0.3209 -0.8468
  145DOPC   H4X17268   4.121   5.451  15.099  0.0973  0.5773 -1.5022
  145DOPC   H4Y17269   4.278   5.368  15.142 -0.1769 -0.0229  1.6168
  145DOPC   C3517270   4.309   5.566  15.086 -0.1201 -0.1558  0.3389
  145DOPC   H5X17271   4.402   5.584  15.143  1.7269 -0.4181 -2.3666
  145DOPC   H5Y17272   4.263   5.667  15.073  1.2678  0.4726  0.1219
  145DOPC   C3617273   4.355   5.521  14.945 -0.5463 -0.3979  0.0914
  145DOPC   H6X17274   4.446   5.583  14.931 -0.8910 -0.0180 -0.5069
  145DOPC   H6Y17275   4.380   5.412  14.946  2.1106  0.1448  0.2625
  145DOPC   C3717276   4.271   5.555  14.821 -0.5870  0.5842  0.1647
  145DOPC   H7X17277   4.168   5.515  14.831 -0.2457 -0.1396  0.9558
  145DOPC   H7Y17278   4.259   5.666  14.819  0.0206  0.6738  0.8971
  145DOPC   C3817279   4.318   5.509  14.680 -0.0314  0.1289 -0.3979
  145DOPC   H8X17280   4.261   5.561  14.601  1.0859 -0.8990 -1.9441
  145DOPC   H8Y17281   4.300   5.399  14.677 -2.3563  0.4604 -0.3887
  145DOPC   C3917282   4.463   5.516  14.656 -0.3062 -0.5400  0.2301
  145DOPC   H9X17283   4.529   5.471  14.732  1.4489  0.6163 -0.5470
  145DOPC  C31017284   4.514   5.576  14.548 -0.4397 -0.4823 -0.4121
  145DOPC  H10X17285   4.622   5.587  14.529 -0.2640 -1.1752  0.1275
  145DOPC  C31117286   4.440   5.648  14.442  0.5197 -0.4522 -0.3552
  145DOPC  H11X17287   4.332   5.622  14.439  0.4875 -0.2819 -2.0203
  145DOPC  H11Y17288   4.480   5.633  14.339  0.9355  2.3450 -0.6829
  145DOPC  C31217289   4.463   5.800  14.475 -0.0670 -0.6339  0.4580
  145DOPC  H12X17290   4.572   5.815  14.457 -0.3669  1.4970  0.1806
  145DOPC  H12Y17291   4.434   5.828  14.578 -0.2740  0.7582  0.0327
  145DOPC  C31317292   4.377   5.881  14.381  0.4416  0.7378 -0.0661
  145DOPC  H13X17293   4.415   5.884  14.276 -2.0015 -1.8157 -1.1431
  145DOPC  H13Y17294   4.275   5.841  14.391  1.0173 -0.3236  2.1373
  145DOPC  C31417295   4.364   6.026  14.425 -0.2513 -0.6535 -0.6994
  145DOPC  H14X17296   4.275   6.070  14.374 -1.3177  0.5494  2.0360
  145DOPC  H14Y17297   4.344   6.047  14.532 -1.6049 -2.1161 -0.6233
  145DOPC  C31517298   4.494   6.108  14.377  0.5161  0.1915  0.2501
  145DOPC  H15X17299   4.487   6.110  14.266  0.3980  0.9423  0.2635
  145DOPC  H15Y17300   4.580   6.050  14.417 -0.3556 -0.8865  0.6153
  145DOPC  C31617301   4.492   6.254  14.427  0.2236 -0.1282  0.6404
  145DOPC  H16X17302   4.411   6.318  14.384 -0.6280 -0.6686  1.4042
  145DOPC  H16Y17303   4.463   6.248  14.534 -1.0051 -1.9373  0.2556
  145DOPC  C31717304   4.631   6.320  14.399 -0.2403  0.0268  0.1055
  145DOPC  H17X17305   4.706   6.241  14.379  0.6116  0.5867  1.0005
  145DOPC  H17Y17306   4.623   6.370  14.300  1.0309  0.8348  0.3876
  145DOPC  C31817307   4.680   6.411  14.516  0.6544  0.2101 -0.3262
  145DOPC  H18X17308   4.746   6.358  14.588  1.9003  1.7098 -0.3065
  145DOPC  H18Y17309   4.752   6.492  14.490  1.9513 -0.9659 -0.4879
  145DOPC  H18Z17310   4.580   6.435  14.558  1.6394  1.2545  1.5659
  146DOPC     N17311   4.896   2.517  16.213 -0.1013 -0.4386  0.0586
  146DOPC   C1217312   4.955   2.585  16.092  0.4862  0.4171 -0.0807
  146DOPC  H12A17313   4.886   2.663  16.061 -1.0158 -0.6928  0.3622
  146DOPC  H12B17314   4.961   2.512  16.013  2.3345  1.6036 -1.1156
  146DOPC   C1317315   4.862   2.612  16.326 -0.4260  0.3830  0.5495
  146DOPC  H13A17316   4.813   2.564  16.409  1.6687 -0.0269  1.6283
  146DOPC  H13B17317   4.956   2.654  16.357 -0.7339 -0.2642  2.4974
  146DOPC  H13C17318   4.802   2.696  16.295  0.9825  1.3420  0.3389
  146DOPC   C1417319   4.987   2.415  16.266 -0.7109 -0.2403 -0.3373
  146DOPC  H14A17320   5.011   2.340  16.191  0.0035 -1.7484  1.3209
  146DOPC  H14B17321   5.081   2.455  16.300 -1.1126  0.4295 -0.0027
  146DOPC  H14C17322   4.958   2.372  16.361  1.6271  0.5668  0.8168
  146DOPC   C1517323   4.754   2.464  16.191 -0.6695  0.3776 -0.2690
  146DOPC  H15A17324   4.684   2.544  16.173 -1.1115 -0.1637 -1.0535
  146DOPC  H15B17325   4.726   2.408  16.279 -0.1423  0.8583  0.2096
  146DOPC  H15C17326   4.758   2.399  16.104  2.2567  0.2500 -0.1060
  146DOPC   C1117327   5.102   2.647  16.108  0.0301 -0.0557  0.3778
  146DOPC  H11A17328   5.171   2.569  16.145  0.2072  0.3698  0.9616
  146DOPC  H11B17329   5.139   2.675  16.007  1.8642 -1.2706  0.6689
  146DOPC     P17330   5.032   2.895  16.138 -0.0567 -0.1555 -0.1960
  146DOPC   O1317331   5.017   2.993  16.246 -0.5470 -0.6839 -0.0164
  146DOPC   O1417332   4.918   2.867  16.050  0.1763 -0.4989  0.4821
  146DOPC   O1217333   5.100   2.762  16.194  0.5378 -0.0281 -0.8323
  146DOPC   O1117334   5.162   2.942  16.045 -0.4996  0.3738 -0.0195
  146DOPC    C117335   5.146   3.064  15.969  0.0095 -0.2434  0.8951
  146DOPC    HA17336   5.242   3.117  15.953 -0.7765  1.1203  0.5929
  146DOPC    HB17337   5.092   3.145  16.022  2.3061  1.9896  0.0172
  146DOPC    C217338   5.074   3.032  15.835 -0.0990  0.0290  0.9658
  146DOPC    HS17339   4.974   2.984  15.843  0.4527 -1.3806 -0.1640
  146DOPC   O2117340   5.156   2.950  15.755 -0.3446  0.1082 -0.4622
  146DOPC   C2117341   5.106   2.883  15.654 -0.1271 -0.1293  0.0902
  146DOPC   O2217342   4.989   2.860  15.631 -0.5088  0.6613  0.0805
  146DOPC   C2217343   5.220   2.820  15.572 -0.1009  0.0644 -0.4727
  146DOPC   H2R17344   5.291   2.774  15.645 -1.4493  2.0903  2.3049
  146DOPC   H2S17345   5.275   2.907  15.529  0.8866 -0.5563 -0.5132
  146DOPC    C317346   5.051   3.165  15.762 -1.0468  0.2418 -0.1785
  146DOPC    HX17347   5.156   3.200  15.746 -0.7553 -0.4397  0.2330
  146DOPC    HY17348   4.992   3.244  15.814 -1.9626 -0.7722  0.3424
  146DOPC   O3117349   4.999   3.146  15.630 -0.2492 -0.6973  0.0642
  146DOPC   C3117350   4.868   3.135  15.626 -0.7116  0.3923 -0.6961
  146DOPC   O3217351   4.799   3.129  15.726  0.0674  0.3525  0.0563
  146DOPC   C3217352   4.821   3.120  15.485  0.2379  0.8545 -0.6901
  146DOPC   H2X17353   4.884   3.191  15.426  0.3478  1.2607 -0.0974
  146DOPC   H2Y17354   4.845   3.016  15.455  0.3999  0.6020  0.2914
  146DOPC   C2317355   5.173   2.723  15.460 -0.4129 -0.3518  0.4318
  146DOPC   H3R17356   5.129   2.629  15.501 -0.6227 -0.5337 -0.2094
  146DOPC   H3S17357   5.264   2.692  15.406 -0.0618 -0.2393  0.9463
  146DOPC   C2417358   5.084   2.788  15.358 -0.3570  0.6387  0.5544
  146DOPC   H4R17359   5.149   2.854  15.297  0.9461 -0.7676  0.3834
  146DOPC   H4S17360   4.992   2.841  15.392 -2.7612 -1.7577 -1.7645
  146DOPC   C2517361   5.039   2.694  15.249 -0.1145  0.6224  0.5483
  146DOPC   H5R17362   4.958   2.630  15.290  1.0513 -0.0439  1.8914
  146DOPC   H5S17363   5.122   2.624  15.224 -1.0704 -0.7839  1.1307
  146DOPC   C2617364   5.003   2.768  15.114  0.1378 -0.9470 -0.8954
  146DOPC   H6R17365   4.925   2.705  15.066 -1.4136  1.0470 -1.1276
  146DOPC   H6S17366   5.098   2.776  15.057  0.9057  1.3066  0.5278
  146DOPC   C2717367   4.939   2.908  15.136 -0.0555  0.1528 -0.0784
  146DOPC   H7R17368   5.016   2.975  15.181  0.4698  0.5047 -1.4446
  146DOPC   H7S17369   4.859   2.889  15.210 -0.0279 -0.6724 -0.2529
  146DOPC   C2817370   4.872   2.981  15.023  0.0746 -0.2969 -0.3928
  146DOPC   H8R17371   4.954   3.003  14.951  1.5756  0.4657  1.4729
  146DOPC   H8S17372   4.838   3.077  15.069  1.3582  0.4138 -0.8574
  146DOPC   C2917373   4.758   2.907  14.961 -0.0651 -0.4783  0.2086
  146DOPC   H9R17374   4.674   2.900  15.031  0.8183  2.0646  1.6505
  146DOPC  C21017375   4.754   2.841  14.846  0.0868 -0.1603  0.2824
  146DOPC  H10R17376   4.669   2.784  14.806  1.4898 -1.1305 -1.4571
  146DOPC  C21117377   4.875   2.834  14.757 -0.6525  0.6107 -0.5176
  146DOPC  H11R17378   4.971   2.848  14.810 -0.8802  1.1051 -0.2244
  146DOPC  H11S17379   4.861   2.908  14.675 -1.5077 -1.1907 -2.0893
  146DOPC  C21217380   4.910   2.694  14.686 -0.3877 -0.1913 -0.4079
  146DOPC  H12R17381   4.914   2.617  14.765  0.8740  0.2188 -0.0529
  146DOPC  H12S17382   5.012   2.707  14.645 -0.2908 -0.7837 -0.3550
  146DOPC  C21317383   4.822   2.655  14.566  0.2388  0.2515  0.8928
  146DOPC  H13R17384   4.857   2.713  14.478 -4.9382  1.5528 -0.6706
  146DOPC  H13S17385   4.716   2.685  14.581  0.1639  0.3442  0.2030
  146DOPC  C21417386   4.839   2.506  14.537 -0.0227  0.1797  0.4720
  146DOPC  H14R17387   4.795   2.437  14.611  1.7866 -0.7799  0.7118
  146DOPC  H14S17388   4.950   2.504  14.546 -0.0080  1.9401  1.0269
  146DOPC  C21517389   4.783   2.466  14.399 -0.1315  0.4773  0.8142
  146DOPC  H15R17390   4.830   2.368  14.373 -2.1419 -0.2548 -0.2678
  146DOPC  H15S17391   4.812   2.529  14.313 -3.3696  1.3863  0.2512
  146DOPC  C21617392   4.626   2.453  14.402 -0.2720  0.1969 -0.1841
  146DOPC  H16R17393   4.588   2.553  14.433  1.2117  1.0851 -1.1142
  146DOPC  H16S17394   4.599   2.366  14.466 -0.5149 -0.6455 -1.3937
  146DOPC  C21717395   4.552   2.431  14.271 -0.3218  0.0174  0.4677
  146DOPC  H17R17396   4.550   2.519  14.204 -1.8137  1.0312  1.7710
  146DOPC  H17S17397   4.446   2.410  14.298 -0.2058 -1.7020 -0.3116
  146DOPC  C21817398   4.607   2.314  14.195  0.3192 -0.3524 -0.2696
  146DOPC  H18R17399   4.534   2.281  14.118 -1.1365  0.1013  0.8600
  146DOPC  H18S17400   4.631   2.223  14.254  2.0560 -0.0217 -0.4350
  146DOPC  H18T17401   4.705   2.345  14.153  0.2104 -0.1935 -0.4083
  146DOPC   C3317402   4.670   3.157  15.479  0.6473 -0.4327  0.4778
  146DOPC   H3X17403   4.646   3.256  15.525  0.2369 -0.2686 -0.0711
  146DOPC   H3Y17404   4.608   3.082  15.532 -0.7042  0.5668  0.3793
  146DOPC   C3417405   4.611   3.174  15.340 -0.5503 -0.1207  0.0765
  146DOPC   H4X17406   4.500   3.183  15.344 -0.3918  2.2734  1.1352
  146DOPC   H4Y17407   4.635   3.084  15.280  0.0111  1.5140 -2.3324
  146DOPC   C3517408   4.644   3.302  15.253 -0.2055 -0.1321 -0.2214
  146DOPC   H5X17409   4.754   3.311  15.242 -0.0955  0.0460  0.9958
  146DOPC   H5Y17410   4.596   3.392  15.296 -0.0176 -0.4843  0.7342
  146DOPC   C3617411   4.569   3.311  15.115  0.2455  0.5907  0.1900
  146DOPC   H6X17412   4.596   3.223  15.052  3.7561  1.5492  0.1100
  146DOPC   H6Y17413   4.460   3.302  15.133 -0.2811 -1.7843 -3.2783
  146DOPC   C3717414   4.614   3.436  15.028 -0.6062  0.2995 -0.2143
  146DOPC   H7X17415   4.590   3.533  15.077  0.6823  1.5961 -1.9984
  146DOPC   H7Y17416   4.725   3.432  15.030 -0.6017  0.5083  0.1894
  146DOPC   C3817417   4.582   3.430  14.876 -0.6887  0.1489 -0.2495
  146DOPC   H8X17418   4.632   3.519  14.834  1.4527 -0.5132  0.7813
  146DOPC   H8Y17419   4.473   3.450  14.875 -1.1981 -2.1591  0.5259
  146DOPC   C3917420   4.626   3.305  14.811 -0.4592  1.0599 -0.0853
  146DOPC   H9X17421   4.730   3.304  14.777  0.0631 -1.2755  1.3580
  146DOPC  C31017422   4.557   3.194  14.788  0.0421  0.6183 -0.9861
  146DOPC  H10X17423   4.606   3.113  14.731  1.4794 -0.3716  1.5182
  146DOPC  C31117424   4.412   3.165  14.834 -0.1965 -0.7161  0.5591
  146DOPC  H11X17425   4.346   3.157  14.745 -1.4186 -2.7412  1.5595
  146DOPC  H11Y17426   4.361   3.241  14.896 -1.4637  0.0399 -1.3369
  146DOPC  C31217427   4.419   3.032  14.899  0.6884 -0.2928  0.9026
  146DOPC  H12X17428   4.476   3.028  14.995  0.2803 -0.0161  1.1635
  146DOPC  H12Y17429   4.475   2.967  14.828 -0.8183  0.5191 -1.1141
  146DOPC  C31317430   4.280   2.967  14.918 -0.0583 -0.4579  0.2560
  146DOPC  H13X17431   4.216   3.006  14.836 -0.8898  1.1223  1.6028
  146DOPC  H13Y17432   4.282   2.856  14.911 -0.1618 -0.4102 -0.6394
  146DOPC  C31417433   4.204   3.015  15.035 -0.0971 -0.3687 -0.8821
  146DOPC  H14X17434   4.208   3.126  15.031 -0.9835 -0.2322  1.1251
  146DOPC  H14Y17435   4.100   2.981  15.014 -0.2680 -0.9357  0.7842
  146DOPC  C31517436   4.249   2.945  15.170 -0.2882 -0.5803  0.3928
  146DOPC  H15X17437   4.359   2.933  15.177 -0.1746  0.3595  0.2853
  146DOPC  H15Y17438   4.191   2.850  15.168 -0.4720 -0.4614  0.0159
  146DOPC  C31617439   4.224   3.029  15.294 -0.0881 -0.1670 -0.5098
  146DOPC  H16X17440   4.263   3.132  15.281  2.4140 -0.7606  1.4780
  146DOPC  H16Y17441   4.113   3.035  15.302 -0.3728 -2.5080 -1.8810
  146DOPC  C31717442   4.294   2.975  15.419  0.5461 -0.4004  0.0746
  146DOPC  H17X17443   4.291   2.865  15.434 -2.4110 -0.2444  1.1796
  146DOPC  H17Y17444   4.403   2.998  15.409  0.8933 -2.8113 -3.6323
  146DOPC  C31817445   4.236   3.038  15.546 -0.3966 -0.0695  0.8063
  146DOPC  H18X17446   4.246   3.148  15.541 -0.1243 -0.0200  1.9554
  146DOPC  H18Y17447   4.137   3.003  15.582 -0.0299 -0.0323  1.8998
  146DOPC  H18Z17448   4.305   3.023  15.632  0.2995  0.4635  0.3419
  147DOPC     N17449   1.873   2.399  16.501 -0.2653 -0.6168  0.4731
  147DOPC   C1217450   1.875   2.498  16.612  0.3709 -0.5619  0.0708
  147DOPC  H12A17451   1.974   2.503  16.655  1.0013  0.7804 -1.4568
  147DOPC  H12B17452   1.818   2.453  16.692 -0.3028  0.2854  0.0834
  147DOPC   C1317453   1.742   2.402  16.429  0.5073 -0.3194 -0.3358
  147DOPC  H13A17454   1.718   2.505  16.409  0.4141 -0.5110 -1.2271
  147DOPC  H13B17455   1.748   2.339  16.342  2.0816 -1.4155  0.5120
  147DOPC  H13C17456   1.666   2.360  16.494 -0.9208 -0.1948 -1.8606
  147DOPC   C1417457   1.900   2.262  16.551  0.2350  0.1419  0.3309
  147DOPC  H14A17458   1.930   2.200  16.468  1.1477 -0.7787  1.3025
  147DOPC  H14B17459   1.984   2.262  16.620 -1.2995  0.7756  2.3051
  147DOPC  H14C17460   1.816   2.227  16.609  0.1819  2.8949  2.0946
  147DOPC   C1517461   1.983   2.412  16.402  0.2301 -0.1257  0.3708
  147DOPC  H15A17462   1.967   2.506  16.352 -0.2494  0.0238  0.7941
  147DOPC  H15B17463   1.966   2.337  16.325 -0.9256  0.9268 -0.4388
  147DOPC  H15C17464   2.082   2.395  16.440 -0.3606  0.3489  2.1959
  147DOPC   C1117465   1.830   2.649  16.589 -0.3467 -0.1050 -0.0954
  147DOPC  H11A17466   1.852   2.693  16.689 -0.5638 -0.1075 -0.0451
  147DOPC  H11B17467   1.892   2.695  16.510  1.5202 -0.7992  0.9094
  147DOPC     P17468   1.618   2.777  16.496 -0.2046  0.4708 -0.1298
  147DOPC   O1317469   1.566   2.870  16.599  0.3599 -0.2773 -0.3646
  147DOPC   O1417470   1.520   2.714  16.407  0.0682 -0.2753  0.6522
  147DOPC   O1217471   1.694   2.664  16.568  0.0262  0.8940  0.0134
  147DOPC   O1117472   1.732   2.857  16.415  0.3880  0.0971  0.3230
  147DOPC    C117473   1.696   2.924  16.290 -0.3056 -0.3514 -0.1062
  147DOPC    HA17474   1.739   3.026  16.298 -1.5085  0.0596  1.6318
  147DOPC    HB17475   1.587   2.939  16.275 -0.2125 -1.3522 -2.1164
  147DOPC    C217476   1.767   2.844  16.174  0.0432 -0.7180 -0.2378
  147DOPC    HS17477   1.752   2.900  16.079 -0.6671 -1.0785 -0.3470
  147DOPC   O2117478   1.713   2.713  16.162  0.0873  0.5853  0.2459
  147DOPC   C2117479   1.594   2.705  16.109 -1.2021  0.5724 -0.3292
  147DOPC   O2217480   1.530   2.788  16.048 -0.2721  0.2379  0.3941
  147DOPC   C2217481   1.545   2.561  16.126  0.3078  0.2195  0.5676
  147DOPC   H2R17482   1.448   2.562  16.072  0.3922  1.3593  0.4097
  147DOPC   H2S17483   1.530   2.552  16.236  1.7434  1.2461  0.8775
  147DOPC    C317484   1.925   2.838  16.190  0.3316 -0.2052  0.5401
  147DOPC    HX17485   1.949   2.774  16.278 -0.9726 -0.0688  1.0160
  147DOPC    HY17486   1.962   2.942  16.205  0.1378 -0.1430  0.5843
  147DOPC   O3117487   1.982   2.781  16.069  0.5581 -0.0280 -0.6768
  147DOPC   C3117488   2.032   2.865  15.976  0.8506  0.5674  0.4233
  147DOPC   O3217489   2.038   2.990  15.988 -0.2322  0.0443 -0.9276
  147DOPC   C3217490   2.051   2.790  15.845 -0.3907  0.1267  0.1958
  147DOPC   H2X17491   2.149   2.738  15.856  0.1794  1.5879  2.8769
  147DOPC   H2Y17492   1.964   2.721  15.835 -1.8815  2.1866 -1.8417
  147DOPC   C2317493   1.632   2.449  16.071 -0.3539 -0.1676 -0.1663
  147DOPC   H3R17494   1.629   2.356  16.132 -0.1846 -0.1939 -0.1968
  147DOPC   H3S17495   1.738   2.469  16.097  0.1138 -1.3486 -1.0770
  147DOPC   C2417496   1.611   2.424  15.920 -0.6575 -0.3995 -0.3826
  147DOPC   H4R17497   1.515   2.381  15.887 -0.2742 -1.6821  0.0759
  147DOPC   H4S17498   1.685   2.344  15.896 -1.3594 -0.8700 -1.0039
  147DOPC   C2517499   1.648   2.545  15.832  0.3859  0.2751 -0.1091
  147DOPC   H5R17500   1.755   2.560  15.858  0.1575 -0.9116  1.7637
  147DOPC   H5S17501   1.586   2.634  15.856  1.3859  0.7557  0.8035
  147DOPC   C2617502   1.608   2.519  15.687  0.0058  0.1062 -0.0455
  147DOPC   H6R17503   1.500   2.498  15.677  0.4163 -0.9840 -3.6429
  147DOPC   H6S17504   1.650   2.423  15.649 -0.1584  0.4024 -1.0115
  147DOPC   C2717505   1.630   2.637  15.595  0.2202  0.0486  0.3020
  147DOPC   H7R17506   1.735   2.671  15.591  0.4215 -0.5462  0.4804
  147DOPC   H7S17507   1.581   2.723  15.647 -0.6880 -1.0533  1.3287
  147DOPC   C2817508   1.566   2.625  15.452 -0.1056 -0.0429  1.1170
  147DOPC   H8R17509   1.570   2.722  15.396 -0.5338 -1.8248 -2.2825
  147DOPC   H8S17510   1.460   2.593  15.454 -0.1861 -0.3034 -1.8189
  147DOPC   C2917511   1.659   2.530  15.375  0.1803  0.2638  0.3006
  147DOPC   H9R17512   1.743   2.482  15.427 -0.4311 -1.3136 -0.1064
  147DOPC  C21017513   1.673   2.506  15.244 -0.3356 -0.0090 -0.3149
  147DOPC  H10R17514   1.747   2.429  15.219  0.0852  0.2836  0.0155
  147DOPC  C21117515   1.593   2.571  15.132 -0.3355  0.1016  0.5601
  147DOPC  H11R17516   1.530   2.656  15.165 -2.4433 -1.1374 -0.0577
  147DOPC  H11S17517   1.529   2.490  15.091 -0.9868  1.3521 -0.9750
  147DOPC  C21217518   1.687   2.621  15.022  0.1535 -0.6523  0.9673
  147DOPC  H12R17519   1.754   2.543  14.980 -0.7054 -0.5621 -0.6683
  147DOPC  H12S17520   1.741   2.715  15.049 -1.7438  0.4218  1.1403
  147DOPC  C21317521   1.607   2.667  14.900  0.5203 -0.5046 -0.3676
  147DOPC  H13R17522   1.679   2.724  14.836  0.2458 -0.1378 -0.3518
  147DOPC  H13S17523   1.549   2.759  14.924  1.7580  0.5800 -1.3422
  147DOPC  C21417524   1.533   2.566  14.824  0.3350  0.0291  0.2716
  147DOPC  H14R17525   1.439   2.532  14.871 -0.2710 -1.6012 -1.9481
  147DOPC  H14S17526   1.606   2.485  14.801  2.8766  2.3837 -0.5425
  147DOPC  C21517527   1.496   2.633  14.693  0.6707  0.1547 -0.2363
  147DOPC  H15R17528   1.577   2.698  14.654  2.8732 -0.9033  2.2687
  147DOPC  H15S17529   1.413   2.706  14.702  1.4151  0.7572  2.6375
  147DOPC  C21617530   1.449   2.536  14.578  0.7245 -0.2851  0.1028
  147DOPC  H16R17531   1.377   2.463  14.621 -0.4791  1.6767  1.6144
  147DOPC  H16S17532   1.529   2.463  14.553  0.7207 -0.4912  0.6714
  147DOPC  C21717533   1.407   2.613  14.459 -0.3260 -0.1792 -0.4154
  147DOPC  H17R17534   1.497   2.623  14.396 -0.2935 -2.0510 -0.7386
  147DOPC  H17S17535   1.359   2.712  14.478  1.5799  0.3595  2.0053
  147DOPC  C21817536   1.318   2.522  14.372  0.0680  0.2475  0.5822
  147DOPC  H18R17537   1.286   2.587  14.289 -0.4537  1.0397  1.3843
  147DOPC  H18S17538   1.227   2.500  14.432 -0.4829  0.3137 -0.2253
  147DOPC  H18T17539   1.375   2.431  14.341  0.3483  0.3609  0.7536
  147DOPC   C3317540   2.036   2.890  15.726 -0.4034  0.0179  0.5478
  147DOPC   H3X17541   2.126   2.954  15.711 -1.0579  0.6309 -0.9962
  147DOPC   H3Y17542   1.941   2.942  15.748 -1.4076 -1.1790 -0.8020
  147DOPC   C3417543   2.023   2.813  15.588  0.2990 -0.6464  0.5024
  147DOPC   H4X17544   1.921   2.769  15.591 -0.0439  0.2039  1.7058
  147DOPC   H4Y17545   2.093   2.726  15.583  1.9411  0.6478  0.3509
  147DOPC   C3517546   2.046   2.906  15.465  0.2639  0.2228  0.3918
  147DOPC   H5X17547   2.147   2.948  15.444 -0.1350  0.0674 -2.0904
  147DOPC   H5Y17548   1.990   3.001  15.471 -0.1082 -0.0000  0.4669
  147DOPC   C3617549   1.997   2.840  15.331 -1.1446  0.3980  0.1388
  147DOPC   H6X17550   1.907   2.777  15.350 -1.5960  0.4781 -1.6083
  147DOPC   H6Y17551   1.968   2.917  15.257  0.2253  0.0951 -0.7630
  147DOPC   C3717552   2.105   2.758  15.260 -0.5828  0.4856 -0.0072
  147DOPC   H7X17553   2.165   2.831  15.202  0.5181 -0.3137  0.0987
  147DOPC   H7Y17554   2.163   2.689  15.325  1.6395  1.0012 -1.3579
  147DOPC   C3817555   2.046   2.677  15.138  0.4100  1.1290  0.5659
  147DOPC   H8X17556   2.004   2.748  15.064 -1.3895  0.8814  1.3098
  147DOPC   H8Y17557   1.959   2.621  15.180  0.2372 -2.3741 -3.7217
  147DOPC   C3917558   2.159   2.590  15.068 -0.0472  0.2971 -0.1043
  147DOPC   H9X17559   2.226   2.535  15.136 -0.4440  1.9351  1.6897
  147DOPC  C31017560   2.183   2.574  14.941 -0.9708 -0.7869  0.4225
  147DOPC  H10X17561   2.281   2.531  14.918 -1.1635 -1.2021  0.3628
  147DOPC  C31117562   2.131   2.624  14.813 -0.1105 -0.7375 -0.1321
  147DOPC  H11X17563   2.209   2.697  14.783  0.6786 -1.1895  0.7404
  147DOPC  H11Y17564   2.026   2.659  14.818 -1.0706 -3.4998  1.1389
  147DOPC  C31217565   2.124   2.507  14.708 -0.0383  0.1617  0.1510
  147DOPC  H12X17566   2.068   2.416  14.739  1.6241  0.3027  4.3011
  147DOPC  H12Y17567   2.228   2.472  14.694 -0.3872 -1.4053  1.2201
  147DOPC  C31317568   2.071   2.540  14.563  0.5218  0.1034 -0.4694
  147DOPC  H13X17569   2.123   2.633  14.530 -1.4133  1.3376 -0.1749
  147DOPC  H13Y17570   2.099   2.451  14.502  1.2288 -0.8328  1.1700
  147DOPC  C31417571   1.923   2.571  14.568 -0.0891 -0.1776  0.0281
  147DOPC  H14X17572   1.908   2.658  14.634 -0.8014 -0.8705  0.8036
  147DOPC  H14Y17573   1.895   2.592  14.462  1.3507 -0.6660 -0.4817
  147DOPC  C31517574   1.830   2.460  14.626 -0.3526  0.1558  0.1020
  147DOPC  H15X17575   1.726   2.492  14.603 -0.3744 -0.0066 -0.0291
  147DOPC  H15Y17576   1.851   2.437  14.732  0.4490  0.2187 -0.0341
  147DOPC  C31617577   1.848   2.334  14.543  0.2105  0.9235 -0.5718
  147DOPC  H16X17578   1.829   2.359  14.436  0.1884  0.0896 -0.7684
  147DOPC  H16Y17579   1.950   2.293  14.553 -0.6550 -0.8771  1.8652
  147DOPC  C31717580   1.737   2.233  14.581  0.4926  0.2679  0.0414
  147DOPC  H17X17581   1.730   2.217  14.690  2.1892 -0.2696  0.1068
  147DOPC  H17Y17582   1.649   2.294  14.553 -2.0528 -2.6623  1.0868
  147DOPC  C31817583   1.735   2.100  14.496  0.7604  0.1011  0.0438
  147DOPC  H18X17584   1.693   2.125  14.396  3.8899 -2.4478 -2.1474
  147DOPC  H18Y17585   1.839   2.062  14.480  0.7514  0.3242 -0.5823
  147DOPC  H18Z17586   1.667   2.027  14.544 -0.2365  0.3109 -1.0103
  148DOPC     N17587   3.109   5.456  16.096  0.1893 -0.1651 -0.0575
  148DOPC   C1217588   2.984   5.363  16.077  0.6627  0.3064  0.0210
  148DOPC  H12A17589   3.028   5.283  16.019  1.6370  0.5597  0.3829
  148DOPC  H12B17590   2.910   5.410  16.015 -0.2290 -0.5561  0.4165
  148DOPC   C1317591   3.066   5.586  16.163 -0.5589 -0.5116 -0.4610
  148DOPC  H13A17592   2.994   5.646  16.108  0.6217  0.0737 -1.4462
  148DOPC  H13B17593   3.034   5.563  16.263  1.0443  0.7746  0.3995
  148DOPC  H13C17594   3.153   5.650  16.169  2.5561 -4.4946  1.2326
  148DOPC   C1417595   3.169   5.474  15.962  0.0131  0.3175 -0.5699
  148DOPC  H14A17596   3.202   5.378  15.925  1.1950  0.0553  1.0370
  148DOPC  H14B17597   3.104   5.516  15.887 -1.0537 -2.4900 -1.3282
  148DOPC  H14C17598   3.257   5.537  15.968  0.3337 -0.1314 -0.5065
  148DOPC   C1517599   3.211   5.390  16.187 -0.4630  0.0008  0.0089
  148DOPC  H15A17600   3.172   5.367  16.285  0.7637 -0.1630  0.4736
  148DOPC  H15B17601   3.305   5.443  16.188 -0.4501  0.0099 -0.9333
  148DOPC  H15C17602   3.245   5.296  16.146  4.9083  1.7472 -0.2228
  148DOPC   C1117603   2.914   5.300  16.201  0.5918  0.0293  0.0649
  148DOPC  H11A17604   2.837   5.227  16.168 -1.0554  1.7067  0.0320
  148DOPC  H11B17605   2.991   5.237  16.249 -1.0420 -2.9022 -0.8748
  148DOPC     P17606   2.714   5.456  16.265 -0.0866 -0.6087  0.2129
  148DOPC   O1317607   2.718   5.597  16.315 -0.6985 -0.2888  0.3431
  148DOPC   O1417608   2.619   5.364  16.333  0.1442 -0.0641  0.2248
  148DOPC   O1217609   2.856   5.394  16.291  0.3844  0.5964 -0.3108
  148DOPC   O1117610   2.702   5.449  16.107 -0.1142 -0.0703 -0.5532
  148DOPC    C117611   2.615   5.359  16.046  0.2942 -0.2410 -0.1373
  148DOPC    HA17612   2.517   5.367  16.097  0.3698  1.4228 -0.1960
  148DOPC    HB17613   2.656   5.257  16.063 -0.3801 -0.4991 -0.0309
  148DOPC    C217614   2.596   5.395  15.895  0.0253  0.7286 -0.4426
  148DOPC    HS17615   2.516   5.330  15.854 -1.6091  3.5021 -2.0030
  148DOPC   O2117616   2.719   5.385  15.825 -0.3946  0.7501 -0.4381
  148DOPC   C2117617   2.770   5.269  15.805 -0.1516 -0.8981 -0.3238
  148DOPC   O2217618   2.718   5.159  15.827 -0.4113  0.3265  0.3757
  148DOPC   C2217619   2.904   5.301  15.724 -0.1102  0.1805  0.5404
  148DOPC   H2R17620   2.983   5.257  15.789 -1.3775  0.2457  2.1906
  148DOPC   H2S17621   2.922   5.410  15.714 -2.6422  0.5276 -1.2672
  148DOPC    C317622   2.534   5.537  15.874 -0.5267  0.1164  0.7068
  148DOPC    HX17623   2.615   5.610  15.895 -1.8206  1.6544  0.5565
  148DOPC    HY17624   2.453   5.541  15.949 -0.1287  0.0122  1.1479
  148DOPC   O3117625   2.482   5.550  15.743 -0.0686  0.6582 -0.3382
  148DOPC   C3117626   2.561   5.600  15.652 -0.5957  0.4071 -0.3529
  148DOPC   O3217627   2.682   5.611  15.668 -0.2531 -0.6708 -0.5017
  148DOPC   C3217628   2.485   5.621  15.524 -0.3897 -0.9114 -0.0903
  148DOPC   H2X17629   2.376   5.635  15.542 -0.5142  3.7076 -2.8275
  148DOPC   H2Y17630   2.522   5.715  15.478  0.9184 -0.6652  1.3588
  148DOPC   C2317631   2.896   5.234  15.589  0.8707  0.5453 -0.4643
  148DOPC   H3R17632   2.789   5.232  15.559  0.4687 -2.1884  0.8650
  148DOPC   H3S17633   2.925   5.128  15.601  0.1640  0.4070  0.0762
  148DOPC   C2417634   2.984   5.291  15.481  0.7793 -0.1766  0.1461
  148DOPC   H4R17635   3.086   5.253  15.502 -0.1065 -1.1108  3.3697
  148DOPC   H4S17636   2.985   5.401  15.493 -1.8758  0.1262 -1.5775
  148DOPC   C2517637   2.922   5.246  15.348 -0.5671 -0.7780  0.0224
  148DOPC   H5R17638   2.822   5.293  15.340  0.0241  0.2214 -4.2069
  148DOPC   H5S17639   2.921   5.135  15.348  0.9023 -0.8473 -1.5981
  148DOPC   C2617640   3.004   5.309  15.239  1.1748  0.0212 -0.2844
  148DOPC   H6R17641   3.105   5.273  15.269  0.6931 -1.8449 -0.7754
  148DOPC   H6S17642   2.999   5.420  15.231  2.1710  0.0040 -1.3875
  148DOPC   C2717643   2.961   5.252  15.100  0.6494 -0.7118  0.0349
  148DOPC   H7R17644   2.850   5.261  15.090  0.7599  1.5670  0.3763
  148DOPC   H7S17645   2.986   5.143  15.097 -1.0531 -1.1280 -0.4713
  148DOPC   C2817646   3.027   5.343  14.990 -0.1168  0.3716 -0.0605
  148DOPC   H8R17647   2.990   5.447  15.006 -2.3117 -0.1437 -1.3815
  148DOPC   H8S17648   2.989   5.314  14.890  0.1311 -0.2391  0.0170
  148DOPC   C2917649   3.178   5.337  14.988 -0.5611 -0.2433 -0.0987
  148DOPC   H9R17650   3.236   5.412  15.043  1.7997 -0.4048 -2.1948
  148DOPC  C21017651   3.245   5.235  14.927 -0.1212  0.4573 -0.4165
  148DOPC  H10R17652   3.355   5.239  14.924 -0.0080 -1.0852  0.4598
  148DOPC  C21117653   3.180   5.114  14.861 -0.8454 -0.7828 -0.5045
  148DOPC  H11R17654   3.139   5.132  14.760 -0.4559  0.6567 -0.4296
  148DOPC  H11S17655   3.092   5.079  14.919 -2.4138  2.1043 -0.9495
  148DOPC  C21217656   3.276   5.001  14.842 -0.7516 -0.3841 -0.6869
  148DOPC  H12R17657   3.338   4.985  14.932 -1.2939 -1.4727 -0.4874
  148DOPC  H12S17658   3.351   5.022  14.762  1.1381  1.3732  1.4219
  148DOPC  C21317659   3.200   4.875  14.810 -0.0306  0.4916  0.1706
  148DOPC  H13R17660   3.108   4.902  14.753 -0.0348 -0.3594 -0.2469
  148DOPC  H13S17661   3.164   4.834  14.907  0.1469  0.1808  0.1054
  148DOPC  C21417662   3.274   4.781  14.714 -0.4206  0.0916 -0.0012
  148DOPC  H14R17663   3.313   4.833  14.624 -1.1928 -0.3367 -0.5961
  148DOPC  H14S17664   3.201   4.710  14.671  0.7581 -1.2324  0.1342
  148DOPC  C21517665   3.378   4.690  14.784  0.5550  0.1968 -0.4603
  148DOPC  H15R17666   3.348   4.680  14.890 -0.3249  1.2402 -0.5988
  148DOPC  H15S17667   3.471   4.751  14.788 -0.1632  1.3556 -0.8674
  148DOPC  C21617668   3.397   4.554  14.712  0.1492 -0.8567  0.1815
  148DOPC  H16R17669   3.492   4.516  14.754 -0.1459  0.3839  2.0430
  148DOPC  H16S17670   3.409   4.568  14.602  2.4891 -0.0253  0.4902
  148DOPC  C21717671   3.291   4.452  14.743 -0.1896  0.5349 -0.0665
  148DOPC  H17R17672   3.189   4.462  14.700 -1.2061  0.5509  2.1544
  148DOPC  H17S17673   3.269   4.473  14.850 -0.4046 -1.0238  0.2178
  148DOPC  C21817674   3.337   4.306  14.737 -0.4921  0.4923  0.3228
  148DOPC  H18R17675   3.436   4.300  14.787  0.0530  2.0525 -0.5201
  148DOPC  H18S17676   3.349   4.276  14.631  1.3507  0.1826  0.5837
  148DOPC  H18T17677   3.263   4.238  14.785 -2.1372  1.6538 -0.4696
  148DOPC   C3317678   2.497   5.513  15.419 -0.0782  0.7269 -0.4641
  148DOPC   H3X17679   2.604   5.505  15.389 -0.7509  0.6715 -3.1195
  148DOPC   H3Y17680   2.433   5.535  15.331 -1.6118 -3.1599 -0.5311
  148DOPC   C3417681   2.437   5.379  15.468 -0.5770 -0.9475  0.1836
  148DOPC   H4X17682   2.339   5.396  15.519 -0.6052 -1.2162  0.2213
  148DOPC   H4Y17683   2.506   5.337  15.545  1.2342 -0.5093 -1.1340
  148DOPC   C3517684   2.415   5.275  15.361 -0.1702 -0.0842  0.0152
  148DOPC   H5X17685   2.349   5.317  15.283  0.0523  0.4861  0.1349
  148DOPC   H5Y17686   2.363   5.190  15.411 -3.2277  1.0717 -0.9973
  148DOPC   C3617687   2.548   5.236  15.294  0.2105 -0.0178 -0.3962
  148DOPC   H6X17688   2.611   5.322  15.260  1.1077 -1.3939 -2.3778
  148DOPC   H6Y17689   2.606   5.181  15.371  0.4727  1.2489  0.3428
  148DOPC   C3717690   2.539   5.134  15.182  0.1954 -0.3034  0.1672
  148DOPC   H7X17691   2.641   5.093  15.171  0.7195  0.2248  2.5048
  148DOPC   H7Y17692   2.465   5.061  15.221  0.2632  0.2209  1.3286
  148DOPC   C3817693   2.488   5.182  15.047 -0.1047  0.1343  0.7158
  148DOPC   H8X17694   2.543   5.273  15.014 -0.5502 -0.6320 -2.5470
  148DOPC   H8Y17695   2.385   5.223  15.056 -0.2857 -0.4452  1.3393
  148DOPC   C3917696   2.480   5.072  14.944 -0.3338 -0.2999  0.7668
  148DOPC   H9X17697   2.380   5.029  14.927  0.5925 -1.7209 -1.4280
  148DOPC  C31017698   2.575   5.031  14.858 -0.2722 -0.0727 -0.0629
  148DOPC  H10X17699   2.551   4.944  14.794  0.0238  0.0954 -0.4069
  148DOPC  C31117700   2.716   5.083  14.842  0.1823  0.2413 -0.2125
  148DOPC  H11X17701   2.775   4.992  14.864  1.7123  0.8759 -1.5163
  148DOPC  H11Y17702   2.740   5.152  14.926  0.3119 -1.5066  1.2285
  148DOPC  C31217703   2.736   5.147  14.704  0.5383  0.2139  0.2962
  148DOPC  H12X17704   2.830   5.207  14.701  0.0986  1.3446  4.0507
  148DOPC  H12Y17705   2.654   5.217  14.676  1.1832  0.4697 -1.0145
  148DOPC  C31317706   2.737   5.035  14.598 -0.3584  0.5452 -0.1420
  148DOPC  H13X17707   2.791   4.946  14.636 -0.7808  0.7373  0.9322
  148DOPC  H13Y17708   2.638   4.987  14.590  0.2580 -0.6734 -0.7576
  148DOPC  C31417709   2.784   5.069  14.458  0.1530 -0.7133 -0.6324
  148DOPC  H14X17710   2.723   5.004  14.392 -2.3146 -1.1320  1.8373
  148DOPC  H14Y17711   2.759   5.176  14.436  0.9754 -0.0965  1.2077
  148DOPC  C31517712   2.928   5.052  14.453  0.8669  0.0211  0.6611
  148DOPC  H15X17713   2.937   4.942  14.468  0.5150 -0.2455 -0.9169
  148DOPC  H15Y17714   2.979   5.097  14.540 -0.0449  1.0945  0.6671
  148DOPC  C31617715   2.997   5.092  14.319 -0.6593 -0.4816 -0.4930
  148DOPC  H16X17716   2.941   5.038  14.240  0.0207  2.6892 -3.4012
  148DOPC  H16Y17717   2.967   5.197  14.296  2.8405  0.7529 -0.0898
  148DOPC  C31717718   3.153   5.080  14.330  0.0246  0.0859 -0.4911
  148DOPC  H17X17719   3.179   4.978  14.294 -1.0287 -0.6037  0.6192
  148DOPC  H17Y17720   3.188   5.153  14.255  1.0461  0.0409 -0.0837
  148DOPC  C31817721   3.223   5.093  14.465 -0.2493 -0.8397 -0.3338
  148DOPC  H18X17722   3.200   5.019  14.544  1.0512  0.9447  1.8633
  148DOPC  H18Y17723   3.332   5.087  14.445 -0.0274  0.1865  0.4949
  148DOPC  H18Z17724   3.213   5.196  14.505  1.9973 -0.0722 -1.5650
  149DOPC     N17725   2.566   1.526  16.463  0.5340 -0.6228 -0.1959
  149DOPC   C1217726   2.450   1.477  16.378  0.2857  0.5456 -0.5672
  149DOPC  H12A17727   2.379   1.438  16.449  2.8833  0.8950  2.4270
  149DOPC  H12B17728   2.484   1.387  16.327 -2.4605 -1.0441  0.2001
  149DOPC   C1317729   2.624   1.417  16.552 -0.3246  0.1297  0.4490
  149DOPC  H13A17730   2.700   1.464  16.613 -1.8068  3.5042 -0.0718
  149DOPC  H13B17731   2.550   1.382  16.623 -0.4200  1.2374  0.9178
  149DOPC  H13C17732   2.664   1.336  16.493  1.2085  0.4436  0.9980
  149DOPC   C1417733   2.514   1.641  16.548 -0.6761 -0.3982 -0.0607
  149DOPC  H14A17734   2.466   1.718  16.490 -0.8198 -1.0463 -0.8152
  149DOPC  H14B17735   2.449   1.607  16.627 -0.2957 -0.2300  0.3320
  149DOPC  H14C17736   2.591   1.692  16.605 -2.6934  1.7234  0.9309
  149DOPC   C1517737   2.669   1.577  16.371  0.3356  0.3468 -0.0222
  149DOPC  H15A17738   2.639   1.661  16.310  0.2334 -0.5511 -1.2296
  149DOPC  H15B17739   2.695   1.495  16.305 -1.0906  1.3666 -1.9701
  149DOPC  H15C17740   2.759   1.604  16.424  1.9572  0.5455 -2.6582
  149DOPC   C1117741   2.384   1.568  16.281  0.1537  0.4116  0.0601
  149DOPC  H11A17742   2.460   1.614  16.215 -0.6482  0.2885 -0.9786
  149DOPC  H11B17743   2.325   1.517  16.202  0.8516  1.8719 -1.4502
  149DOPC     P17744   2.159   1.640  16.402  0.0249 -0.0661 -0.1506
  149DOPC   O1317745   2.121   1.763  16.470 -0.0017  0.3867 -0.4938
  149DOPC   O1417746   2.160   1.518  16.482 -0.1339  0.1302 -0.2000
  149DOPC   O1217747   2.300   1.666  16.344 -0.5424  0.1397  0.6055
  149DOPC   O1117748   2.078   1.636  16.262  0.5676  0.7483  0.8481
  149DOPC    C117749   2.114   1.736  16.163  0.2025 -0.3290 -0.1138
  149DOPC    HA17750   2.203   1.704  16.106 -1.4815  1.7588 -4.3062
  149DOPC    HB17751   2.157   1.826  16.214 -0.0057 -1.6706  2.6039
  149DOPC    C217752   1.992   1.761  16.065 -0.0012 -0.5348  0.3391
  149DOPC    HS17753   1.902   1.813  16.106  0.7331  1.1868 -0.1632
  149DOPC   O2117754   1.954   1.641  15.998 -0.1262  0.0057 -0.5975
  149DOPC   C2117755   1.828   1.627  15.956 -0.1863 -0.2499  0.7636
  149DOPC   O2217756   1.738   1.708  15.976 -0.6929  0.4571  0.0302
  149DOPC   C2217757   1.821   1.500  15.878  0.2525 -0.1564  0.6385
  149DOPC   H2R17758   1.773   1.426  15.946 -1.3154 -0.5701 -0.8555
  149DOPC   H2S17759   1.923   1.470  15.846 -0.4409  0.2848 -2.2323
  149DOPC    C317760   2.043   1.865  15.957 -0.5295 -0.8166  0.1583
  149DOPC    HX17761   2.128   1.810  15.911 -0.8112 -0.9418 -0.2180
  149DOPC    HY17762   2.082   1.953  16.012 -2.0731 -0.6212  0.9980
  149DOPC   O3117763   1.942   1.891  15.855  0.2452 -0.0589 -0.2449
  149DOPC   C3117764   1.848   1.988  15.885 -0.2894 -1.3395  0.0681
  149DOPC   O3217765   1.848   2.051  15.989  0.0463 -0.3607  0.4426
  149DOPC   C3217766   1.765   2.027  15.767 -0.2033  0.8058  0.1187
  149DOPC   H2X17767   1.789   2.133  15.743 -0.0324  0.5838 -0.7251
  149DOPC   H2Y17768   1.781   1.964  15.677 -2.8556  0.8652 -0.4683
  149DOPC   C2317769   1.737   1.513  15.750  0.1263 -0.3733 -0.1010
  149DOPC   H3R17770   1.629   1.531  15.769 -0.3938  0.0388 -3.0457
  149DOPC   H3S17771   1.740   1.420  15.689 -0.3423  0.3194 -1.2099
  149DOPC   C2417772   1.789   1.634  15.659 -0.3861 -0.2026 -0.1135
  149DOPC   H4R17773   1.900   1.633  15.661 -0.3953 -0.6093  0.3608
  149DOPC   H4S17774   1.756   1.729  15.706  1.5584  0.9035 -0.8485
  149DOPC   C2517775   1.731   1.629  15.517  0.6597 -0.0334 -0.0466
  149DOPC   H5R17776   1.620   1.620  15.518  0.3727  2.6762 -0.3973
  149DOPC   H5S17777   1.775   1.543  15.461  1.1267 -0.0295  0.3031
  149DOPC   C2617778   1.784   1.750  15.429 -0.2523 -0.3037  0.4072
  149DOPC   H6R17779   1.894   1.732  15.427 -0.3462 -1.3638  2.3989
  149DOPC   H6S17780   1.750   1.844  15.478 -1.7230 -1.4574  1.6903
  149DOPC   C2717781   1.733   1.738  15.284  0.0251  0.1343  0.1623
  149DOPC   H7R17782   1.694   1.635  15.270 -4.4465  1.0655  3.4752
  149DOPC   H7S17783   1.809   1.764  15.207 -0.7162  1.1548 -0.2546
  149DOPC   C2817784   1.610   1.828  15.252 -0.0157 -0.3209 -0.1924
  149DOPC   H8R17785   1.533   1.807  15.330 -1.1732 -3.3992 -1.9475
  149DOPC   H8S17786   1.558   1.803  15.157  0.4901  0.6182 -0.7325
  149DOPC   C2917787   1.644   1.970  15.247  0.0921  0.5441  0.0458
  149DOPC   H9R17788   1.750   1.994  15.267  0.5259 -1.5921  0.4754
  149DOPC  C21017789   1.557   2.065  15.213 -0.6831 -0.3756 -0.3059
  149DOPC  H10R17790   1.587   2.171  15.207 -0.6237 -0.4401 -1.2368
  149DOPC  C21117791   1.410   2.038  15.173 -0.1478  0.5499 -0.6472
  149DOPC  H11R17792   1.336   2.121  15.176 -2.4708 -1.3494 -1.8289
  149DOPC  H11S17793   1.371   1.959  15.240 -0.0614  1.7102  0.8276
  149DOPC  C21217794   1.386   1.995  15.024  0.3504 -0.0250 -0.8614
  149DOPC  H12R17795   1.284   1.952  15.017 -0.1985  0.4897  2.5249
  149DOPC  H12S17796   1.458   1.914  14.999  0.3953 -0.1720 -0.2548
  149DOPC  C21317797   1.406   2.096  14.917  0.0555  0.1015  0.5299
  149DOPC  H13R17798   1.509   2.136  14.925  0.2983 -0.7305  1.9168
  149DOPC  H13S17799   1.328   2.172  14.938 -0.2877  0.2020 -0.9734
  149DOPC  C21417800   1.390   2.036  14.773 -0.5569 -0.0141 -0.8445
  149DOPC  H14R17801   1.467   1.956  14.773 -0.1435  0.3721  0.5130
  149DOPC  H14S17802   1.422   2.125  14.714 -0.2789  1.8119  1.9212
  149DOPC  C21517803   1.255   1.987  14.727  0.2101 -0.3832  0.0965
  149DOPC  H15R17804   1.219   1.891  14.770  1.2770 -0.4701  0.8524
  149DOPC  H15S17805   1.250   1.972  14.617 -3.8962 -0.2779  0.1355
  149DOPC  C21617806   1.142   2.097  14.745 -0.0545 -0.6487 -0.1111
  149DOPC  H16R17807   1.124   2.106  14.854  0.8996 -2.6422  0.2487
  149DOPC  H16S17808   1.047   2.060  14.703  0.5840 -2.1049 -0.3165
  149DOPC  C21717809   1.182   2.231  14.673 -0.3088  0.3273 -0.6407
  149DOPC  H17R17810   1.232   2.201  14.579  0.2020 -1.8709  0.2743
  149DOPC  H17S17811   1.263   2.280  14.730  1.6591 -1.7689 -1.4898
  149DOPC  C21817812   1.066   2.321  14.640  0.4213  0.0847  0.5621
  149DOPC  H18R17813   1.106   2.401  14.574  0.2582 -0.4836 -0.2487
  149DOPC  H18S17814   1.027   2.360  14.736 -0.9125  0.7520 -0.2093
  149DOPC  H18T17815   0.986   2.269  14.583 -0.2881  1.5570  0.1500
  149DOPC   C3317816   1.616   2.032  15.799  0.1096  0.4912  0.6169
  149DOPC   H3X17817   1.600   2.104  15.882  0.6336  0.6263  0.6006
  149DOPC   H3Y17818   1.588   1.937  15.850  1.0098 -0.1339 -0.0136
  149DOPC   C3417819   1.517   2.060  15.688  0.5591 -0.9673  0.1662
  149DOPC   H4X17820   1.550   2.157  15.645  0.4832 -0.5037  1.1140
  149DOPC   H4Y17821   1.421   2.094  15.733  0.0612 -1.4631 -0.5076
  149DOPC   C3517822   1.483   1.943  15.605 -0.2338  0.0668  0.2136
  149DOPC   H5X17823   1.498   1.846  15.658 -1.6490  0.7412  1.9513
  149DOPC   H5Y17824   1.556   1.948  15.521 -2.2284  1.9117 -1.5363
  149DOPC   C3617825   1.348   1.941  15.547 -0.0522 -0.5438  0.0549
  149DOPC   H6X17826   1.305   2.039  15.516 -1.8717 -0.9923  0.9982
  149DOPC   H6Y17827   1.342   1.869  15.462 -0.2996 -1.9437  1.2131
  149DOPC   C3717828   1.243   1.892  15.663 -0.2886 -0.3082  0.3675
  149DOPC   H7X17829   1.259   1.782  15.662 -0.0728 -0.3132  2.1314
  149DOPC   H7Y17830   1.270   1.925  15.765  2.0886 -0.6948 -0.0708
  149DOPC   C3817831   1.090   1.898  15.632 -0.7910 -0.3577  0.1762
  149DOPC   H8X17832   1.044   1.841  15.715 -1.1046  0.1721  0.3709
  149DOPC   H8Y17833   1.079   1.842  15.537  4.1129 -1.2084 -0.1870
  149DOPC   C3917834   1.045   2.040  15.620 -0.0640  0.3879  0.2614
  149DOPC   H9X17835   1.092   2.114  15.687 -0.5098  1.5512 -0.6750
  149DOPC  C31017836   0.951   2.086  15.538 -0.8217 -0.4015  0.6694
  149DOPC  H10X17837   0.947   2.196  15.530  0.6524 -0.3251  0.5902
  149DOPC  C31117838   0.873   2.007  15.439  0.4572  0.8245 -0.7125
  149DOPC  H11X17839   0.774   2.055  15.428 -0.0721 -0.0287  0.1533
  149DOPC  H11Y17840   0.856   1.905  15.480  2.3832  0.7821  0.0887
  149DOPC  C31217841   0.937   1.992  15.297  0.3483  0.8019 -0.6442
  149DOPC  H12X17842   0.878   1.915  15.243  0.2980  0.9047 -0.7358
  149DOPC  H12Y17843   1.031   1.936  15.317 -0.1664  0.1081 -0.1434
  149DOPC  C31317844   0.949   2.123  15.213  0.6024 -0.4314 -0.1947
  149DOPC  H13X17845   0.981   2.208  15.277 -0.2314  0.7079 -1.2616
  149DOPC  H13Y17846   1.012   2.112  15.122  1.4360  1.2596  0.1313
  149DOPC  C31417847   0.815   2.163  15.154 -0.1476 -0.9115 -0.7757
  149DOPC  H14X17848   0.783   2.074  15.096  1.1823 -3.2895  1.9244
  149DOPC  H14Y17849   0.741   2.172  15.237  0.0625  0.0913 -0.6866
  149DOPC  C31517850   0.817   2.283  15.058 -0.2535 -0.5563 -0.2411
  149DOPC  H15X17851   0.885   2.268  14.972 -1.4895  0.4531 -1.4365
  149DOPC  H15Y17852   0.858   2.358  15.130  0.5132 -1.6557  0.5112
  149DOPC  C31617853   0.689   2.329  14.994 -0.3756 -0.5241  0.2899
  149DOPC  H16X17854   0.608   2.345  15.069 -2.1190  0.3747 -1.6669
  149DOPC  H16Y17855   0.698   2.417  14.927 -0.0514 -1.3066 -0.7373
  149DOPC  C31717856   0.644   2.220  14.899 -0.0978 -0.1443  0.8646
  149DOPC  H17X17857   0.650   2.128  14.959 -1.3914 -0.8907 -0.0877
  149DOPC  H17Y17858   0.536   2.234  14.873  0.9296  1.7065 -3.3183
  149DOPC  C31817859   0.730   2.195  14.777  0.0359 -0.2387  0.0260
  149DOPC  H18X17860   0.666   2.132  14.712 -1.8562 -0.5057  2.0684
  149DOPC  H18Y17861   0.762   2.281  14.714 -2.1657  0.5003 -0.1597
  149DOPC  H18Z17862   0.822   2.142  14.810  1.0058  3.4647  4.1650
  150DOPC     N17863   5.717   5.484  16.511  0.0551  0.9877 -0.5418
  150DOPC   C1217864   5.816   5.503  16.402  0.6140 -0.4662  0.1935
  150DOPC  H12A17865   5.764   5.477  16.311  0.0189  3.0074 -0.6072
  150DOPC  H12B17866   5.895   5.430  16.414  0.3837 -0.6690  0.4817
  150DOPC   C1317867   5.664   5.342  16.522 -0.2359  0.4137  0.0787
  150DOPC  H13A17868   5.606   5.313  16.436  0.2424 -1.2320  0.2669
  150DOPC  H13B17869   5.745   5.271  16.511 -0.7986 -0.4345  1.1664
  150DOPC  H13C17870   5.606   5.318  16.610  0.3354 -2.6013 -0.2648
  150DOPC   C1417871   5.597   5.566  16.491  0.4542  0.1465  0.2348
  150DOPC  H14A17872   5.518   5.534  16.556  0.6500  0.8512  0.8414
  150DOPC  H14B17873   5.629   5.668  16.509  2.1309 -0.6701  2.4000
  150DOPC  H14C17874   5.558   5.562  16.391 -0.1910 -1.2173  0.5241
  150DOPC   C1517875   5.781   5.515  16.649 -0.2437 -0.0938  0.2376
  150DOPC  H15A17876   5.872   5.458  16.657  1.4055  2.3200 -0.2756
  150DOPC  H15B17877   5.721   5.484  16.734  0.6780 -0.0232  0.9214
  150DOPC  H15C17878   5.809   5.619  16.653  0.0656 -0.1598 -0.1927
  150DOPC   C1117879   5.882   5.641  16.368  0.0413  0.4684  1.0265
  150DOPC  H11A17880   5.952   5.674  16.448  1.2765  1.1868 -0.3088
  150DOPC  H11B17881   5.954   5.611  16.289 -0.4589  0.8992  0.4041
  150DOPC     P17882   5.762   5.758  16.169  0.1529  0.6088 -0.2594
  150DOPC   O1317883   5.671   5.868  16.136 -0.1649  0.6942 -0.4113
  150DOPC   O1417884   5.727   5.622  16.112 -0.2941 -0.5246 -0.2769
  150DOPC   O1217885   5.791   5.742  16.323  0.7923 -0.4044  0.5146
  150DOPC   O1117886   5.901   5.805  16.116 -0.3005 -0.1723 -0.0852
  150DOPC    C117887   5.924   5.945  16.088  0.2225 -0.3975 -0.4035
  150DOPC    HA17888   6.031   5.970  16.105 -0.0748  2.1518 -1.8072
  150DOPC    HB17889   5.873   6.007  16.164 -1.6572  0.0455 -1.9586
  150DOPC    C217890   5.879   5.991  15.948 -0.7771 -0.4634  0.0688
  150DOPC    HS17891   5.795   6.061  15.962 -0.9089 -0.9350  2.0280
  150DOPC   O2117892   5.842   5.874  15.868 -0.4794  0.3341  0.9210
  150DOPC   C2117893   5.726   5.872  15.809 -0.0463 -0.3059  0.0498
  150DOPC   O2217894   5.645   5.964  15.807 -0.4588  0.6658 -0.2712
  150DOPC   C2217895   5.709   5.741  15.724  0.4073  0.1128 -0.0123
  150DOPC   H2R17896   5.696   5.654  15.792  0.0113 -0.5885 -0.9754
  150DOPC   H2S17897   5.798   5.723  15.661 -0.0547 -1.4634 -0.2579
  150DOPC    C317898   5.990   6.083  15.879  0.7149  0.0601  0.4854
  150DOPC    HX17899   6.078   6.017  15.862 -0.3391 -1.3081  0.1244
  150DOPC    HY17900   6.030   6.164  15.943  1.2117 -0.0346  0.2990
  150DOPC   O3117901   5.937   6.119  15.744  0.2265 -0.1363  0.9349
  150DOPC   C3117902   5.867   6.234  15.752  0.5321 -0.0885  0.6539
  150DOPC   O3217903   5.822   6.282  15.853 -0.2847  0.4162  0.1430
  150DOPC   C3217904   5.844   6.279  15.606  0.1462 -0.2281 -0.4576
  150DOPC   H2X17905   5.942   6.292  15.555  1.7741  0.8288  2.6667
  150DOPC   H2Y17906   5.788   6.189  15.571 -1.3291  0.9011 -1.0725
  150DOPC   C2317907   5.582   5.737  15.634 -0.1114 -0.3008 -1.0293
  150DOPC   H3R17908   5.577   5.842  15.596 -0.9987  0.5410  1.2328
  150DOPC   H3S17909   5.490   5.722  15.695  1.6479  0.6799  2.1054
  150DOPC   C2417910   5.602   5.647  15.512 -0.0576 -0.1449 -0.9384
  150DOPC   H4R17911   5.699   5.644  15.458  1.3000 -1.7001  1.3808
  150DOPC   H4S17912   5.522   5.666  15.437 -0.4475  0.0477 -0.4793
  150DOPC   C2517913   5.575   5.497  15.559 -0.1836  0.6240 -0.0868
  150DOPC   H5R17914   5.485   5.454  15.509  0.7005 -0.4449 -0.8052
  150DOPC   H5S17915   5.575   5.516  15.669  0.0268  2.1694 -0.3401
  150DOPC   C2617916   5.688   5.399  15.529  0.2319 -0.1091 -0.5265
  150DOPC   H6R17917   5.788   5.441  15.554  1.4443  0.1971 -4.9756
  150DOPC   H6S17918   5.677   5.373  15.421 -0.7601  1.5711 -0.8646
  150DOPC   C2717919   5.677   5.260  15.609  0.0741 -0.2302  0.3615
  150DOPC   H7R17920   5.573   5.221  15.613 -0.6054  0.9112 -2.8941
  150DOPC   H7S17921   5.706   5.266  15.716 -1.3624 -3.8921  1.1136
  150DOPC   C2817922   5.769   5.147  15.551  0.1718  0.2445 -1.5242
  150DOPC   H8R17923   5.760   5.136  15.440  0.5783 -4.3111 -1.3074
  150DOPC   H8S17924   5.730   5.051  15.590  1.9945  0.2696  0.5755
  150DOPC   C2917925   5.912   5.160  15.607 -0.2940 -0.5506 -0.1396
  150DOPC   H9R17926   5.916   5.132  15.713 -0.9240 -1.2631 -0.2959
  150DOPC  C21017927   6.023   5.202  15.539 -0.1781 -0.2578  0.4387
  150DOPC  H10R17928   6.119   5.228  15.585  0.4574  0.6567 -1.3419
  150DOPC  C21117929   6.019   5.249  15.392 -0.7803  0.4185  0.5329
  150DOPC  H11R17930   6.051   5.355  15.392 -1.5303  0.6491  0.3764
  150DOPC  H11S17931   5.919   5.252  15.344 -0.5350 -0.3202 -0.0375
  150DOPC  C21217932   6.126   5.172  15.308  1.0505 -0.0166 -0.3195
  150DOPC  H12R17933   6.097   5.178  15.200  1.0177 -2.4883 -0.5280
  150DOPC  H12S17934   6.128   5.063  15.332  1.7347  0.0490 -0.0580
  150DOPC  C21317935   6.272   5.215  15.332  0.0237 -0.8081 -0.4763
  150DOPC  H13R17936   6.290   5.210  15.441  0.4274  0.2988 -0.4810
  150DOPC  H13S17937   6.277   5.324  15.311 -1.7443 -0.3199  1.3389
  150DOPC  C21417938   6.369   5.130  15.252  0.4491  0.0797  0.3502
  150DOPC  H14R17939   6.329   5.027  15.261 -1.6048  0.6269 -1.6558
  150DOPC  H14S17940   6.475   5.122  15.285  1.0807  3.5722 -0.4397
  150DOPC  C21517941   6.371   5.161  15.102  0.7399 -0.1138 -0.2768
  150DOPC  H15R17942   6.416   5.262  15.091 -0.6411  1.0750  3.5625
  150DOPC  H15S17943   6.266   5.174  15.067  0.8771 -0.6975 -0.9385
  150DOPC  C21617944   6.432   5.051  15.016  0.7845 -0.5190 -0.6538
  150DOPC  H16R17945   6.363   4.965  15.026  1.0723 -0.7874 -0.9689
  150DOPC  H16S17946   6.538   5.029  15.041  0.4384 -0.5407  0.8956
  150DOPC  C21717947   6.450   5.086  14.873  0.0952 -0.5203  0.2321
  150DOPC  H17R17948   6.512   5.176  14.853 -1.1136  0.3967  0.4855
  150DOPC  H17S17949   6.347   5.107  14.835  0.0862  1.2649  1.1286
  150DOPC  C21817950   6.507   4.960  14.801 -0.2492 -0.3536 -0.1028
  150DOPC  H18R17951   6.606   4.953  14.850  0.3301 -0.6309 -1.2835
  150DOPC  H18S17952   6.517   4.989  14.694 -1.4925 -0.0141 -0.1449
  150DOPC  H18T17953   6.455   4.863  14.815  0.7354 -1.0387 -1.0792
  150DOPC   C3317954   5.749   6.398  15.586 -0.3835  0.0095 -0.1048
  150DOPC   H3X17955   5.777   6.496  15.631 -1.8987 -0.3008  1.6337
  150DOPC   H3Y17956   5.649   6.379  15.629 -0.6194 -0.0345 -0.6680
  150DOPC   C3417957   5.721   6.417  15.431  0.2520 -0.1885 -0.1641
  150DOPC   H4X17958   5.650   6.337  15.402  1.7420 -0.8252 -2.2728
  150DOPC   H4Y17959   5.816   6.414  15.374 -0.6761  0.7226 -1.8209
  150DOPC   C3517960   5.647   6.545  15.394  0.3907 -0.0395  0.2422
  150DOPC   H5X17961   5.637   6.560  15.285  2.4329  1.6442  0.2216
  150DOPC   H5Y17962   5.713   6.626  15.432  0.7536  0.0896 -0.6379
  150DOPC   C3617963   5.514   6.563  15.455  0.7366  0.6627  0.3092
  150DOPC   H6X17964   5.441   6.495  15.406  2.4459 -0.5013 -0.7424
  150DOPC   H6Y17965   5.520   6.532  15.561 -1.6158 -0.2545  0.2170
  150DOPC   C3717966   5.467   6.707  15.447 -0.0882  0.6293  0.3966
  150DOPC   H7X17967   5.373   6.713  15.507 -0.0469 -0.2632  0.5726
  150DOPC   H7Y17968   5.551   6.771  15.481  2.4579 -1.2811 -1.9460
  150DOPC   C3817969   5.422   6.746  15.309 -0.6189  0.5144 -0.3783
  150DOPC   H8X17970   5.323   6.700  15.285 -0.1858  0.0948 -1.4489
  150DOPC   H8Y17971   5.494   6.715  15.230  0.6487  0.9775  0.5777
  150DOPC   C3917972   5.404   6.889  15.307 -0.2258 -0.7668 -0.4461
  150DOPC   H9X17973   5.417   6.934  15.406  0.4688  1.0162 -1.2955
  150DOPC  C31017974   5.382   6.972  15.200  0.2096  0.0836 -0.2609
  150DOPC  H10X17975   5.393   7.081  15.212  1.1399 -0.0288 -0.0133
  150DOPC  C31117976   5.365   6.926  15.060 -0.5289  0.7706 -0.1949
  150DOPC  H11X17977   5.266   6.955  15.019 -0.7774  0.3229  0.0859
  150DOPC  H11Y17978   5.372   6.815  15.059  1.2580  0.8152  1.4116
  150DOPC  C31217979   5.470   7.000  14.972  0.0649 -0.0393 -0.6055
  150DOPC  H12X17980   5.575   6.973  14.997  0.8100  0.3244 -3.0255
  150DOPC  H12Y17981   5.456   7.110  14.979  0.6543 -0.0349  4.5636
  150DOPC  C31317982   5.445   6.961  14.822 -0.9922 -0.0615 -0.3418
  150DOPC  H13X17983   5.464   6.852  14.822 -0.2468  0.0590  0.0944
  150DOPC  H13Y17984   5.345   6.974  14.775 -0.8055 -0.3735 -0.8357
  150DOPC  C31417985   5.548   7.026  14.721  0.6016  0.4277 -0.4847
  150DOPC  H14X17986   5.644   7.056  14.768  1.5071 -0.2471 -1.8504
  150DOPC  H14Y17987   5.572   6.964  14.632  1.1593  0.9551 -0.7114
  150DOPC  C31517988   5.491   7.154  14.663  1.0863 -0.2916 -0.3289
  150DOPC  H15X17989   5.492   7.227  14.747 -1.6109 -0.9974  0.4202
  150DOPC  H15Y17990   5.389   7.151  14.619  0.7307 -1.3858  0.5025
  150DOPC  C31617991   5.577   7.221  14.557  0.5718  0.2011 -0.9654
  150DOPC  H16X17992   5.584   7.147  14.474  0.7990 -0.5651 -0.2787
  150DOPC  H16Y17993   5.518   7.307  14.520  0.4984 -0.5295 -2.6570
  150DOPC  C31717994   5.713   7.263  14.612 -0.2357  0.3473  0.2312
  150DOPC  H17X17995   5.699   7.341  14.690 -0.4924 -0.2700  0.8195
  150DOPC  H17Y17996   5.751   7.170  14.660 -3.5278 -0.5657  1.3599
  150DOPC  C31817997   5.804   7.321  14.497  0.0795  0.4755  0.1381
  150DOPC  H18X17998   5.745   7.393  14.437 -1.9987 -1.8235 -0.7417
  150DOPC  H18Y17999   5.907   7.353  14.525  0.4399  1.3078 -1.9567
  150DOPC  H18Z18000   5.826   7.239  14.425  0.3974 -0.7742  1.5884
  151DOPC     N18001   1.271   3.395  16.706 -0.2698 -0.5667 -0.6648
  151DOPC   C1218002   1.178   3.478  16.616 -0.2328  0.0884  0.4949
  151DOPC  H12A18003   1.224   3.475  16.518  2.9785  0.6688  1.8622
  151DOPC  H12B18004   1.193   3.578  16.652  0.3123  0.0767  0.3109
  151DOPC   C1318005   1.412   3.453  16.704 -0.9654 -0.0864 -0.1741
  151DOPC  H13A18006   1.476   3.412  16.781  1.6033 -0.3094 -2.2920
  151DOPC  H13B18007   1.462   3.438  16.609  1.8560 -0.8347  1.3108
  151DOPC  H13C18008   1.416   3.561  16.715 -0.9722 -0.1089  0.0592
  151DOPC   C1418009   1.283   3.250  16.664  0.0617  0.1253 -0.8145
  151DOPC  H14A18010   1.335   3.248  16.569  1.4711 -0.0455 -0.0721
  151DOPC  H14B18011   1.345   3.198  16.736  0.0546  2.8718  1.3314
  151DOPC  H14C18012   1.185   3.208  16.650  0.5900 -1.0303 -1.1850
  151DOPC   C1518013   1.225   3.399  16.850 -0.6290  0.9324  0.9275
  151DOPC  H15A18014   1.131   3.352  16.873 -0.8620  0.5637 -0.6226
  151DOPC  H15B18015   1.209   3.501  16.883 -1.9040  0.6157  1.3187
  151DOPC  H15C18016   1.306   3.352  16.903  0.8164  0.8061 -1.2319
  151DOPC   C1118017   1.028   3.444  16.605  0.1323 -0.6562 -0.0995
  151DOPC  H11A18018   0.987   3.442  16.708 -0.0135  0.4509 -0.1194
  151DOPC  H11B18019   0.979   3.522  16.543 -0.7351 -0.0363  1.3199
  151DOPC     P18020   1.029   3.311  16.376 -0.2165  0.4794  0.2855
  151DOPC   O1318021   0.897   3.311  16.317 -0.3876 -0.3697 -0.0373
  151DOPC   O1418022   1.103   3.189  16.351 -1.0365  0.0804 -0.0750
  151DOPC   O1218023   1.009   3.320  16.533  0.1076  0.2379 -0.4148
  151DOPC   O1118024   1.111   3.441  16.334 -0.2733  0.0381 -0.6168
  151DOPC    C118025   1.079   3.532  16.233 -0.6051  0.5978 -0.3376
  151DOPC    HA18026   1.152   3.615  16.249 -1.1000  1.3343 -1.7613
  151DOPC    HB18027   0.972   3.557  16.247 -0.1172  1.9280  1.4227
  151DOPC    C218028   1.103   3.490  16.091  0.2730  0.3468 -0.6551
  151DOPC    HS18029   1.020   3.418  16.072  2.7566 -3.4985  1.8328
  151DOPC   O2118030   1.233   3.431  16.072 -0.2791 -0.3637 -0.3334
  151DOPC   C2118031   1.233   3.342  15.979 -0.0835 -0.3435 -0.1434
  151DOPC   O2218032   1.133   3.319  15.909  0.5270 -0.7046 -0.4530
  151DOPC   C2218033   1.375   3.289  15.962 -0.1937  0.0286  0.8755
  151DOPC   H2R18034   1.392   3.232  16.056 -2.1306  1.7809  2.3580
  151DOPC   H2S18035   1.444   3.375  15.947  0.7168 -0.5908  1.3521
  151DOPC    C318036   1.090   3.610  16.001  0.0513 -0.7341  0.3098
  151DOPC    HX18037   1.189   3.658  15.993  0.2872 -1.3111 -0.2752
  151DOPC    HY18038   1.025   3.684  16.053  0.9367  0.0727  0.2947
  151DOPC   O3118039   1.040   3.574  15.864 -0.3229  0.0449 -0.2569
  151DOPC   C3118040   0.911   3.543  15.860 -0.9611 -0.0791 -0.3627
  151DOPC   O3218041   0.840   3.527  15.957 -0.5107  0.0378 -0.2789
  151DOPC   C3218042   0.868   3.533  15.723 -0.4079 -0.1092  0.8406
  151DOPC   H2X18043   0.928   3.602  15.659 -2.2244  0.5117 -0.2806
  151DOPC   H2Y18044   0.887   3.428  15.693  0.4045 -0.0912  1.2798
  151DOPC   C2318045   1.380   3.187  15.846  0.4889 -0.9100  0.9892
  151DOPC   H3R18046   1.357   3.236  15.748  2.1498 -2.9414 -0.5104
  151DOPC   H3S18047   1.305   3.107  15.863 -1.6544  0.9369  0.7335
  151DOPC   C2418048   1.515   3.117  15.840 -1.0195  0.5015  0.1210
  151DOPC   H4R18049   1.530   3.068  15.939  1.7368 -1.4820 -1.1248
  151DOPC   H4S18050   1.596   3.193  15.833  0.4220 -1.0639 -1.2755
  151DOPC   C2518051   1.537   3.023  15.725  0.6457  0.1962  0.6227
  151DOPC   H5R18052   1.462   2.942  15.730 -0.4014  1.1415  0.5617
  151DOPC   H5S18053   1.640   2.982  15.731  0.4699 -0.1820  1.0233
  151DOPC   C2618054   1.522   3.093  15.583  0.2110  0.0418  0.1755
  151DOPC   H6R18055   1.591   3.180  15.592  0.1780 -0.0351  1.3571
  151DOPC   H6S18056   1.418   3.126  15.566  0.2294 -0.2700 -0.5840
  151DOPC   C2718057   1.551   3.001  15.464  0.4365 -0.0857 -0.4324
  151DOPC   H7R18058   1.476   2.919  15.466  0.7854 -0.4935 -2.3498
  151DOPC   H7S18059   1.644   2.940  15.470 -0.7134 -2.0678 -1.6393
  151DOPC   C2818060   1.532   3.071  15.326  0.8198 -0.0027 -0.7075
  151DOPC   H8R18061   1.597   3.161  15.321  0.4380  0.2167 -2.3375
  151DOPC   H8S18062   1.424   3.097  15.320  0.2126 -2.1126 -0.1198
  151DOPC   C2918063   1.562   2.973  15.216  0.1054 -0.6582  0.0924
  151DOPC   H9R18064   1.522   2.871  15.219 -0.6720 -0.3706 -0.2504
  151DOPC  C21018065   1.647   2.993  15.113 -0.8108 -0.1698 -0.4999
  151DOPC  H10R18066   1.647   2.915  15.036  0.3526  0.7004 -1.4208
  151DOPC  C21118067   1.731   3.116  15.085  0.0461  0.1575  0.2251
  151DOPC  H11R18068   1.805   3.132  15.166 -0.8614 -0.1951  1.1489
  151DOPC  H11S18069   1.663   3.203  15.090 -2.2465 -1.5262  0.0475
  151DOPC  C21218070   1.801   3.106  14.945  0.6758 -0.1131  0.0339
  151DOPC  H12R18071   1.842   3.206  14.919 -1.3115 -0.1535 -3.8645
  151DOPC  H12S18072   1.721   3.082  14.872  1.8580 -0.2069 -1.2642
  151DOPC  C21318073   1.917   3.006  14.960  0.1926  0.5814  0.0508
  151DOPC  H13R18074   1.883   2.913  15.011  1.1788  0.0257 -0.2807
  151DOPC  H13S18075   1.991   3.049  15.031 -0.7541  0.2829  1.2608
  151DOPC  C21418076   1.976   2.973  14.824  0.4712 -0.5272 -0.5654
  151DOPC  H14R18077   1.905   2.906  14.769  0.3510 -0.1777 -0.8393
  151DOPC  H14S18078   2.066   2.914  14.850  0.4900  0.1541  1.0611
  151DOPC  C21518079   2.029   3.099  14.749  0.1733  0.8977  0.5664
  151DOPC  H15R18080   2.059   3.171  14.827  1.4601 -0.0843  1.0246
  151DOPC  H15S18081   1.960   3.152  14.680 -0.3352  0.8193  1.0133
  151DOPC  C21618082   2.152   3.065  14.663  0.7791 -0.2417 -0.1861
  151DOPC  H16R18083   2.230   3.004  14.715  1.0848 -1.6254 -2.1363
  151DOPC  H16S18084   2.201   3.158  14.628  0.4465 -0.4630 -1.2618
  151DOPC  C21718085   2.132   2.986  14.538 -0.0927  0.8154  0.3298
  151DOPC  H17R18086   2.057   3.038  14.474  0.7737  2.6028  0.7073
  151DOPC  H17S18087   2.079   2.891  14.564 -1.2245  1.9073  2.2706
  151DOPC  C21818088   2.261   2.958  14.461 -0.3660 -0.7995  0.4709
  151DOPC  H18R18089   2.339   3.034  14.483 -1.4602  0.6679 -0.5248
  151DOPC  H18S18090   2.244   2.952  14.352 -0.5341 -0.1432  0.4609
  151DOPC  H18T18091   2.320   2.870  14.494  1.4619 -0.1465 -0.8913
  151DOPC   C3318092   0.713   3.546  15.707 -0.2909 -0.0601  0.4702
  151DOPC   H3X18093   0.682   3.645  15.747  2.3828  0.3594  1.7884
  151DOPC   H3Y18094   0.666   3.466  15.767  0.8903 -0.6550  0.6312
  151DOPC   C3418095   0.680   3.508  15.568 -0.0598 -0.6078 -0.0224
  151DOPC   H4X18096   0.578   3.465  15.557  0.6900 -2.0279 -2.5801
  151DOPC   H4Y18097   0.743   3.431  15.518 -1.0511 -0.2516 -1.9443
  151DOPC   C3518098   0.670   3.615  15.450 -0.4917 -0.5053 -0.4511
  151DOPC   H5X18099   0.742   3.695  15.478 -0.3800 -1.7181  3.2513
  151DOPC   H5Y18100   0.568   3.657  15.441  0.1471  0.9395 -1.1624
  151DOPC   C3618101   0.695   3.558  15.311  0.1223  0.2384  0.0426
  151DOPC   H6X18102   0.801   3.523  15.307  0.0680  0.0412  0.3176
  151DOPC   H6Y18103   0.630   3.469  15.293  0.2777  0.3270 -1.0391
  151DOPC   C3718104   0.712   3.656  15.191  0.6067  0.0349  0.0468
  151DOPC   H7X18105   0.759   3.744  15.241  2.4204 -0.2310 -1.1005
  151DOPC   H7Y18106   0.796   3.623  15.127  0.6254  1.2963 -0.6165
  151DOPC   C3818107   0.580   3.694  15.114  0.2923 -0.4065  0.1624
  151DOPC   H8X18108   0.595   3.793  15.067 -0.3044 -1.0078 -1.3521
  151DOPC   H8Y18109   0.502   3.702  15.192 -1.0690 -1.4743 -1.0428
  151DOPC   C3918110   0.535   3.596  15.004 -0.0418  0.5741  0.1456
  151DOPC   H9X18111   0.609   3.539  14.947 -2.3697 -0.3722 -2.1467
  151DOPC  C31018112   0.406   3.589  14.959  0.7933 -0.2488 -0.2545
  151DOPC  H10X18113   0.372   3.551  14.862  0.6515  1.3646 -0.8752
  151DOPC  C31118114   0.294   3.680  15.012  0.5315  0.3772 -0.6109
  151DOPC  H11X18115   0.214   3.703  14.939 -1.6317 -0.1557  1.4260
  151DOPC  H11Y18116   0.333   3.774  15.056 -1.2634  0.2740  1.3617
  151DOPC  C31218117   0.231   3.608  15.136  0.7704  0.1669  0.3228
  151DOPC  H12X18118   0.174   3.682  15.197 -2.0071 -1.9658  0.4907
  151DOPC  H12Y18119   0.301   3.573  15.215 -1.3502 -1.5304  1.5760
  151DOPC  C31318120   0.126   3.497  15.100 -0.7918 -0.8478  0.4583
  151DOPC  H13X18121   0.068   3.543  15.017 -1.6829 -0.5809  1.2176
  151DOPC  H13Y18122   0.180   3.414  15.050 -0.3275 -1.1552  1.4465
  151DOPC  C31418123   0.025   3.461  15.205  0.2025 -0.4181 -0.6190
  151DOPC  H14X18124  -0.007   3.561  15.241 -1.6913 -0.5080 -1.9285
  151DOPC  H14Y18125  -0.067   3.411  15.169  0.1447 -0.2960 -0.6391
  151DOPC  C31518126   0.082   3.389  15.322  0.1222 -0.1491  0.1231
  151DOPC  H15X18127   0.165   3.451  15.362  0.6092  0.5812 -1.8890
  151DOPC  H15Y18128   0.119   3.287  15.298  1.9282 -0.3299  3.1335
  151DOPC  C31618129  -0.028   3.375  15.433 -0.0771 -0.0697  0.4896
  151DOPC  H16X18130  -0.069   3.475  15.456  0.4969 -0.0779  1.6613
  151DOPC  H16Y18131  -0.111   3.312  15.395 -1.0948  1.4738  0.0503
  151DOPC  C31718132   0.025   3.319  15.560  0.6003 -0.3347 -0.4360
  151DOPC  H17X18133   0.052   3.214  15.535 -1.6773 -0.9917 -0.4260
  151DOPC  H17Y18134   0.121   3.364  15.593  0.9287 -0.1842 -1.5593
  151DOPC  C31818135  -0.089   3.317  15.668 -0.0226  0.2384  0.6783
  151DOPC  H18X18136  -0.048   3.310  15.771  2.1509  2.0263  0.0250
  151DOPC  H18Y18137  -0.152   3.408  15.660 -1.9158 -1.0661  0.1440
  151DOPC  H18Z18138  -0.158   3.231  15.655 -0.2903  0.3864  1.1242
  152DOPC     N18139   4.146   1.913  16.298 -0.3303 -0.1415 -0.0463
  152DOPC   C1218140   4.161   1.867  16.150 -0.1629 -0.0064  0.2166
  152DOPC  H12A18141   4.212   1.772  16.150  0.3705  0.2579 -1.4960
  152DOPC  H12B18142   4.212   1.941  16.090 -0.5387 -0.4226 -0.6293
  152DOPC   C1318143   4.077   1.796  16.376 -0.4343  0.5881  0.4554
  152DOPC  H13A18144   4.051   1.819  16.478 -0.6680  0.2649  0.4733
  152DOPC  H13B18145   4.003   1.750  16.312 -0.2759 -1.2881  1.5308
  152DOPC  H13C18146   4.150   1.717  16.383 -0.7125 -0.0017 -2.1168
  152DOPC   C1418147   4.067   2.038  16.297  0.7466 -0.2736  0.5753
  152DOPC  H14A18148   4.121   2.112  16.240 -0.5790  0.4134  0.1554
  152DOPC  H14B18149   3.967   2.026  16.258  0.2467 -1.9088  2.1724
  152DOPC  H14C18150   4.053   2.093  16.388  0.1607  2.4495 -1.0616
  152DOPC   C1518151   4.284   1.926  16.364 -0.7460 -0.2764 -0.2149
  152DOPC  H15A18152   4.278   1.938  16.472  0.3938  1.6676 -0.3280
  152DOPC  H15B18153   4.337   2.017  16.340  2.8388 -1.2129  3.0597
  152DOPC  H15C18154   4.348   1.841  16.346  0.1482  0.5988 -1.3324
  152DOPC   C1118155   4.026   1.845  16.072 -0.5551  0.0465 -0.1277
  152DOPC  H11A18156   3.942   1.912  16.098 -0.4162 -0.2412  1.1243
  152DOPC  H11B18157   4.041   1.863  15.963 -0.4498 -1.5538 -0.4107
  152DOPC     P18158   4.056   1.592  16.013 -0.3025  0.1449 -0.6958
  152DOPC   O1318159   3.990   1.461  16.043 -0.4644  0.0142  0.2570
  152DOPC   O1418160   4.204   1.596  16.035  0.0408 -0.6941  0.4757
  152DOPC   O1218161   3.990   1.705  16.094  0.2556 -0.0053 -0.5630
  152DOPC   O1118162   4.036   1.626  15.860 -0.3952 -0.1901  0.3927
  152DOPC    C118163   3.903   1.663  15.806 -1.1788 -0.1596 -0.3878
  152DOPC    HA18164   3.928   1.714  15.711  2.4671  2.1169  1.5393
  152DOPC    HB18165   3.858   1.745  15.866 -3.1131  1.5075 -3.8120
  152DOPC    C218166   3.814   1.537  15.792 -0.2536  0.4186 -0.0699
  152DOPC    HS18167   3.785   1.491  15.889 -1.8200 -0.2966 -0.8425
  152DOPC   O2118168   3.881   1.437  15.714 -0.5741  0.2900  0.3342
  152DOPC   C2118169   3.820   1.322  15.715 -0.2820  0.1074 -0.1272
  152DOPC   O2218170   3.724   1.286  15.781  0.4725  0.0181 -0.4645
  152DOPC   C2218171   3.881   1.242  15.606  0.1220  0.2407 -0.0295
  152DOPC   H2R18172   3.882   1.137  15.643 -0.1926  0.6140  1.0660
  152DOPC   H2S18173   3.989   1.268  15.605  0.5321 -1.3028  0.8707
  152DOPC    C318174   3.677   1.588  15.714  0.5496  0.3220  0.1357
  152DOPC    HX18175   3.627   1.660  15.782  0.6065 -0.6488  1.2388
  152DOPC    HY18176   3.608   1.502  15.701  1.8253 -0.7158 -0.0316
  152DOPC   O3118177   3.710   1.640  15.585 -0.2810  0.4237 -0.4436
  152DOPC   C3118178   3.608   1.681  15.508  0.3521  0.4234  0.6731
  152DOPC   O3218179   3.487   1.658  15.527 -0.0458  0.7323  0.1847
  152DOPC   C3218180   3.660   1.764  15.391 -1.1909  0.4806  0.1482
  152DOPC   H2X18181   3.683   1.867  15.425  0.2072  0.5027 -0.7849
  152DOPC   H2Y18182   3.751   1.716  15.348 -0.8074  1.4898 -0.2064
  152DOPC   C2318183   3.816   1.262  15.466 -0.3758 -0.2032 -0.5125
  152DOPC   H3R18184   3.711   1.298  15.473  0.1830  1.3782  0.3582
  152DOPC   H3S18185   3.806   1.167  15.409 -0.2031 -0.6658  0.2138
  152DOPC   C2418186   3.897   1.366  15.378 -0.0541  0.7307 -0.3708
  152DOPC   H4R18187   3.987   1.312  15.341 -0.4375  0.3114 -0.7055
  152DOPC   H4S18188   3.931   1.443  15.451 -0.4222  0.4956  0.0573
  152DOPC   C2518189   3.814   1.429  15.267  0.1924  0.1311  0.1399
  152DOPC   H5R18190   3.872   1.511  15.220 -1.4092  1.4341  0.3158
  152DOPC   H5S18191   3.723   1.475  15.311  0.5085 -0.1218  1.0804
  152DOPC   C2618192   3.773   1.341  15.151 -0.2692 -0.9020 -0.1260
  152DOPC   H6R18193   3.689   1.272  15.176 -3.0395  2.3107  0.1640
  152DOPC   H6S18194   3.867   1.286  15.129 -0.4043 -1.2388  0.1208
  152DOPC   C2718195   3.723   1.406  15.023 -0.1975  0.5658  0.3285
  152DOPC   H7R18196   3.797   1.486  15.002 -0.8824  1.1490  0.1040
  152DOPC   H7S18197   3.625   1.451  15.050 -0.5809  1.3522 -2.1397
  152DOPC   C2818198   3.689   1.323  14.893  0.6461  0.7465 -0.1484
  152DOPC   H8R18199   3.595   1.268  14.914 -0.1614  1.5534 -1.4887
  152DOPC   H8S18200   3.780   1.262  14.876  1.3487  1.3954  1.0818
  152DOPC   C2918201   3.670   1.400  14.764 -0.0586  0.5583 -0.3748
  152DOPC   H9R18202   3.677   1.508  14.782  2.0181  0.2501  0.9700
  152DOPC  C21018203   3.632   1.348  14.643  0.0571  0.1858 -0.1065
  152DOPC  H10R18204   3.623   1.413  14.555  1.1930 -0.3692 -0.6488
  152DOPC  C21118205   3.599   1.203  14.612 -0.3476  0.0735  0.1945
  152DOPC  H11R18206   3.588   1.146  14.706  1.2239 -0.5693  0.0313
  152DOPC  H11S18207   3.676   1.145  14.555 -0.7265 -2.0914  1.7739
  152DOPC  C21218208   3.461   1.187  14.545 -0.5759  0.1461 -0.2390
  152DOPC  H12R18209   3.385   1.226  14.616 -1.2702  2.2229 -2.0057
  152DOPC  H12S18210   3.450   1.078  14.529  2.1205 -0.0310 -1.2443
  152DOPC  C21318211   3.447   1.245  14.402  0.1719 -0.6472  0.2462
  152DOPC  H13R18212   3.523   1.200  14.335 -0.5806  0.3932 -1.3394
  152DOPC  H13S18213   3.468   1.354  14.405  1.1152 -0.8001 -0.3275
  152DOPC  C21418214   3.315   1.211  14.339  0.2602  0.2004  0.1262
  152DOPC  H14R18215   3.229   1.254  14.395 -0.1312 -0.8527  0.3516
  152DOPC  H14S18216   3.300   1.101  14.337  1.1221  0.0791 -0.0889
  152DOPC  C21518217   3.318   1.258  14.196  1.3228  0.3667 -0.3566
  152DOPC  H15R18218   3.395   1.208  14.134 -0.4982 -1.2568 -1.4078
  152DOPC  H15S18219   3.337   1.368  14.194  0.2153  0.7210  2.7045
  152DOPC  C21618220   3.178   1.251  14.138  0.2755 -0.5385 -0.4239
  152DOPC  H16R18221   3.105   1.326  14.177 -1.2263 -1.0685 -2.0662
  152DOPC  H16S18222   3.131   1.152  14.156  2.1621 -1.2253  0.9283
  152DOPC  C21718223   3.180   1.284  13.982  0.0987 -0.3547  0.1121
  152DOPC  H17R18224   3.229   1.196  13.935  0.4921 -0.9899  1.6428
  152DOPC  H17S18225   3.245   1.373  13.977 -0.1497  0.0428  2.5367
  152DOPC  C21818226   3.045   1.300  13.919  0.2210 -0.2114 -0.5903
  152DOPC  H18R18227   2.975   1.371  13.968  1.2233  1.0377 -0.9207
  152DOPC  H18S18228   2.988   1.204  13.915  0.6059 -0.4621 -0.1939
  152DOPC  H18T18229   3.055   1.346  13.819  1.4407  1.8245  0.4096
  152DOPC   C3318230   3.567   1.782  15.271  0.1385 -0.1163  0.1839
  152DOPC   H3X18231   3.480   1.849  15.277 -0.5677 -0.9556 -0.4211
  152DOPC   H3Y18232   3.522   1.682  15.251  0.0022 -0.1126  0.4657
  152DOPC   C3418233   3.649   1.807  15.143 -0.9952  0.4261  0.2912
  152DOPC   H4X18234   3.716   1.720  15.131 -0.7243  0.6604  0.0942
  152DOPC   H4Y18235   3.710   1.898  15.160  1.0888 -0.2188 -2.8480
  152DOPC   C3518236   3.553   1.818  15.027 -0.2951  0.2828  0.2239
  152DOPC   H5X18237   3.490   1.910  15.025 -0.9983 -0.1915 -0.5828
  152DOPC   H5Y18238   3.473   1.741  15.028 -0.9607  0.9057  3.4276
  152DOPC   C3618239   3.626   1.792  14.901 -0.3339  0.3035  0.6484
  152DOPC   H6X18240   3.692   1.875  14.870 -0.6086 -0.4640 -2.3156
  152DOPC   H6Y18241   3.678   1.694  14.911 -1.4844 -0.4980 -0.7302
  152DOPC   C3718242   3.535   1.765  14.776  0.3474 -0.5588  0.4276
  152DOPC   H7X18243   3.481   1.668  14.778 -0.3855 -0.1881 -0.7620
  152DOPC   H7Y18244   3.464   1.851  14.772 -1.0318 -1.6801  0.0660
  152DOPC   C3818245   3.611   1.770  14.644 -0.0661 -1.1633 -0.0615
  152DOPC   H8X18246   3.690   1.693  14.654 -0.9842 -2.1087 -0.0174
  152DOPC   H8Y18247   3.651   1.873  14.632 -1.4324 -0.1940  2.6991
  152DOPC   C3918248   3.513   1.748  14.528  0.4211  0.0123  0.3757
  152DOPC   H9X18249   3.410   1.782  14.544 -0.3112 -1.5817 -0.6895
  152DOPC  C31018250   3.550   1.703  14.405 -0.0861 -0.1096  0.3956
  152DOPC  H10X18251   3.471   1.670  14.336 -0.2910  1.7632 -0.3308
  152DOPC  C31118252   3.686   1.667  14.356 -0.4638  0.1243 -0.1165
  152DOPC  H11X18253   3.740   1.613  14.437 -0.2754  0.2633 -0.1479
  152DOPC  H11Y18254   3.753   1.747  14.318  0.4809 -0.7415 -0.3171
  152DOPC  C31218255   3.666   1.572  14.231 -0.2933  0.0529 -0.3554
  152DOPC  H12X18256   3.597   1.490  14.257  0.2902  0.2623  2.1623
  152DOPC  H12Y18257   3.765   1.531  14.201  0.0097  0.5816 -0.0996
  152DOPC  C31318258   3.610   1.632  14.102  0.3132 -0.0667  0.2252
  152DOPC  H13X18259   3.524   1.697  14.131  0.6376 -0.4259  2.1703
  152DOPC  H13Y18260   3.688   1.703  14.067  0.8226 -0.6140  0.2481
  152DOPC  C31418261   3.575   1.538  13.985 -0.7981 -0.1942 -0.5855
  152DOPC  H14X18262   3.668   1.484  13.957 -0.7698 -0.7962  0.6028
  152DOPC  H14Y18263   3.509   1.461  14.030 -0.4464  0.6725  1.5394
  152DOPC  C31518264   3.512   1.607  13.865 -0.2991  0.2155 -0.2570
  152DOPC  H15X18265   3.592   1.673  13.828  0.9694 -0.0176  1.8918
  152DOPC  H15Y18266   3.428   1.676  13.888 -2.1801 -2.5393  1.8944
  152DOPC  C31618267   3.470   1.505  13.763 -0.4936 -0.0648 -0.2802
  152DOPC  H16X18268   3.558   1.466  13.709 -1.1586  1.6491 -2.7492
  152DOPC  H16Y18269   3.435   1.418  13.824  0.5162 -0.5140 -0.3264
  152DOPC  C31718270   3.388   1.552  13.643  0.7588  0.1088 -0.2843
  152DOPC  H17X18271   3.447   1.634  13.596 -0.6857  2.2482  1.4186
  152DOPC  H17Y18272   3.378   1.465  13.575  4.0188 -1.2381  0.7499
  152DOPC  C31818273   3.256   1.611  13.687 -0.3586 -0.3981 -0.1370
  152DOPC  H18X18274   3.283   1.701  13.745  0.8395 -0.6922 -0.2281
  152DOPC  H18Y18275   3.203   1.659  13.603  0.2523 -1.4306 -1.1438
  152DOPC  H18Z18276   3.184   1.547  13.744  0.2671  0.7006  1.9911
  153DOPC     N18277   3.845   7.267  16.256 -0.2620  0.2991  0.9252
  153DOPC   C1218278   3.792   7.154  16.169 -0.4714  0.0441  0.3583
  153DOPC  H12A18279   3.707   7.188  16.112 -0.3097  1.6702  1.0139
  153DOPC  H12B18280   3.754   7.085  16.243 -0.4932 -0.6398 -0.2885
  153DOPC   C1318281   3.736   7.310  16.351  0.1977  0.2086  0.7126
  153DOPC  H13A18282   3.647   7.334  16.295  1.6616  0.2478 -1.7302
  153DOPC  H13B18283   3.714   7.240  16.430  1.7826 -0.9505  0.1799
  153DOPC  H13C18284   3.767   7.401  16.400  0.4071  0.7839 -0.4493
  153DOPC   C1418285   3.879   7.376  16.157 -0.1700 -0.5338 -0.3526
  153DOPC  H14A18286   3.794   7.405  16.097  0.8048  2.8966 -0.2986
  153DOPC  H14B18287   3.897   7.465  16.216  1.1655 -0.1802 -1.2504
  153DOPC  H14C18288   3.970   7.351  16.105  0.7166 -0.3092  1.0259
  153DOPC   C1518289   3.965   7.224  16.337  0.4535 -0.6847  0.3283
  153DOPC  H15A18290   3.944   7.139  16.400 -0.5998  0.1727  1.1569
  153DOPC  H15B18291   4.010   7.292  16.407  2.8109 -0.6659 -1.0908
  153DOPC  H15C18292   4.045   7.209  16.266  0.0861  1.5059 -0.6360
  153DOPC   C1118293   3.881   7.085  16.059 -0.1662 -0.8686 -0.3214
  153DOPC  H11A18294   3.831   7.007  15.998  1.1255 -2.3241  0.4173
  153DOPC  H11B18295   3.898   7.164  15.983 -1.0178 -0.9828 -0.6417
  153DOPC     P18296   4.029   6.894  16.172 -0.0388 -0.3431  0.0449
  153DOPC   O1318297   3.927   6.868  16.280  0.0770 -0.1232  0.5539
  153DOPC   O1418298   4.165   6.892  16.229 -0.1662 -0.1694  0.2638
  153DOPC   O1218299   4.007   7.033  16.107  0.1242  0.2155  0.3763
  153DOPC   O1118300   4.017   6.799  16.045 -0.0631  0.0541 -0.0085
  153DOPC    C118301   4.131   6.772  15.966 -0.0816  0.3925  0.1848
  153DOPC    HA18302   4.106   6.684  15.903 -1.3810 -0.0562  1.2836
  153DOPC    HB18303   4.212   6.750  16.039 -1.2387  1.3115  1.8353
  153DOPC    C218304   4.164   6.884  15.859 -0.1902 -0.9218  0.4457
  153DOPC    HS18305   4.195   6.967  15.926 -0.6874 -0.5044  0.1672
  153DOPC   O2118306   4.041   6.903  15.780 -0.4735  0.1230 -0.4227
  153DOPC   C2118307   4.032   7.014  15.724 -0.6349  0.1768  0.0195
  153DOPC   O2218308   4.117   7.102  15.729  0.7108  0.4611 -0.1567
  153DOPC   C2218309   3.892   7.026  15.656  0.1873 -0.5035 -0.0104
  153DOPC   H2R18310   3.823   7.090  15.714  0.6094 -0.0373 -0.0124
  153DOPC   H2S18311   3.844   6.927  15.642 -0.5422 -0.1670  0.0734
  153DOPC    C318312   4.284   6.868  15.765 -0.3982  0.5337 -0.1917
  153DOPC    HX18313   4.354   6.852  15.850 -2.4224 -1.2805  1.2369
  153DOPC    HY18314   4.318   6.950  15.699  1.1683 -0.1593 -0.2989
  153DOPC   O3118315   4.276   6.751  15.686  0.1750  1.2726 -0.4964
  153DOPC   C3118316   4.372   6.663  15.709  1.1188 -0.0007  0.2703
  153DOPC   O3218317   4.461   6.664  15.792 -0.2664 -0.7141  0.6483
  153DOPC   C3218318   4.346   6.549  15.615  0.4557  0.8221 -0.2923
  153DOPC   H2X18319   4.264   6.482  15.649  0.6656  0.8269  0.2263
  153DOPC   H2Y18320   4.321   6.576  15.510 -1.0976 -2.3940 -0.8800
  153DOPC   C2318321   3.907   7.085  15.515 -0.1597  0.4316  0.1620
  153DOPC   H3R18322   4.000   7.052  15.465  0.7087  3.2548 -0.2554
  153DOPC   H3S18323   3.911   7.196  15.525 -1.8600  0.5622 -0.2831
  153DOPC   C2418324   3.786   7.046  15.423 -0.6037 -0.0664 -0.2858
  153DOPC   H4R18325   3.701   7.090  15.481 -0.8392  0.0896 -0.7430
  153DOPC   H4S18326   3.776   6.935  15.425 -0.1394 -0.1178 -0.6691
  153DOPC   C2518327   3.782   7.119  15.287 -0.0795 -0.0548 -0.5714
  153DOPC   H5R18328   3.813   7.223  15.312  0.3724  0.5660 -3.4390
  153DOPC   H5S18329   3.676   7.127  15.257 -0.0183  0.4657 -0.6656
  153DOPC   C2618330   3.873   7.059  15.179  0.1312  0.4649  0.1806
  153DOPC   H6R18331   3.820   6.968  15.145  0.9487  0.3671 -0.8619
  153DOPC   H6S18332   3.973   7.033  15.219  0.6204  1.1448 -0.5727
  153DOPC   C2718333   3.879   7.145  15.051  0.2787 -0.1479 -0.0563
  153DOPC   H7R18334   3.917   7.247  15.074 -2.2327  1.1501 -1.2824
  153DOPC   H7S18335   3.776   7.161  15.014 -0.8803 -0.7333  2.6456
  153DOPC   C2818336   3.974   7.089  14.938 -0.3397 -0.8120  0.5718
  153DOPC   H8R18337   3.950   7.151  14.849 -1.3523 -0.6537  0.9401
  153DOPC   H8S18338   3.947   6.983  14.920 -0.5818 -0.1394 -4.4625
  153DOPC   C2918339   4.119   7.104  14.970  0.7488  0.9201  0.0416
  153DOPC   H9R18340   4.132   7.098  15.079  0.6420 -1.6495 -0.0272
  153DOPC  C21018341   4.215   7.145  14.889 -0.0276 -0.2194  0.2386
  153DOPC  H10R18342   4.318   7.158  14.925 -0.0345  0.2302  0.0965
  153DOPC  C21118343   4.201   7.185  14.746 -0.0287  0.5776 -0.0660
  153DOPC  H11R18344   4.272   7.269  14.733 -0.7322  1.3205  0.7969
  153DOPC  H11S18345   4.099   7.212  14.710 -0.1503 -1.4155 -1.4396
  153DOPC  C21218346   4.234   7.071  14.647 -0.0882  0.5298 -0.2219
  153DOPC  H12R18347   4.156   6.994  14.661 -0.7975  1.4885  1.3610
  153DOPC  H12S18348   4.333   7.027  14.671  0.3035  0.9220 -1.0809
  153DOPC  C21318349   4.237   7.128  14.503 -0.3116  0.3695 -0.5566
  153DOPC  H13R18350   4.164   7.211  14.496 -1.4990 -0.2560  2.6194
  153DOPC  H13S18351   4.191   7.043  14.450 -1.7287  0.1134  1.0046
  153DOPC  C21418352   4.372   7.167  14.460 -0.3569 -0.2872 -0.2074
  153DOPC  H14R18353   4.450   7.089  14.474  1.4805  1.1140 -1.9907
  153DOPC  H14S18354   4.404   7.250  14.526 -0.5690 -1.1663  1.0314
  153DOPC  C21518355   4.381   7.216  14.316 -0.1327 -0.1903 -0.8578
  153DOPC  H15R18356   4.316   7.306  14.308 -1.4844 -0.5793  3.2233
  153DOPC  H15S18357   4.340   7.136  14.251 -0.6227 -0.8619  0.2630
  153DOPC  C21618358   4.529   7.246  14.290  0.0675  0.2740 -0.0915
  153DOPC  H16R18359   4.587   7.152  14.287 -0.8533 -0.2809 -0.9234
  153DOPC  H16S18360   4.558   7.303  14.382  4.0717 -1.3883 -0.1141
  153DOPC  C21718361   4.560   7.327  14.165  0.0160 -0.2719 -0.2865
  153DOPC  H17R18362   4.670   7.335  14.147  0.0183  0.5381  0.0453
  153DOPC  H17S18363   4.530   7.431  14.187 -1.2180 -0.5527 -0.5618
  153DOPC  C21818364   4.495   7.272  14.038  0.4324 -0.6504 -0.8406
  153DOPC  H18R18365   4.521   7.169  14.006  0.7399 -0.1311 -2.3718
  153DOPC  H18S18366   4.513   7.339  13.951  1.5225  0.5115  0.2245
  153DOPC  H18T18367   4.386   7.264  14.053  0.5412 -1.2752 -0.3374
  153DOPC   C3318368   4.467   6.450  15.609  0.1609 -0.1177 -0.2021
  153DOPC   H3X18369   4.512   6.426  15.708  0.1818 -0.4175 -0.2828
  153DOPC   H3Y18370   4.551   6.500  15.556  1.4862 -0.0616  1.8381
  153DOPC   C3418371   4.429   6.315  15.547  0.0376 -0.0922 -0.6679
  153DOPC   H4X18372   4.403   6.330  15.440 -1.7717 -1.0674 -0.4039
  153DOPC   H4Y18373   4.336   6.279  15.596  0.2582 -1.2667 -1.0790
  153DOPC   C3518374   4.543   6.212  15.568 -0.1113  0.5259 -0.3422
  153DOPC   H5X18375   4.610   6.222  15.656  2.4349 -0.9278 -1.9891
  153DOPC   H5Y18376   4.613   6.230  15.483  0.1716 -1.1422 -0.4786
  153DOPC   C3618377   4.483   6.072  15.565  0.4666  0.3943  0.5781
  153DOPC   H6X18378   4.406   6.063  15.644 -0.8436  2.4076 -0.3725
  153DOPC   H6Y18379   4.445   6.068  15.461 -1.1174  3.2441  0.9443
  153DOPC   C3718380   4.588   5.958  15.581 -0.1002  0.1466  0.4646
  153DOPC   H7X18381   4.634   5.959  15.682 -1.9680 -3.7889  1.5520
  153DOPC   H7Y18382   4.537   5.860  15.588  1.6740 -1.0090 -1.7710
  153DOPC   C3818383   4.704   5.946  15.483  0.3288  0.6086  0.4646
  153DOPC   H8X18384   4.776   5.868  15.516  0.1789 -0.7967 -2.2532
  153DOPC   H8Y18385   4.769   6.036  15.482 -0.0729  0.9020  0.4444
  153DOPC   C3918386   4.661   5.920  15.341  0.0403 -0.0276  0.7496
  153DOPC   H9X18387   4.648   6.017  15.291  2.0651  0.7542  1.6246
  153DOPC  C31018388   4.642   5.803  15.272  0.8130  0.0275  0.2347
  153DOPC  H10X18389   4.621   5.803  15.164 -1.6456  0.1791  0.6669
  153DOPC  C31118390   4.649   5.673  15.333 -0.6500  1.0924 -0.4083
  153DOPC  H11X18391   4.555   5.640  15.381  0.7043 -0.5684  1.2493
  153DOPC  H11Y18392   4.731   5.667  15.407  1.5950 -2.1082 -2.8732
  153DOPC  C31218393   4.717   5.566  15.241  0.6992 -0.1430  0.0945
  153DOPC  H12X18394   4.646   5.525  15.166  0.4401  1.8219 -0.8090
  153DOPC  H12Y18395   4.748   5.486  15.312 -0.6878  0.3131  1.2524
  153DOPC  C31318396   4.836   5.622  15.165 -0.0989 -0.1229  0.1653
  153DOPC  H13X18397   4.826   5.712  15.102 -2.8159 -1.4965 -1.5517
  153DOPC  H13Y18398   4.919   5.644  15.236  0.2796  0.4355 -0.4392
  153DOPC  C31418399   4.883   5.510  15.064  0.2176 -0.4898 -0.9088
  153DOPC  H14X18400   4.991   5.533  15.052  0.4928  0.9583  3.0052
  153DOPC  H14Y18401   4.862   5.409  15.104 -1.4916  0.2128  0.0501
  153DOPC  C31518402   4.815   5.518  14.928  0.5744  0.0240 -0.5066
  153DOPC  H15X18403   4.804   5.622  14.890 -1.4996 -0.7595 -2.2538
  153DOPC  H15Y18404   4.713   5.475  14.932  0.5769 -0.0678 -1.2516
  153DOPC  C31618405   4.903   5.448  14.824 -0.3391  0.5820  0.2380
  153DOPC  H16X18406   4.846   5.426  14.731 -0.0363  1.0762 -0.0702
  153DOPC  H16Y18407   4.989   5.511  14.792  1.1918 -1.2410  0.5240
  153DOPC  C31718408   4.976   5.322  14.873 -0.4980 -0.7561 -0.1476
  153DOPC  H17X18409   5.060   5.354  14.938  0.0929  0.2772 -1.3776
  153DOPC  H17Y18410   4.897   5.257  14.917 -0.6776  0.4279  1.3518
  153DOPC  C31818411   5.044   5.240  14.766 -0.1446 -0.2913 -0.1616
  153DOPC  H18X18412   4.967   5.179  14.714  0.7662 -2.5303  0.9813
  153DOPC  H18Y18413   5.085   5.318  14.698 -1.8408  2.5558  1.8550
  153DOPC  H18Z18414   5.121   5.177  14.815  0.4060  1.1265  0.8688
  154DOPC     N18415   6.208   4.124  16.633 -0.0748 -0.1132  0.1002
  154DOPC   C1218416   6.098   4.144  16.525 -0.4471  0.4833  0.5805
  154DOPC  H12A18417   6.070   4.248  16.523  1.1436  0.9483  0.9112
  154DOPC  H12B18418   6.009   4.090  16.554 -1.2465  1.1490 -0.5678
  154DOPC   C1318419   6.249   3.979  16.662 -0.1056 -0.1026 -0.6337
  154DOPC  H13A18420   6.307   3.946  16.577 -1.6202 -1.7343 -1.0831
  154DOPC  H13B18421   6.315   3.970  16.746  1.5030 -0.5789 -1.9057
  154DOPC  H13C18422   6.160   3.919  16.674 -0.2394  0.0718 -0.7268
  154DOPC   C1418423   6.158   4.183  16.764  0.4896 -0.0496  0.0938
  154DOPC  H14A18424   6.124   4.286  16.758  1.7000  0.3640  0.0720
  154DOPC  H14B18425   6.078   4.118  16.797  0.7214 -1.6152 -2.1436
  154DOPC  H14C18426   6.236   4.178  16.838  0.4939  2.0686  0.3173
  154DOPC   C1518427   6.326   4.204  16.594 -0.0617  0.0032  0.3908
  154DOPC  H15A18428   6.417   4.192  16.651  2.2375  1.7691 -2.5720
  154DOPC  H15B18429   6.299   4.308  16.595 -2.0165 -0.4503 -0.8260
  154DOPC  H15C18430   6.359   4.186  16.493  0.9772  1.7759  0.3778
  154DOPC   C1118431   6.121   4.085  16.379 -0.3180 -0.3099 -0.3002
  154DOPC  H11A18432   6.143   3.978  16.398 -1.5792 -0.3091  1.4262
  154DOPC  H11B18433   6.023   4.093  16.327 -0.6352 -0.9971  0.1687
  154DOPC     P18434   6.310   4.103  16.194 -0.1659  0.1597  0.1818
  154DOPC   O1318435   6.440   4.064  16.248 -0.4026 -0.2694  0.1810
  154DOPC   O1418436   6.298   4.196  16.079  0.1853  0.0772  0.1153
  154DOPC   O1218437   6.224   4.160  16.314  0.1883 -0.4404 -0.7325
  154DOPC   O1118438   6.229   3.971  16.158 -0.4872 -0.2598  0.2565
  154DOPC    C118439   6.271   3.830  16.156  0.5559  0.6323 -0.6106
  154DOPC    HA18440   6.183   3.766  16.182  1.2598  0.6029  1.9478
  154DOPC    HB18441   6.358   3.813  16.222 -0.3881 -2.2466  0.0142
  154DOPC    C218442   6.309   3.772  16.015  0.1569 -0.0641  0.0566
  154DOPC    HS18443   6.337   3.664  16.023  0.5632 -0.0223 -0.7585
  154DOPC   O2118444   6.425   3.848  15.968  0.0476  0.1467 -0.1553
  154DOPC   C2118445   6.541   3.822  16.028  0.0986 -0.2712  0.5124
  154DOPC   O2218446   6.557   3.750  16.125 -0.1166  0.3852 -0.0841
  154DOPC   C2218447   6.656   3.896  15.972  0.6720  0.1491  0.9470
  154DOPC   H2R18448   6.719   3.929  16.057 -0.2115  1.8769  0.9628
  154DOPC   H2S18449   6.632   3.992  15.922  2.1097  1.0666  1.9227
  154DOPC    C318450   6.193   3.785  15.908  0.5860 -0.0716 -0.2031
  154DOPC    HX18451   6.143   3.884  15.923  1.3789  0.3356 -0.2258
  154DOPC    HY18452   6.116   3.708  15.927  0.7270 -0.9725 -2.9390
  154DOPC   O3118453   6.236   3.779  15.773  0.2226  0.1654  0.4214
  154DOPC   C3118454   6.273   3.886  15.707 -0.9806  0.7680 -0.2515
  154DOPC   O3218455   6.277   3.996  15.751 -0.1471 -0.4191 -0.6913
  154DOPC   C3218456   6.302   3.842  15.562 -0.4902  0.5806 -0.7057
  154DOPC   H2X18457   6.409   3.812  15.564 -0.9914 -1.6004 -2.6643
  154DOPC   H2Y18458   6.231   3.761  15.534 -1.4539  1.2285 -0.1954
  154DOPC   C2318459   6.722   3.799  15.868 -0.4118  0.0965  0.4660
  154DOPC   H3R18460   6.728   3.693  15.900 -0.7008 -0.2040 -0.4612
  154DOPC   H3S18461   6.825   3.838  15.852 -0.1124  1.2202  4.1275
  154DOPC   C2418462   6.644   3.810  15.734  0.0080 -0.1545  0.1687
  154DOPC   H4R18463   6.651   3.918  15.707  0.0557 -0.1164  0.3365
  154DOPC   H4S18464   6.537   3.784  15.747  0.1616 -0.4859  0.7493
  154DOPC   C2518465   6.709   3.718  15.630 -0.1566  0.2664  0.6100
  154DOPC   H5R18466   6.684   3.614  15.662 -2.8031  0.4742 -0.5563
  154DOPC   H5S18467   6.815   3.748  15.643  0.9665 -1.6878 -2.6858
  154DOPC   C2618468   6.653   3.725  15.489 -0.3479 -0.0058 -0.2744
  154DOPC   H6R18469   6.631   3.831  15.465  0.7663  0.1488 -0.6830
  154DOPC   H6S18470   6.555   3.672  15.482 -1.7457  2.2747  0.6807
  154DOPC   C2718471   6.757   3.669  15.385  0.3362  0.2418  0.1968
  154DOPC   H7R18472   6.796   3.567  15.404  0.0588  0.1240  0.1329
  154DOPC   H7S18473   6.845   3.737  15.382  0.6211 -0.1509 -1.2545
  154DOPC   C2818474   6.700   3.669  15.238  0.4368  0.1990  0.4101
  154DOPC   H8R18475   6.663   3.769  15.208 -0.4450 -0.7814 -1.9665
  154DOPC   H8S18476   6.604   3.613  15.232 -0.9021  2.0872  2.4044
  154DOPC   C2918477   6.811   3.613  15.152 -0.0533 -0.3888  0.5762
  154DOPC   H9R18478   6.906   3.669  15.158  0.0896 -0.4055 -1.2051
  154DOPC  C21018479   6.807   3.503  15.077  0.1195  0.3601 -0.3545
  154DOPC  H10R18480   6.893   3.491  15.009 -0.5368  0.7100 -1.2693
  154DOPC  C21118481   6.694   3.410  15.058  0.1106  0.4898  0.4508
  154DOPC  H11R18482   6.654   3.377  15.157 -0.3908 -1.4518 -0.3526
  154DOPC  H11S18483   6.725   3.321  14.999  0.4147  1.5261 -0.9903
  154DOPC  C21218484   6.570   3.462  14.983 -0.1796 -0.5866  0.3133
  154DOPC  H12R18485   6.587   3.508  14.884 -2.3589 -0.3478  0.0163
  154DOPC  H12S18486   6.519   3.539  15.045 -2.0679 -0.5722 -1.1713
  154DOPC  C21318487   6.468   3.349  14.957 -0.0979  0.3216 -0.6009
  154DOPC  H13R18488   6.452   3.292  15.051 -0.6994  0.3140 -0.7009
  154DOPC  H13S18489   6.511   3.273  14.888 -1.6591 -1.0815 -0.1150
  154DOPC  C21418490   6.322   3.381  14.908 -0.1788  0.5293  0.3640
  154DOPC  H14R18491   6.283   3.476  14.950 -0.7656  1.5082 -2.2132
  154DOPC  H14S18492   6.255   3.294  14.928 -1.1299  1.0245 -0.6159
  154DOPC  C21518493   6.326   3.416  14.758  0.6693 -0.1893  0.1493
  154DOPC  H15R18494   6.382   3.333  14.708 -0.1142  1.2879 -3.4735
  154DOPC  H15S18495   6.375   3.513  14.738 -2.1539  1.4730  0.8033
  154DOPC  C21618496   6.186   3.428  14.697 -0.6562  0.1462  0.2016
  154DOPC  H16R18497   6.165   3.537  14.691 -0.7413  0.1084 -0.2282
  154DOPC  H16S18498   6.111   3.376  14.760 -0.6546 -1.4046 -1.0157
  154DOPC  C21718499   6.171   3.371  14.561  0.0114  0.0245  0.3398
  154DOPC  H17R18500   6.179   3.261  14.556 -1.4249 -0.3488  3.4543
  154DOPC  H17S18501   6.254   3.414  14.502 -0.5917 -0.3928 -0.8460
  154DOPC  C21818502   6.045   3.409  14.491  0.1282  0.1677  1.1883
  154DOPC  H18R18503   5.956   3.361  14.536 -1.3062  0.4527 -1.1414
  154DOPC  H18S18504   6.036   3.348  14.398 -1.1815 -1.1062  2.1180
  154DOPC  H18T18505   6.025   3.516  14.469 -1.2888 -0.4545 -0.9066
  154DOPC   C3318506   6.300   3.962  15.460  0.0562  0.2688 -0.1819
  154DOPC   H3X18507   6.403   3.988  15.427 -1.0293  5.0655 -0.5159
  154DOPC   H3Y18508   6.242   4.047  15.501  1.5042  1.0391  0.3139
  154DOPC   C3418509   6.213   3.918  15.333 -0.7021  0.0055 -0.3507
  154DOPC   H4X18510   6.158   4.004  15.292 -1.6398 -0.8193 -0.8511
  154DOPC   H4Y18511   6.139   3.849  15.378  0.1667 -0.9869 -0.3958
  154DOPC   C3518512   6.298   3.845  15.225 -0.4867 -0.2529 -0.1969
  154DOPC   H5X18513   6.358   3.761  15.264 -0.0066  0.0123 -0.3600
  154DOPC   H5Y18514   6.358   3.923  15.174  0.7677 -0.2480  1.2276
  154DOPC   C3618515   6.212   3.765  15.118 -0.1600 -0.5362  0.4387
  154DOPC   H6X18516   6.279   3.705  15.053 -0.9967 -0.6592 -0.3292
  154DOPC   H6Y18517   6.143   3.696  15.172 -0.0385 -1.7233 -0.8626
  154DOPC   C3718518   6.134   3.854  15.028  0.2254 -0.4832 -0.3138
  154DOPC   H7X18519   6.064   3.795  14.965  1.1610 -0.3452 -1.5345
  154DOPC   H7Y18520   6.069   3.919  15.089 -1.3211 -2.6080  0.4005
  154DOPC   C3818521   6.205   3.950  14.930 -0.4520  0.0001 -0.6377
  154DOPC   H8X18522   6.287   4.004  14.980 -0.3834 -0.5363 -0.1603
  154DOPC   H8Y18523   6.138   4.035  14.905 -0.5704 -0.5000 -2.1096
  154DOPC   C3918524   6.260   3.877  14.813  0.0385  0.2862  0.3611
  154DOPC   H9X18525   6.367   3.857  14.827  0.2339  1.2966  0.3754
  154DOPC  C31018526   6.195   3.855  14.692 -0.3459 -0.1664 -1.2499
  154DOPC  H10X18527   6.250   3.807  14.610 -2.1867 -0.8963 -2.0918
  154DOPC  C31118528   6.053   3.902  14.666 -0.3740  0.4441  0.7774
  154DOPC  H11X18529   6.016   3.969  14.747  1.7837  1.2074  1.2132
  154DOPC  H11Y18530   5.988   3.812  14.672  1.7680 -1.1497  1.2137
  154DOPC  C31218531   6.035   3.970  14.528 -0.0638 -0.5286  0.0974
  154DOPC  H12X18532   6.104   4.057  14.522 -0.6692 -0.0068  0.6921
  154DOPC  H12Y18533   5.934   4.015  14.538  0.0272 -0.4067  0.4686
  154DOPC  C31318534   6.047   3.869  14.414 -0.8238 -0.3884  0.1165
  154DOPC  H13X18535   6.149   3.828  14.402  0.0641  2.1547 -2.0147
  154DOPC  H13Y18536   5.983   3.782  14.440  0.5859 -0.8548  2.3072
  154DOPC  C31418537   6.016   3.940  14.286  0.5871 -0.0284  0.2361
  154DOPC  H14X18538   5.917   3.992  14.288  0.7446  0.2931 -0.1436
  154DOPC  H14Y18539   6.093   4.019  14.273  0.1604  0.4686  0.6709
  154DOPC  C31518540   5.995   3.846  14.168  0.2677  0.9389  0.0408
  154DOPC  H15X18541   6.083   3.794  14.124 -1.7848 -1.8014 -1.0753
  154DOPC  H15Y18542   5.957   3.906  14.082  1.1896 -0.4204 -1.3911
  154DOPC  C31618543   5.892   3.738  14.190 -0.1926  0.0285 -0.2030
  154DOPC  H16X18544   5.942   3.665  14.257  1.7846  3.6159  2.5689
  154DOPC  H16Y18545   5.797   3.766  14.240  0.3304  1.2085  0.1680
  154DOPC  C31718546   5.852   3.668  14.056 -0.5704  0.6002  0.4533
  154DOPC  H17X18547   5.848   3.748  13.978  2.5447  0.4438  0.0128
  154DOPC  H17Y18548   5.942   3.613  14.023 -2.5108 -1.8804 -1.0288
  154DOPC  C31818549   5.727   3.576  14.055 -0.2866 -0.2178  0.0434
  154DOPC  H18X18550   5.733   3.516  13.962 -0.1031 -1.1656  0.6580
  154DOPC  H18Y18551   5.734   3.504  14.139 -3.1149 -1.2341 -0.4965
  154DOPC  H18Z18552   5.641   3.646  14.052 -0.0531  0.0759 -3.0174
  155DOPC     N18553   0.835   1.723  16.590  0.7060 -0.2468  0.3435
  155DOPC   C1218554   0.826   1.689  16.440 -0.1436 -0.2177 -0.6272
  155DOPC  H12A18555   0.839   1.782  16.388 -0.4099  0.0936 -0.1444
  155DOPC  H12B18556   0.726   1.652  16.417 -0.4422 -0.0270  0.3180
  155DOPC   C1318557   0.730   1.830  16.623  0.1210  0.1775  0.2239
  155DOPC  H13A18558   0.749   1.931  16.587 -1.7715  0.4937  0.0009
  155DOPC  H13B18559   0.639   1.815  16.566  1.3906  0.8689 -2.1558
  155DOPC  H13C18560   0.703   1.831  16.727 -0.3921 -0.7843  0.1104
  155DOPC   C1418561   0.970   1.779  16.619  0.1927 -0.6923  0.4363
  155DOPC  H14A18562   1.037   1.695  16.607 -0.0235 -0.8726  0.4858
  155DOPC  H14B18563   0.998   1.862  16.556 -2.1158  0.0146  0.2531
  155DOPC  H14C18564   0.977   1.816  16.720 -1.9011  2.2387 -0.3516
  155DOPC   C1518565   0.819   1.597  16.669  0.2163  0.2588 -0.0946
  155DOPC  H15A18566   0.718   1.558  16.661  0.4170 -0.9402  2.3959
  155DOPC  H15B18567   0.829   1.621  16.774  0.7185  1.1538 -0.3394
  155DOPC  H15C18568   0.890   1.521  16.643 -1.6444 -1.6271  0.0665
  155DOPC   C1118569   0.927   1.585  16.383 -0.7525  0.0642 -1.0740
  155DOPC  H11A18570   0.918   1.579  16.272 -1.4582  1.5777 -1.1158
  155DOPC  H11B18571   1.029   1.622  16.405 -1.3386  3.3128 -3.0892
  155DOPC     P18572   0.779   1.362  16.399  0.4230  0.6499  0.0380
  155DOPC   O1318573   0.655   1.415  16.464  0.0979 -0.5887 -0.5851
  155DOPC   O1418574   0.813   1.220  16.428 -0.5799 -0.8479  0.0893
  155DOPC   O1218575   0.903   1.451  16.440 -0.0690 -0.3186  0.3429
  155DOPC   O1118576   0.773   1.370  16.248  0.3593 -0.0433 -0.7044
  155DOPC    C118577   0.858   1.281  16.162 -0.0118 -0.1438 -0.3333
  155DOPC    HA18578   0.836   1.304  16.056  0.9015  0.8683 -0.3268
  155DOPC    HB18579   0.830   1.175  16.176  3.3178 -1.2371 -1.0935
  155DOPC    C218580   1.013   1.301  16.188  1.7471 -0.7273  0.1920
  155DOPC    HS18581   1.040   1.287  16.295  1.3835 -0.2476  0.3496
  155DOPC   O2118582   1.058   1.428  16.133 -0.6250  0.0935 -0.0920
  155DOPC   C2118583   1.189   1.460  16.144  0.4055 -0.1514 -0.0488
  155DOPC   O2218584   1.270   1.397  16.205  0.0399  0.2312 -0.0997
  155DOPC   C2218585   1.214   1.589  16.073 -0.2438 -0.1358 -0.4218
  155DOPC   H2R18586   1.247   1.660  16.152  1.5193  1.2281 -2.2672
  155DOPC   H2S18587   1.123   1.639  16.032 -1.0034 -0.2742  1.0233
  155DOPC    C318588   1.082   1.182  16.129 -0.7051  1.2747  0.3945
  155DOPC    HX18589   1.042   1.094  16.184  2.1678  0.5909  1.5869
  155DOPC    HY18590   1.189   1.183  16.160 -0.2485  3.1722 -1.0557
  155DOPC   O3118591   1.070   1.178  15.988 -0.0139  0.4147 -0.1000
  155DOPC   C3118592   1.179   1.162  15.917  0.0249  1.0658 -0.3527
  155DOPC   O3218593   1.291   1.150  15.960 -0.3191 -0.1746 -0.3444
  155DOPC   C3218594   1.143   1.143  15.772 -0.3921  0.0338  0.1411
  155DOPC   H2X18595   1.035   1.121  15.757 -0.7452  1.2846  0.7648
  155DOPC   H2Y18596   1.168   1.245  15.737  3.7382  0.3031  3.1278
  155DOPC   C2318597   1.319   1.582  15.960 -0.1931  0.3886  0.1980
  155DOPC   H3R18598   1.398   1.510  15.990 -0.8114 -0.2101  0.4009
  155DOPC   H3S18599   1.356   1.687  15.954 -2.9434  1.4641  0.4218
  155DOPC   C2418600   1.251   1.539  15.833 -0.3666  0.5150  0.0122
  155DOPC   H4R18601   1.179   1.618  15.803 -0.8065 -0.3282 -1.2471
  155DOPC   H4S18602   1.196   1.442  15.838  0.2631  0.1038 -0.7784
  155DOPC   C2518603   1.358   1.503  15.730  0.5800  0.0530 -0.0140
  155DOPC   H5R18604   1.424   1.423  15.770  1.2308  0.1393 -0.8758
  155DOPC   H5S18605   1.423   1.593  15.718 -1.1311  0.9993 -3.6432
  155DOPC   C2618606   1.304   1.465  15.593 -0.2835 -0.4532 -0.4043
  155DOPC   H6R18607   1.207   1.520  15.590  0.1602  0.3625 -0.3222
  155DOPC   H6S18608   1.291   1.355  15.595  2.0245 -0.7730  1.0618
  155DOPC   C2718609   1.389   1.510  15.475  0.2476  0.1780 -0.1745
  155DOPC   H7R18610   1.491   1.466  15.482 -0.2013 -1.4210 -2.4674
  155DOPC   H7S18611   1.408   1.619  15.463  0.2062 -0.0178 -2.6476
  155DOPC   C2818612   1.307   1.468  15.347 -0.1684  0.0873  0.1833
  155DOPC   H8R18613   1.202   1.502  15.358  0.1549  1.9660 -1.7146
  155DOPC   H8S18614   1.288   1.359  15.349 -0.7635  0.1506 -1.2617
  155DOPC   C2918615   1.375   1.513  15.218  0.7509  0.0823  0.1243
  155DOPC   H9R18616   1.474   1.471  15.200  0.1839 -0.3765 -2.3059
  155DOPC  C21018617   1.311   1.588  15.120 -0.4113 -0.1419 -0.1591
  155DOPC  H10R18618   1.373   1.617  15.034  2.0262  0.6646  1.7490
  155DOPC  C21118619   1.163   1.631  15.130 -0.5506 -0.1225 -0.4885
  155DOPC  H11R18620   1.150   1.734  15.089  1.5738  1.0498  1.5391
  155DOPC  H11S18621   1.135   1.643  15.237  0.3596  1.1587 -0.3643
  155DOPC  C21218622   1.057   1.538  15.079  0.0868  0.2738  0.5427
  155DOPC  H12R18623   1.068   1.536  14.969 -0.8537 -0.9634  0.4550
  155DOPC  H12S18624   0.963   1.589  15.108  0.3005  0.8427  0.2560
  155DOPC  C21318625   1.066   1.387  15.118 -0.2845  0.7257 -0.4943
  155DOPC  H13R18626   1.047   1.379  15.227 -0.3284  0.3106 -0.5326
  155DOPC  H13S18627   1.166   1.344  15.095 -0.8711 -1.1675  0.3116
  155DOPC  C21418628   0.977   1.296  15.034 -0.3248 -0.1389 -0.0547
  155DOPC  H14R18629   1.006   1.193  15.063  1.8209  0.8341  1.4985
  155DOPC  H14S18630   0.992   1.309  14.925 -0.9840 -0.0738 -0.1413
  155DOPC  C21518631   0.831   1.337  15.046  0.6335 -0.3995 -0.3462
  155DOPC  H15R18632   0.809   1.432  14.991 -0.2396 -0.2807  0.1884
  155DOPC  H15S18633   0.808   1.383  15.145  0.1825 -2.1144  0.3689
  155DOPC  C21618634   0.729   1.231  14.994  0.5261  0.0436 -0.4597
  155DOPC  H16R18635   0.736   1.202  14.887 -0.1269  2.0017 -1.0927
  155DOPC  H16S18636   0.625   1.269  15.009  0.6194  0.2289 -0.2808
  155DOPC  C21718637   0.734   1.103  15.081 -0.1645  0.2018  0.6477
  155DOPC  H17R18638   0.836   1.062  15.065 -0.6104 -0.4609 -0.6030
  155DOPC  H17S18639   0.646   1.042  15.053 -0.3541  0.7405  0.0361
  155DOPC  C21818640   0.723   1.138  15.232  0.2002 -0.6579 -0.2943
  155DOPC  H18R18641   0.798   1.210  15.272  0.1448  0.0131 -1.3612
  155DOPC  H18S18642   0.743   1.040  15.280 -2.9805 -1.5936 -0.6653
  155DOPC  H18T18643   0.616   1.169  15.238  0.4541  0.1817 -0.0403
  155DOPC   C3318644   1.237   1.038  15.714  0.3198 -0.3021 -0.3175
  155DOPC   H3X18645   1.263   0.959  15.787 -2.4054 -0.1657  0.9370
  155DOPC   H3Y18646   1.334   1.090  15.700  1.2957 -1.8015  0.7170
  155DOPC   C3418647   1.183   0.974  15.589 -0.5566 -0.0910 -0.2117
  155DOPC   H4X18648   1.073   0.957  15.593 -0.7143  0.7101 -0.7920
  155DOPC   H4Y18649   1.229   0.875  15.568 -1.2722 -0.3091 -0.8220
  155DOPC   C3518650   1.210   1.064  15.466  0.5689 -0.4698 -0.2005
  155DOPC   H5X18651   1.316   1.087  15.442  0.8537 -2.0033 -0.5237
  155DOPC   H5Y18652   1.165   1.161  15.495 -0.0377 -0.9641  0.5394
  155DOPC   C3618653   1.132   1.026  15.346  0.4624  0.2417  0.3089
  155DOPC   H6X18654   1.025   1.033  15.377 -0.0894 -2.2074 -0.7402
  155DOPC   H6Y18655   1.141   1.095  15.260 -1.4404  0.0491 -0.1057
  155DOPC   C3718656   1.169   0.883  15.291  0.6301 -0.7339 -0.5488
  155DOPC   H7X18657   1.275   0.889  15.258  1.3430 -2.6567  1.1586
  155DOPC   H7Y18658   1.162   0.815  15.379 -2.6546  0.0104 -0.1011
  155DOPC   C3818659   1.073   0.825  15.183  0.0372  0.1305  0.1271
  155DOPC   H8X18660   1.067   0.887  15.091  0.9571  0.8520  0.5321
  155DOPC   H8Y18661   0.972   0.826  15.230  0.6491  3.3235  1.6187
  155DOPC   C3918662   1.110   0.687  15.153 -0.3644 -0.6591 -0.9228
  155DOPC   H9X18663   1.152   0.624  15.233  3.0237 -0.2290 -2.1655
  155DOPC  C31018664   1.093   0.625  15.036  0.6616  0.7387  0.3182
  155DOPC  H10X18665   1.121   0.519  15.029 -0.0908  0.5135  0.6217
  155DOPC  C31118666   1.030   0.684  14.912  0.0871  0.4814  0.3326
  155DOPC  H11X18667   1.100   0.706  14.829  1.1830 -0.2626  1.0253
  155DOPC  H11Y18668   0.972   0.775  14.936 -1.9924 -0.6750  0.0071
  155DOPC  C31218669   0.927   0.598  14.840  0.3053 -0.5926  0.4783
  155DOPC  H12X18670   0.976   0.503  14.809  3.0714  0.9370 -0.0906
  155DOPC  H12Y18671   0.889   0.640  14.745 -0.7338 -0.7442  0.8133
  155DOPC  C31318672   0.795   0.558  14.925  0.0528  0.1816 -0.9124
  155DOPC  H13X18673   0.742   0.482  14.864 -0.0732  0.2393 -0.8764
  155DOPC  H13Y18674   0.818   0.513  15.024 -0.9008  0.3880 -0.5830
  155DOPC  C31418675   0.702   0.680  14.950  0.8805 -0.3556 -0.0529
  155DOPC  H14X18676   0.767   0.755  14.999 -1.5027  2.1422 -0.4349
  155DOPC  H14Y18677   0.684   0.729  14.852 -0.6837  1.0093  0.8643
  155DOPC  C31518678   0.570   0.664  15.020 -0.0375 -0.2485 -0.8396
  155DOPC  H15X18679   0.517   0.579  14.971  0.4963 -2.1492  1.6380
  155DOPC  H15Y18680   0.508   0.756  15.028  0.2943 -0.1913  2.3813
  155DOPC  C31618681   0.586   0.610  15.167  0.6527 -1.0682  0.0741
  155DOPC  H16X18682   0.486   0.578  15.204 -0.5523 -1.2645 -3.0031
  155DOPC  H16Y18683   0.644   0.515  15.166  2.6500  0.0878  0.0650
  155DOPC  C31718684   0.658   0.710  15.261 -0.2363 -0.1669 -0.4813
  155DOPC  H17X18685   0.699   0.655  15.349 -3.6589  0.6509  1.8243
  155DOPC  H17Y18686   0.744   0.749  15.203 -1.2086  1.3445 -0.9729
  155DOPC  C31818687   0.564   0.823  15.305 -0.8111  0.2994  0.2061
  155DOPC  H18X18688   0.564   0.904  15.229 -0.3516  0.2568  0.1627
  155DOPC  H18Y18689   0.460   0.791  15.329 -1.5092  1.8676 -0.5417
  155DOPC  H18Z18690   0.612   0.859  15.398  0.1380  0.8035 -0.4651
  156DOPC     N18691   6.723   5.271  16.232 -0.3617  0.2050  0.4727
  156DOPC   C1218692   6.707   5.370  16.122 -0.1067 -0.8271  0.5206
  156DOPC  H12A18693   6.717   5.323  16.025 -1.1606  0.9342 -0.4889
  156DOPC  H12B18694   6.791   5.437  16.134  0.6428 -1.8037  0.8746
  156DOPC   C1318695   6.626   5.159  16.227 -0.3472 -0.2150 -0.3212
  156DOPC  H13A18696   6.525   5.191  16.247 -0.8378 -1.8954  0.0982
  156DOPC  H13B18697   6.620   5.110  16.130 -3.3905  1.7032 -1.2499
  156DOPC  H13C18698   6.654   5.086  16.301  3.0359  0.2396 -1.0156
  156DOPC   C1418699   6.715   5.333  16.367 -0.5307 -0.1706 -0.2514
  156DOPC  H14A18700   6.791   5.408  16.384 -1.6439  1.3733 -1.7712
  156DOPC  H14B18701   6.620   5.384  16.380 -2.0811 -3.2590  2.0467
  156DOPC  H14C18702   6.709   5.258  16.445 -0.2669  1.3211  1.2568
  156DOPC   C1518703   6.860   5.208  16.221  0.3859  0.3851  0.4897
  156DOPC  H15A18704   6.938   5.282  16.231  2.0581 -1.4894  2.3659
  156DOPC  H15B18705   6.858   5.159  16.125 -2.2855  1.0137  0.1421
  156DOPC  H15C18706   6.879   5.127  16.290  2.0820 -0.1773 -0.5937
  156DOPC   C1118707   6.581   5.456  16.110 -0.0412  0.0333 -0.8000
  156DOPC  H11A18708   6.594   5.536  16.034 -2.2534  0.3344 -0.9307
  156DOPC  H11B18709   6.490   5.397  16.085 -0.0304 -0.8988  1.1559
  156DOPC     P18710   6.634   5.663  16.274 -0.2032  0.3348 -0.1188
  156DOPC   O1318711   6.778   5.627  16.257  0.2767  0.6598  0.4172
  156DOPC   O1418712   6.595   5.701  16.407  0.1708 -0.3848 -0.2297
  156DOPC   O1218713   6.558   5.528  16.233  0.5618 -0.3683 -0.0307
  156DOPC   O1118714   6.594   5.776  16.164  0.0409  0.0323 -0.8221
  156DOPC    C118715   6.465   5.825  16.161  0.3276 -1.1139 -0.3986
  156DOPC    HA18716   6.469   5.935  16.150  1.2596 -1.1548 -0.5993
  156DOPC    HB18717   6.406   5.803  16.252 -0.7799  2.8750  0.0327
  156DOPC    C218718   6.393   5.781  16.034 -0.1573  0.6212 -0.2468
  156DOPC    HS18719   6.405   5.671  16.028 -0.6261  0.6237 -1.4640
  156DOPC   O2118720   6.449   5.848  15.920  0.2717 -0.0137 -0.3817
  156DOPC   C2118721   6.486   5.766  15.823  0.9324  0.5281  0.3484
  156DOPC   O2218722   6.490   5.646  15.827 -0.4406 -0.1066 -0.7783
  156DOPC   C2218723   6.518   5.845  15.705 -0.2142 -0.0715  0.3696
  156DOPC   H2R18724   6.600   5.919  15.721 -0.6335  0.3154  0.7355
  156DOPC   H2S18725   6.436   5.909  15.666  1.4829  1.3730 -1.0381
  156DOPC    C318726   6.239   5.804  16.048  0.1482 -0.4033  0.5832
  156DOPC    HX18727   6.224   5.898  16.106  0.0085  0.4855 -0.8675
  156DOPC    HY18728   6.202   5.719  16.110  0.3230 -2.0086 -1.3932
  156DOPC   O3118729   6.181   5.807  15.915 -0.1371 -0.0577 -0.5597
  156DOPC   C3118730   6.143   5.690  15.859  0.2417 -0.2602 -0.1731
  156DOPC   O3218731   6.116   5.586  15.916 -0.3632 -0.2066 -0.5175
  156DOPC   C3218732   6.116   5.712  15.708  0.1026 -0.0268  0.8511
  156DOPC   H2X18733   6.021   5.762  15.681  0.9436  1.0951 -0.1443
  156DOPC   H2Y18734   6.199   5.764  15.656  1.6944 -1.8098  1.4624
  156DOPC   C2318735   6.574   5.753  15.592 -0.5246  0.7227  0.1158
  156DOPC   H3R18736   6.495   5.680  15.569  1.7536 -1.8972  0.1416
  156DOPC   H3S18737   6.660   5.700  15.637  1.1783  1.5276 -2.0109
  156DOPC   C2418738   6.622   5.824  15.462  0.0356  0.4127 -0.4246
  156DOPC   H4R18739   6.716   5.883  15.470  0.9746 -1.0996  0.3619
  156DOPC   H4S18740   6.540   5.892  15.432 -0.0943  0.5976  0.3357
  156DOPC   C2518741   6.633   5.732  15.336  0.5136  0.1590  0.0501
  156DOPC   H5R18742   6.716   5.662  15.360  0.0311  0.3240  2.4928
  156DOPC   H5S18743   6.667   5.796  15.252  1.8450  0.1947  0.5954
  156DOPC   C2618744   6.505   5.663  15.284 -0.3724 -0.0206 -0.4166
  156DOPC   H6R18745   6.417   5.730  15.297  0.2029  0.4602  1.1885
  156DOPC   H6S18746   6.485   5.585  15.360  1.9182  1.6017  2.0012
  156DOPC   C2718747   6.512   5.599  15.146  0.5941  0.1469 -0.0849
  156DOPC   H7R18748   6.423   5.535  15.131  0.6370  0.4880 -1.9601
  156DOPC   H7S18749   6.607   5.543  15.130  2.1969  2.3968  0.9504
  156DOPC   C2818750   6.502   5.702  15.035  0.5292 -0.2463 -0.1398
  156DOPC   H8R18751   6.565   5.786  15.070 -0.2650  0.3714 -0.1683
  156DOPC   H8S18752   6.402   5.750  15.039  0.7914  0.5844 -2.1368
  156DOPC   C2918753   6.555   5.659  14.892 -0.1757  0.1853  0.6894
  156DOPC   H9R18754   6.664   5.647  14.886  0.1456  1.7585  2.5873
  156DOPC  C21018755   6.483   5.644  14.783 -0.1676 -0.7136  0.5156
  156DOPC  H10R18756   6.533   5.608  14.692 -0.0216 -1.2463  0.8050
  156DOPC  C21118757   6.337   5.660  14.759  0.1899 -0.2806 -0.3581
  156DOPC  H11R18758   6.304   5.723  14.674 -1.4303 -0.1815  0.3091
  156DOPC  H11S18759   6.301   5.711  14.851 -0.4081  3.6894 -2.5674
  156DOPC  C21218760   6.272   5.526  14.744 -0.0452 -0.6517 -0.5526
  156DOPC  H12R18761   6.344   5.454  14.698  3.0272  1.1423  1.1256
  156DOPC  H12S18762   6.182   5.542  14.681  0.0881  0.4605 -0.4650
  156DOPC  C21318763   6.225   5.461  14.876 -0.0945 -0.7753  0.2650
  156DOPC  H13R18764   6.160   5.535  14.926  0.4268 -1.9010  2.7365
  156DOPC  H13S18765   6.309   5.447  14.948 -0.2732 -1.5539  0.3290
  156DOPC  C21418766   6.149   5.330  14.859  0.3907 -0.8096 -0.4234
  156DOPC  H14R18767   6.117   5.287  14.956 -1.3094  1.4416  0.0894
  156DOPC  H14S18768   6.212   5.257  14.804  1.5238 -1.1562  1.2580
  156DOPC  C21518769   6.019   5.352  14.782 -0.3661  0.5275  0.5321
  156DOPC  H15R18770   6.044   5.398  14.684 -0.2529  0.2556  0.4304
  156DOPC  H15S18771   5.947   5.410  14.844 -0.3960  0.9440  0.1118
  156DOPC  C21618772   5.958   5.215  14.744 -0.4425  0.1849 -0.5038
  156DOPC  H16R18773   5.983   5.140  14.821 -1.6982  0.2664  0.0152
  156DOPC  H16S18774   6.016   5.179  14.657  0.5286  0.6266 -0.0599
  156DOPC  C21718775   5.807   5.227  14.725  0.1761 -0.2824  0.7893
  156DOPC  H17R18776   5.764   5.258  14.823  0.1962  0.7505  0.4842
  156DOPC  H17S18777   5.776   5.122  14.708  0.0313  0.2767 -3.1884
  156DOPC  C21818778   5.763   5.327  14.617  0.3516  0.0148 -0.0373
  156DOPC  H18R18779   5.799   5.426  14.653 -2.8761  1.2170  0.2272
  156DOPC  H18S18780   5.652   5.327  14.623  0.2168 -2.4497 -1.4468
  156DOPC  H18T18781   5.780   5.298  14.511 -1.4258 -4.2657  0.6261
  156DOPC   C3318782   6.128   5.575  15.631  0.2488 -0.9106  0.5951
  156DOPC   H3X18783   6.037   5.515  15.653  0.5609 -0.9176  1.9585
  156DOPC   H3Y18784   6.207   5.510  15.673 -0.2750 -1.3987  0.8424
  156DOPC   C3418785   6.171   5.586  15.485 -0.0373 -0.4868 -0.0998
  156DOPC   H4X18786   6.212   5.491  15.443  0.9512 -0.1466  0.0855
  156DOPC   H4Y18787   6.254   5.659  15.487 -0.1549 -0.3264 -0.6712
  156DOPC   C3518788   6.060   5.640  15.393 -0.0583  0.8713 -0.3999
  156DOPC   H5X18789   6.069   5.750  15.409  1.1050  0.4311  2.5527
  156DOPC   H5Y18790   5.964   5.598  15.428  0.0373  0.2934 -0.8212
  156DOPC   C3618791   6.093   5.601  15.249  0.2638 -0.0438 -0.4313
  156DOPC   H6X18792   6.200   5.624  15.231  1.1193 -1.9861  1.6565
  156DOPC   H6Y18793   6.093   5.490  15.239  1.2019 -0.3561  2.2418
  156DOPC   C3718794   5.993   5.664  15.150  0.0295  0.5747 -0.0183
  156DOPC   H7X18795   5.964   5.764  15.188  1.3763  0.8778  0.2748
  156DOPC   H7Y18796   6.034   5.684  15.049  1.4951 -1.1536  0.1723
  156DOPC   C3818797   5.860   5.578  15.136  0.2180  0.1354 -0.1967
  156DOPC   H8X18798   5.802   5.592  15.229  0.0240  2.5296 -0.5953
  156DOPC   H8Y18799   5.885   5.471  15.123  1.8301  0.5995 -1.3194
  156DOPC   C3918800   5.777   5.631  15.024 -0.0782 -0.0158 -0.8305
  156DOPC   H9X18801   5.823   5.633  14.923 -0.1813  0.1094 -0.8751
  156DOPC  C31018802   5.650   5.674  15.030 -0.3370 -0.0270  0.6826
  156DOPC  H10X18803   5.610   5.721  14.939  1.1598  0.6510  0.3400
  156DOPC  C31118804   5.552   5.686  15.146 -0.9059 -0.0785  0.8173
  156DOPC  H11X18805   5.587   5.618  15.226 -0.2041  0.1578  0.7158
  156DOPC  H11Y18806   5.453   5.660  15.104 -0.7047  3.2165 -2.1897
  156DOPC  C31218807   5.552   5.834  15.193 -0.1667  0.4313 -0.2800
  156DOPC  H12X18808   5.647   5.869  15.239 -1.6340  2.3874  1.4650
  156DOPC  H12Y18809   5.480   5.834  15.278 -0.7064  0.0089 -0.7288
  156DOPC  C31318810   5.506   5.944  15.093 -0.7714  0.0636  0.3228
  156DOPC  H13X18811   5.570   5.937  15.003  0.7636 -0.2114  1.3880
  156DOPC  H13Y18812   5.404   5.909  15.067  0.5635 -2.7406 -1.4995
  156DOPC  C31418813   5.506   6.081  15.157 -0.3939 -0.1339  0.3914
  156DOPC  H14X18814   5.445   6.086  15.250 -0.3305  1.0506  0.3790
  156DOPC  H14Y18815   5.610   6.110  15.179 -0.3851  0.3963 -0.3102
  156DOPC  C31518816   5.443   6.187  15.063  0.2748  0.8007 -0.3587
  156DOPC  H15X18817   5.334   6.172  15.055  0.1267  0.0364  2.2449
  156DOPC  H15Y18818   5.491   6.164  14.965  0.0363  0.1067 -0.3112
  156DOPC  C31618819   5.468   6.329  15.118 -0.5670 -0.4979  0.2376
  156DOPC  H16X18820   5.427   6.342  15.220  1.3290  0.7207  0.9105
  156DOPC  H16Y18821   5.578   6.345  15.126 -0.3999 -0.3469 -1.9202
  156DOPC  C31718822   5.406   6.440  15.026 -0.0703 -0.6742 -0.2115
  156DOPC  H17X18823   5.439   6.541  15.058 -0.8297 -0.2431 -0.7664
  156DOPC  H17Y18824   5.445   6.427  14.923 -0.6071  2.0806 -0.8373
  156DOPC  C31818825   5.251   6.437  15.014  0.4352  0.0682  0.4810
  156DOPC  H18X18826   5.229   6.529  14.957  1.1353  1.2503  2.0100
  156DOPC  H18Y18827   5.208   6.348  14.966  1.8101 -1.0494  1.2349
  156DOPC  H18Z18828   5.208   6.441  15.117 -0.3719  3.4298  0.1433
  157DOPC     N18829   5.642   1.788  16.712 -0.1311  0.2616  0.8786
  157DOPC   C1218830   5.628   1.881  16.590  0.1789  0.0424  0.0866
  157DOPC  H12A18831   5.597   1.979  16.625 -0.3717  0.2285 -0.8899
  157DOPC  H12B18832   5.548   1.859  16.522 -0.3944 -2.0470  1.3443
  157DOPC   C1318833   5.761   1.824  16.794  0.9982  0.3316  0.5209
  157DOPC  H13A18834   5.767   1.768  16.886  1.7759  0.6657  0.6774
  157DOPC  H13B18835   5.853   1.812  16.739  0.1388 -0.1964 -0.8648
  157DOPC  H13C18836   5.754   1.930  16.815  1.2939  0.9341 -2.0836
  157DOPC   C1418837   5.660   1.645  16.676 -0.1520 -0.3020  0.0518
  157DOPC  H14A18838   5.735   1.636  16.600  1.0238 -0.2318  1.1816
  157DOPC  H14B18839   5.694   1.587  16.760 -0.0071  0.3702  0.4622
  157DOPC  H14C18840   5.566   1.621  16.628  0.3687 -0.8899 -0.7013
  157DOPC   C1518841   5.524   1.793  16.806  1.5802  0.1850  0.1558
  157DOPC  H15A18842   5.531   1.731  16.895 -0.2992 -0.1762  0.0899
  157DOPC  H15B18843   5.435   1.760  16.755  1.4762 -2.3094  1.7576
  157DOPC  H15C18844   5.510   1.892  16.846  0.9620 -1.3198  4.0907
  157DOPC   C1118845   5.750   1.888  16.499 -0.3649 -0.0880  0.6382
  157DOPC  H11A18846   5.736   1.967  16.422  2.5773 -0.2724 -0.1970
  157DOPC  H11B18847   5.843   1.927  16.545 -0.4275  1.2757 -0.3032
  157DOPC     P18848   5.717   1.707  16.313  0.0682 -0.7974  0.1715
  157DOPC   O1318849   5.571   1.692  16.340  0.4207  0.3503  0.4216
  157DOPC   O1418850   5.790   1.582  16.277  0.2113 -0.2828  0.3094
  157DOPC   O1218851   5.788   1.762  16.441  0.1392 -0.1618 -0.8420
  157DOPC   O1118852   5.732   1.815  16.198 -0.0193  0.1816  0.6184
  157DOPC    C118853   5.860   1.864  16.164 -0.2978 -0.1562  0.2557
  157DOPC    HA18854   5.925   1.787  16.116  2.3105  2.7359 -1.2217
  157DOPC    HB18855   5.905   1.910  16.254  0.4153  1.9525 -1.1097
  157DOPC    C218856   5.856   1.980  16.075 -0.5381  0.0839 -0.3776
  157DOPC    HS18857   5.774   2.047  16.111 -0.1543  0.3961 -0.0704
  157DOPC   O2118858   5.835   1.921  15.945 -0.1508  0.2500 -0.1771
  157DOPC   C2118859   5.739   1.982  15.871 -0.1515 -0.0257 -0.6178
  157DOPC   O2218860   5.666   2.070  15.918 -0.2662  0.6529  0.7277
  157DOPC   C2218861   5.737   1.936  15.728 -0.3335 -0.3523  0.3462
  157DOPC   H2R18862   5.713   1.827  15.721 -2.0977  0.1330 -2.4407
  157DOPC   H2S18863   5.842   1.938  15.693 -0.8988  3.0698 -1.5708
  157DOPC    C318864   5.987   2.072  16.067 -0.9637  1.1256  0.1193
  157DOPC    HX18865   5.996   2.109  16.172  2.5027  3.2708 -0.7698
  157DOPC    HY18866   5.968   2.164  16.008 -0.7720  0.4716 -0.9958
  157DOPC   O3118867   6.105   2.003  16.018 -0.6658  0.0194  0.5357
  157DOPC   C3118868   6.185   1.931  16.100 -0.4016 -0.6552  0.5681
  157DOPC   O3218869   6.179   1.916  16.220  0.1353  0.3332 -0.0455
  157DOPC   C3218870   6.282   1.849  16.011  0.0661 -0.3463  0.0567
  157DOPC   H2X18871   6.315   1.902  15.919  2.6122 -3.3154 -0.9425
  157DOPC   H2Y18872   6.378   1.841  16.066  1.0694  1.5123 -1.3274
  157DOPC   C2318873   5.637   2.011  15.641 -0.0703  0.4356 -0.6605
  157DOPC   H3R18874   5.651   2.118  15.666 -0.4559  0.2849  0.2430
  157DOPC   H3S18875   5.536   1.984  15.679 -0.0259  1.3717  0.1473
  157DOPC   C2418876   5.658   1.992  15.489 -0.0251 -0.3859 -0.0549
  157DOPC   H4R18877   5.756   2.035  15.460 -0.3873  0.8986  0.5520
  157DOPC   H4S18878   5.570   2.048  15.452 -1.3320 -0.7317  2.2826
  157DOPC   C2518879   5.647   1.847  15.439 -0.0207  0.2061 -0.5424
  157DOPC   H5R18880   5.554   1.800  15.479 -0.4814 -0.4528 -2.2791
  157DOPC   H5S18881   5.735   1.792  15.478  1.7070  3.1623  0.0479
  157DOPC   C2618882   5.650   1.825  15.284  0.6422 -0.6553  0.5650
  157DOPC   H6R18883   5.724   1.884  15.227 -1.0311  0.9335 -0.0731
  157DOPC   H6S18884   5.551   1.859  15.245  2.0044 -0.0034 -2.6614
  157DOPC   C2718885   5.641   1.674  15.258 -0.7605  0.0596 -0.9376
  157DOPC   H7R18886   5.571   1.630  15.332 -1.3463 -1.7220 -2.4913
  157DOPC   H7S18887   5.736   1.630  15.296 -1.7667  1.0766  3.2629
  157DOPC   C2818888   5.614   1.643  15.112  0.2061  0.5278  0.1427
  157DOPC   H8R18889   5.510   1.675  15.092  0.5943  1.6069 -0.2267
  157DOPC   H8S18890   5.617   1.535  15.087  0.1460  0.7371 -0.8039
  157DOPC   C2918891   5.705   1.707  15.019  0.3320  0.2737  0.3296
  157DOPC   H9R18892   5.682   1.813  15.002  0.9822  0.6758  1.8524
  157DOPC  C21018893   5.814   1.650  14.971 -0.1170  0.2785  0.7659
  157DOPC  H10R18894   5.871   1.706  14.895 -0.8663  0.2881  0.1941
  157DOPC  C21118895   5.860   1.514  15.002  0.0400 -0.1259 -0.6896
  157DOPC  H11R18896   5.844   1.444  14.917 -0.9396  0.9936 -1.4713
  157DOPC  H11S18897   5.814   1.472  15.093 -1.8751  2.6996 -0.2187
  157DOPC  C21218898   6.016   1.509  15.033  0.6018  0.1113  0.6910
  157DOPC  H12R18899   6.051   1.413  15.078  0.4823  1.3239  3.5230
  157DOPC  H12S18900   6.040   1.589  15.106 -1.7059 -0.7259  2.4930
  157DOPC  C21318901   6.103   1.546  14.908  0.3886 -0.1866  0.4236
  157DOPC  H13R18902   6.213   1.550  14.917  0.4075  2.1046 -0.2484
  157DOPC  H13S18903   6.075   1.649  14.877 -0.5860  0.1531  2.2724
  157DOPC  C21418904   6.077   1.452  14.785  0.1336  0.3001 -0.0829
  157DOPC  H14R18905   6.157   1.487  14.716  2.8261  0.6490  2.9720
  157DOPC  H14S18906   5.972   1.460  14.750 -0.0011 -3.3693 -0.9808
  157DOPC  C21518907   6.092   1.303  14.820  0.2571  0.2438  0.2703
  157DOPC  H15R18908   5.995   1.268  14.862 -0.0093  2.1569  1.4098
  157DOPC  H15S18909   6.168   1.296  14.900  0.8755 -3.2169 -0.4823
  157DOPC  C21618910   6.147   1.222  14.707  0.7042  0.4361 -0.1833
  157DOPC  H16R18911   6.258   1.220  14.703  0.6859 -0.6849 -0.6045
  157DOPC  H16S18912   6.093   1.247  14.613  0.6984  0.5315 -0.1544
  157DOPC  C21718913   6.114   1.076  14.728 -0.0988  0.3003 -0.3259
  157DOPC  H17R18914   6.003   1.073  14.737  0.0280 -0.7172  1.2283
  157DOPC  H17S18915   6.154   1.043  14.826  2.8463  0.9388 -1.2394
  157DOPC  C21818916   6.173   0.977  14.634  0.4771  0.6921  0.4846
  157DOPC  H18R18917   6.132   0.876  14.655  2.4258 -0.1681  0.3412
  157DOPC  H18S18918   6.283   0.967  14.645  0.3695  1.8942  4.5517
  157DOPC  H18T18919   6.156   1.003  14.527  2.4277  1.0232  0.2158
  157DOPC   C3318920   6.242   1.706  15.970  0.0575  0.6467 -0.1849
  157DOPC   H3X18921   6.232   1.646  16.062 -1.3457  0.4340 -0.4612
  157DOPC   H3Y18922   6.322   1.655  15.912  0.9786 -1.4938  2.7468
  157DOPC   C3418923   6.110   1.695  15.892 -0.0942  0.5095  0.2754
  157DOPC   H4X18924   6.126   1.755  15.800  1.5044 -0.5582 -0.1855
  157DOPC   H4Y18925   6.026   1.734  15.953 -0.2317  0.2782  0.2334
  157DOPC   C3518926   6.077   1.549  15.859 -0.2673  0.1340 -0.7594
  157DOPC   H5X18927   6.078   1.485  15.950 -3.4288 -0.0951 -0.7561
  157DOPC   H5Y18928   6.151   1.518  15.783  1.2357 -0.0633  0.7357
  157DOPC   C3618929   5.928   1.528  15.811  0.1079 -0.1985  0.0014
  157DOPC   H6X18930   5.899   1.620  15.756  0.1379  0.0339  0.3727
  157DOPC   H6Y18931   5.941   1.451  15.732  2.3672 -0.8919  0.9658
  157DOPC   C3718932   5.824   1.501  15.924  0.2657  0.5259 -0.1304
  157DOPC   H7X18933   5.863   1.424  15.994 -0.1719 -1.6032 -2.0700
  157DOPC   H7Y18934   5.797   1.592  15.980 -0.2070  0.4054 -0.1576
  157DOPC   C3818935   5.687   1.439  15.873 -0.4427 -0.5212 -0.5199
  157DOPC   H8X18936   5.634   1.401  15.962  0.2581  0.1894  0.2202
  157DOPC   H8Y18937   5.722   1.348  15.820 -0.2851 -1.3061  0.8868
  157DOPC   C3918938   5.598   1.533  15.794 -0.3268  0.3064 -0.5989
  157DOPC   H9X18939   5.561   1.621  15.848  1.0052  2.0073 -2.3022
  157DOPC  C31018940   5.574   1.530  15.663  0.6329  0.1853 -0.1234
  157DOPC  H10X18941   5.495   1.598  15.630  0.3465 -0.6276 -1.1546
  157DOPC  C31118942   5.625   1.435  15.555 -0.2191  0.0532  0.0438
  157DOPC  H11X18943   5.694   1.355  15.588 -1.0147 -0.8936 -0.5095
  157DOPC  H11Y18944   5.700   1.489  15.493 -0.0436 -1.9104 -1.5326
  157DOPC  C31218945   5.505   1.397  15.466 -0.3773 -0.1138 -0.3448
  157DOPC  H12X18946   5.446   1.478  15.418 -0.1454 -0.0335 -0.5003
  157DOPC  H12Y18947   5.425   1.354  15.530  0.0068 -0.5682 -0.1568
  157DOPC  C31318948   5.546   1.297  15.355 -0.4787 -0.5775  0.1142
  157DOPC  H13X18949   5.627   1.348  15.299 -0.2546 -1.1285 -0.0705
  157DOPC  H13Y18950   5.594   1.207  15.400 -1.6540 -1.6682 -0.7461
  157DOPC  C31418951   5.443   1.242  15.257  0.4725 -0.3421 -0.3679
  157DOPC  H14X18952   5.340   1.245  15.299  0.0339  0.7776 -1.4449
  157DOPC  H14Y18953   5.435   1.321  15.179 -1.1102 -1.0781 -0.9961
  157DOPC  C31518954   5.465   1.108  15.185  0.1930 -0.2582 -0.7366
  157DOPC  H15X18955   5.378   1.089  15.119  0.6535 -1.7633 -0.9502
  157DOPC  H15Y18956   5.475   1.027  15.261  1.3560 -0.2982 -0.9118
  157DOPC  C31618957   5.590   1.098  15.100 -0.1557 -0.4446  0.4039
  157DOPC  H16X18958   5.680   1.138  15.151 -0.3892 -0.2871  0.6935
  157DOPC  H16Y18959   5.615   0.990  15.090 -1.9570 -0.8163 -0.6297
  157DOPC  C31718960   5.581   1.144  14.953  0.6233  0.2555  0.3712
  157DOPC  H17X18961   5.509   1.081  14.898  1.2905  0.6096 -0.9467
  157DOPC  H17Y18962   5.538   1.247  14.956  1.4167  0.6406 -0.9399
  157DOPC  C31818963   5.709   1.147  14.870  0.4559 -0.5096  0.2382
  157DOPC  H18X18964   5.765   1.051  14.862  1.7501 -0.0117  2.5478
  157DOPC  H18Y18965   5.694   1.192  14.769 -1.6875 -0.7470  0.3960
  157DOPC  H18Z18966   5.793   1.208  14.908  1.7692 -2.6177  0.8942
  158DOPC     N18967   2.922   0.538  16.427  0.5102 -0.4711 -0.0599
  158DOPC   C1218968   3.026   0.478  16.323 -0.1120 -0.0247  0.1762
  158DOPC  H12A18969   3.113   0.449  16.379  1.3180  1.4251 -1.1891
  158DOPC  H12B18970   3.056   0.552  16.251 -2.6528 -0.3994 -1.4167
  158DOPC   C1318971   2.789   0.557  16.363 -0.2293 -0.4068 -0.1881
  158DOPC  H13A18972   2.799   0.644  16.300 -0.5954  0.6409  1.1591
  158DOPC  H13B18973   2.763   0.471  16.303  3.2693 -0.7821 -1.3802
  158DOPC  H13C18974   2.715   0.585  16.437  0.8194  0.6729  0.4841
  158DOPC   C1418975   2.968   0.668  16.478 -0.2405 -0.2570  0.3327
  158DOPC  H14A18976   3.039   0.717  16.413 -1.2001  1.4935  0.5398
  158DOPC  H14B18977   2.892   0.742  16.497  2.4187  2.4928  1.0740
  158DOPC  H14C18978   3.008   0.656  16.578 -1.8817  1.6788  1.2971
  158DOPC   C1518979   2.895   0.437  16.530  0.3297 -0.2557 -0.8812
  158DOPC  H15A18980   2.975   0.427  16.601  0.1202  0.2372 -0.5723
  158DOPC  H15B18981   2.866   0.345  16.481  1.2905 -0.6320 -0.7710
  158DOPC  H15C18982   2.819   0.458  16.603  2.6752 -0.5691  1.8075
  158DOPC   C1118983   2.991   0.360  16.235 -0.0283  0.6238 -0.2529
  158DOPC  H11A18984   2.889   0.377  16.193 -0.0314  1.8904  0.2196
  158DOPC  H11B18985   3.068   0.351  16.156 -0.8079 -2.4466 -0.8038
  158DOPC     P18986   3.114   0.171  16.359 -0.2384 -0.0029  0.4409
  158DOPC   O1318987   3.085   0.043  16.423 -0.2570  0.0275  0.2888
  158DOPC   O1418988   3.200   0.266  16.433 -0.1225  0.0125  0.3828
  158DOPC   O1218989   2.980   0.238  16.306  0.3314 -0.4140 -0.7093
  158DOPC   O1118990   3.191   0.146  16.220 -0.6718 -0.0798  0.0288
  158DOPC    C118991   3.135   0.050  16.134  0.3814 -0.3183 -0.5668
  158DOPC    HA18992   3.029   0.073  16.111 -0.0891 -0.6914  1.0879
  158DOPC    HB18993   3.109  -0.048  16.181 -0.7620 -0.7130 -1.9408
  158DOPC    C218994   3.220   0.031  16.003  0.1828  0.4077  0.1071
  158DOPC    HS18995   3.327   0.043  16.029 -0.1434  3.6432  0.3932
  158DOPC   O2118996   3.189   0.141  15.913  0.2234 -0.5898  0.2333
  158DOPC   C2118997   3.288   0.190  15.836 -0.0510  0.9180  0.1293
  158DOPC   O2218998   3.410   0.165  15.849  0.6229  0.1166  0.6040
  158DOPC   C2218999   3.231   0.308  15.766 -0.6071  0.1117 -0.6116
  158DOPC   H2R19000   3.279   0.392  15.821 -2.5751  0.0632  1.3255
  158DOPC   H2S19001   3.120   0.317  15.776 -0.5785 -1.0975  1.1385
  158DOPC    C319002   3.201  -0.102  15.937 -0.1517  0.1539  0.7919
  158DOPC    HX19003   3.093  -0.116  15.913 -0.1813  1.1966  0.2805
  158DOPC    HY19004   3.241  -0.177  16.009 -1.5803  0.0297  1.4816
  158DOPC   O3119005   3.262  -0.102  15.805  0.0504  0.3482 -0.5609
  158DOPC   C3119006   3.303  -0.218  15.770  0.5422  0.4259 -0.0058
  158DOPC   O3219007   3.274  -0.319  15.829  0.2300 -0.4436 -0.3047
  158DOPC   C3219008   3.401  -0.202  15.655 -0.0107 -0.3781 -0.2508
  158DOPC   H2X19009   3.446  -0.101  15.663  0.3509 -0.6291  1.1616
  158DOPC   H2Y19010   3.478  -0.275  15.686  1.5901  0.6822 -1.5776
  158DOPC   C2319011   3.255   0.300  15.615 -0.1960  0.1878 -0.1902
  158DOPC   H3R19012   3.360   0.278  15.586  0.7307  2.7787  0.9377
  158DOPC   H3S19013   3.238   0.396  15.562 -0.0220 -1.2871 -3.1590
  158DOPC   C2419014   3.155   0.198  15.542 -0.5754  0.1460 -0.3651
  158DOPC   H4R19015   3.056   0.241  15.570  0.1941  1.3685  0.5914
  158DOPC   H4S19016   3.168   0.093  15.576  0.8220 -0.3945 -2.3908
  158DOPC   C2519017   3.161   0.178  15.387 -0.5062 -0.0264  0.2054
  158DOPC   H5R19018   3.265   0.145  15.364  0.4836  1.9306  1.5762
  158DOPC   H5S19019   3.153   0.279  15.340 -0.6381 -0.2070 -0.1638
  158DOPC   C2619020   3.046   0.089  15.329  0.0680  0.4572  0.3261
  158DOPC   H6R19021   2.955   0.150  15.346 -1.1076 -1.2168  0.2334
  158DOPC   H6S19022   3.047  -0.008  15.382 -2.8748 -1.5697 -2.9035
  158DOPC   C2719023   3.069   0.069  15.179  0.8160  0.4896 -0.0133
  158DOPC   H7R19024   3.171   0.027  15.168  1.9253  3.3586 -2.1922
  158DOPC   H7S19025   3.068   0.160  15.114  0.7916  1.5051  1.3558
  158DOPC   C2819026   2.961  -0.034  15.130  0.7280  0.4391  0.2236
  158DOPC   H8R19027   2.935  -0.116  15.199  1.9252  0.1985  0.4040
  158DOPC   H8S19028   2.989  -0.077  15.031  0.2460  3.2370 -1.2504
  158DOPC   C2919029   2.826   0.036  15.110  0.5039  0.1056 -0.0340
  158DOPC   H9R19030   2.777   0.068  15.203  1.3676  0.5519  0.2787
  158DOPC  C21019031   2.769   0.079  14.996  0.3194  0.7517  0.3374
  158DOPC  H10R19032   2.666   0.118  14.995 -0.5695 -1.4585  0.0682
  158DOPC  C21119033   2.822   0.071  14.857  0.0780  0.3442  0.4064
  158DOPC  H11R19034   2.734   0.047  14.792 -0.1289  0.7577  0.5292
  158DOPC  H11S19035   2.897  -0.010  14.846 -1.4229 -0.7870 -3.0623
  158DOPC  C21219036   2.897   0.199  14.806  0.2924 -0.4129  0.2198
  158DOPC  H12R19037   2.971   0.217  14.887  0.5463 -0.5199  0.0106
  158DOPC  H12S19038   2.819   0.279  14.809 -0.1759 -0.7959 -1.0095
  158DOPC  C21319039   2.957   0.175  14.668  0.3595 -0.1569  0.3438
  158DOPC  H13R19040   2.883   0.119  14.607  1.9399 -2.9742  0.8724
  158DOPC  H13S19041   3.049   0.118  14.693 -0.7692 -1.0012  2.8546
  158DOPC  C21419042   3.000   0.310  14.619 -0.2045  0.5162  0.8647
  158DOPC  H14R19043   3.071   0.355  14.692  1.6177  1.3899 -1.3039
  158DOPC  H14S19044   2.908   0.370  14.601 -2.0023 -1.3382  3.2226
  158DOPC  C21519045   3.070   0.295  14.480 -0.2827  0.0094  0.8082
  158DOPC  H15R19046   2.999   0.253  14.406 -0.3495 -0.3646  1.0809
  158DOPC  H15S19047   3.149   0.223  14.512  0.2206  0.5749  0.8576
  158DOPC  C21619048   3.142   0.426  14.429  0.1691  0.4381 -0.1895
  158DOPC  H16R19049   3.205   0.390  14.345  1.3215 -1.7882  1.5307
  158DOPC  H16S19050   3.215   0.451  14.509 -0.5545  0.5764  0.4483
  158DOPC  C21719051   3.037   0.535  14.403 -0.2997  0.4226  0.2360
  158DOPC  H17R19052   2.982   0.553  14.498 -0.3371 -1.4652  0.6134
  158DOPC  H17S19053   2.969   0.494  14.325 -0.4510  2.9189 -1.0562
  158DOPC  C21819054   3.094   0.666  14.340 -0.5241  0.3476 -0.6182
  158DOPC  H18R19055   3.017   0.712  14.274 -1.2271 -0.3914 -0.3304
  158DOPC  H18S19056   3.187   0.638  14.286 -0.0539  2.2500 -0.8552
  158DOPC  H18T19057   3.130   0.728  14.424  2.8575 -1.5081 -0.5378
  158DOPC   C3319058   3.361  -0.236  15.517 -0.3396 -0.4066  0.4161
  158DOPC   H3X19059   3.416  -0.176  15.442  1.0203 -2.0891  0.0088
  158DOPC   H3Y19060   3.262  -0.187  15.502  0.4437  0.5801 -1.9085
  158DOPC   C3419061   3.376  -0.384  15.477  1.1311  0.4314  0.1049
  158DOPC   H4X19062   3.318  -0.438  15.556  1.0217  1.6525  0.8828
  158DOPC   H4Y19063   3.484  -0.407  15.472  1.2336  1.0618 -3.9210
  158DOPC   C3519064   3.312  -0.406  15.335  0.5915 -0.3435 -0.1066
  158DOPC   H5X19065   3.347  -0.502  15.292  2.0605  0.3942 -0.6020
  158DOPC   H5Y19066   3.348  -0.326  15.266 -0.6061 -1.1124 -1.6977
  158DOPC   C3619067   3.160  -0.408  15.354 -0.9076 -0.6117 -0.0288
  158DOPC   H6X19068   3.135  -0.496  15.416  1.2188  0.8393  3.1670
  158DOPC   H6Y19069   3.134  -0.318  15.413 -1.3796 -0.4655 -0.4519
  158DOPC   C3719070   3.078  -0.399  15.222  0.1889 -0.0893  0.2185
  158DOPC   H7X19071   2.971  -0.423  15.242 -0.6499  2.4241 -0.8305
  158DOPC   H7Y19072   3.087  -0.294  15.187 -0.9487 -0.0234  0.0805
  158DOPC   C3819073   3.125  -0.495  15.106  0.2941 -0.5738  0.2337
  158DOPC   H8X19074   3.232  -0.481  15.079  0.5310 -1.4843  0.6606
  158DOPC   H8Y19075   3.049  -0.454  15.036 -2.0990  1.4117  3.6744
  158DOPC   C3919076   3.108  -0.638  15.148  0.8148  0.1264 -0.8430
  158DOPC   H9X19077   3.139  -0.669  15.249  1.1632 -0.8097 -1.2304
  158DOPC  C31019078   3.083  -0.733  15.063 -0.4395  0.1393  0.8546
  158DOPC  H10X19079   3.068  -0.835  15.101 -1.2509  0.4498  1.3857
  158DOPC  C31119080   3.062  -0.721  14.913 -0.0611  0.0253 -0.0502
  158DOPC  H11X19081   3.111  -0.808  14.864 -1.1130 -0.5131 -0.1856
  158DOPC  H11Y19082   3.095  -0.623  14.872 -0.3005 -0.1483 -0.6608
  158DOPC  C31219083   2.912  -0.723  14.885  0.0481  0.0455 -0.4068
  158DOPC  H12X19084   2.866  -0.626  14.916  0.0907  0.8438 -2.6623
  158DOPC  H12Y19085   2.851  -0.796  14.943 -2.6169  0.3983 -2.5387
  158DOPC  C31319086   2.880  -0.742  14.740 -0.3740 -0.5478  0.1811
  158DOPC  H13X19087   2.932  -0.668  14.676 -0.1694 -0.3220  0.6074
  158DOPC  H13Y19088   2.906  -0.849  14.724 -1.8124 -0.6674 -1.6591
  158DOPC  C31419089   2.727  -0.711  14.709 -0.5545 -1.2116 -0.0527
  158DOPC  H14X19090   2.707  -0.615  14.762  1.1528 -3.3391  5.1079
  158DOPC  H14Y19091   2.712  -0.707  14.599 -0.7910 -2.7498 -0.1035
  158DOPC  C31519092   2.640  -0.824  14.757 -0.3459 -0.0771 -0.1207
  158DOPC  H15X19093   2.596  -0.798  14.856  0.1799 -0.6679  0.2778
  158DOPC  H15Y19094   2.703  -0.915  14.765 -1.2189 -0.6285  0.7391
  158DOPC  C31619095   2.532  -0.852  14.652 -0.5988 -0.7628  0.3671
  158DOPC  H16X19096   2.582  -0.863  14.554 -2.7892  1.6736 -1.1599
  158DOPC  H16Y19097   2.499  -0.955  14.678  0.4266 -1.2550 -0.2422
  158DOPC  C31719098   2.429  -0.739  14.656 -0.1967  0.2897 -0.2371
  158DOPC  H17X19099   2.365  -0.738  14.747  0.0571  3.1542  0.0226
  158DOPC  H17Y19100   2.484  -0.642  14.646  0.3404  0.0087 -0.0556
  158DOPC  C31819101   2.327  -0.753  14.537 -0.0961  0.5192 -0.0500
  158DOPC  H18X19102   2.267  -0.845  14.546 -0.1629  0.7617  2.9794
  158DOPC  H18Y19103   2.261  -0.663  14.540  0.5341  1.0100 -0.4621
  158DOPC  H18Z19104   2.375  -0.752  14.436 -2.1126  0.0451 -1.0662
  159DOPC     N19105   7.069   2.231  16.238  0.3828  0.2224  0.1002
  159DOPC   C1219106   6.932   2.183  16.289 -0.5867  0.0887  0.0287
  159DOPC  H12A19107   6.946   2.103  16.361 -1.7775  0.0817  0.2682
  159DOPC  H12B19108   6.871   2.138  16.213 -0.4946  2.2149 -1.3931
  159DOPC   C1319109   7.049   2.336  16.129 -0.6048  0.0038  0.7238
  159DOPC  H13A19110   6.990   2.298  16.047 -0.4499  0.7167  0.2691
  159DOPC  H13B19111   7.000   2.422  16.173 -0.9705  0.0319  0.2760
  159DOPC  H13C19112   7.146   2.352  16.083  0.1548 -0.1467  2.2188
  159DOPC   C1419113   7.142   2.108  16.187  0.4775 -0.0773 -0.1012
  159DOPC  H14A19114   7.153   2.036  16.266  0.8060  1.5011  1.3522
  159DOPC  H14B19115   7.083   2.060  16.111 -0.4620 -0.9059  1.1155
  159DOPC  H14C19116   7.237   2.133  16.141 -0.4162  1.6228 -1.1533
  159DOPC   C1519117   7.149   2.303  16.346 -0.4028  0.1308  0.6487
  159DOPC  H15A19118   7.106   2.401  16.360  0.4699  1.0639 -2.4345
  159DOPC  H15B19119   7.254   2.312  16.322 -0.4199  1.3060  0.9676
  159DOPC  H15C19120   7.154   2.240  16.434 -0.6100  0.1292  0.6619
  159DOPC   C1119121   6.848   2.295  16.366  0.1794 -0.0216 -0.2268
  159DOPC  H11A19122   6.908   2.294  16.460 -1.9851  0.8376  1.2436
  159DOPC  H11B19123   6.847   2.394  16.316 -0.5082  0.8079  1.3767
  159DOPC     P19124   6.592   2.307  16.335  0.2960  0.3820 -0.0813
  159DOPC   O1319125   6.571   2.416  16.429  0.3495  0.0492 -0.0190
  159DOPC   O1419126   6.483   2.207  16.320 -0.0365 -0.0134 -0.0027
  159DOPC   O1219127   6.724   2.235  16.391 -0.1411 -0.2552 -0.0850
  159DOPC   O1119128   6.625   2.363  16.183  0.2192  0.3873 -0.1370
  159DOPC    C119129   6.661   2.267  16.078  0.0018 -0.3428 -0.1017
  159DOPC    HA19130   6.666   2.163  16.115 -1.7154 -0.1338  0.8190
  159DOPC    HB19131   6.760   2.299  16.040  0.8168 -1.4164  1.0674
  159DOPC    C219132   6.551   2.258  15.974 -0.0425 -0.3224 -0.3732
  159DOPC    HS19133   6.582   2.180  15.902  1.4445  0.3682 -0.5132
  159DOPC   O2119134   6.543   2.387  15.911  0.4719 -0.7439 -0.4062
  159DOPC   C2119135   6.639   2.416  15.818  0.6172  0.7739 -1.0301
  159DOPC   O2219136   6.726   2.339  15.788 -0.0745  0.2486  0.0256
  159DOPC   C2219137   6.616   2.555  15.759 -0.2211  0.5824  0.5977
  159DOPC   H2R19138   6.644   2.622  15.843 -1.0047  0.7645  0.7215
  159DOPC   H2S19139   6.512   2.565  15.721 -0.5261 -1.5713  0.7488
  159DOPC    C319140   6.410   2.221  16.025  0.6115 -0.1131  0.1289
  159DOPC    HX19141   6.363   2.307  16.076  1.1086 -0.9743  2.1164
  159DOPC    HY19142   6.422   2.138  16.097 -0.9538 -0.5458 -0.0747
  159DOPC   O3119143   6.328   2.160  15.920 -0.5778 -0.0231 -0.0078
  159DOPC   C3119144   6.251   2.249  15.862  0.2032 -0.8896 -0.4818
  159DOPC   O3219145   6.234   2.369  15.893 -0.2991 -0.0973  0.1908
  159DOPC   C3219146   6.185   2.181  15.743 -0.2237  0.3894  0.7128
  159DOPC   H2X19147   6.270   2.151  15.677  0.5903  0.1740  1.8252
  159DOPC   H2Y19148   6.145   2.086  15.785  1.1784 -0.6372 -0.1790
  159DOPC   C2319149   6.701   2.577  15.632  0.5111 -0.7364 -0.3597
  159DOPC   H3R19150   6.806   2.545  15.651  1.5746  1.2880 -2.2929
  159DOPC   H3S19151   6.708   2.686  15.608  2.1052 -1.1831 -2.1839
  159DOPC   C2419152   6.655   2.509  15.510  0.3188  0.1892  0.2479
  159DOPC   H4R19153   6.637   2.400  15.523  0.4130  0.0931 -0.3813
  159DOPC   H4S19154   6.740   2.510  15.438  0.4054 -2.8812  0.1850
  159DOPC   C2519155   6.523   2.570  15.452 -1.3165  0.3617  0.3349
  159DOPC   H5R19156   6.532   2.681  15.450  2.3633  0.1922 -1.2794
  159DOPC   H5S19157   6.443   2.543  15.524 -0.8444  0.4517  0.9041
  159DOPC   C2619158   6.477   2.531  15.318 -0.0954  0.1757 -0.3179
  159DOPC   H6R19159   6.556   2.560  15.246  0.4614  0.4384  0.3869
  159DOPC   H6S19160   6.379   2.577  15.295 -0.6137 -0.5895  0.2671
  159DOPC   C2719161   6.466   2.381  15.296  0.0292 -0.0863 -0.1181
  159DOPC   H7R19162   6.560   2.326  15.314 -1.4381 -2.4345  0.7525
  159DOPC   H7S19163   6.444   2.357  15.189 -0.4351 -0.3592  0.0362
  159DOPC   C2819164   6.353   2.314  15.375  0.1294  0.2838 -0.5123
  159DOPC   H8R19165   6.272   2.308  15.299  0.6775 -1.0575 -1.0205
  159DOPC   H8S19166   6.324   2.379  15.461 -0.3856 -1.1159  0.4104
  159DOPC   C2919167   6.368   2.170  15.400 -0.3142  0.6331 -0.0639
  159DOPC   H9R19168   6.411   2.139  15.496 -0.6559  0.4381  0.0275
  159DOPC  C21019169   6.342   2.074  15.312 -0.3470 -0.1138  0.9481
  159DOPC  H10R19170   6.349   1.967  15.334  0.0245 -0.9281 -2.6093
  159DOPC  C21119171   6.297   2.098  15.171  1.1372 -0.0088 -0.1619
  159DOPC  H11R19172   6.359   2.038  15.101  1.4937  1.2567 -0.9514
  159DOPC  H11S19173   6.296   2.203  15.137  0.4342  0.9853  2.6610
  159DOPC  C21219174   6.151   2.047  15.152 -0.1927  0.4113 -0.0483
  159DOPC  H12R19175   6.091   2.099  15.229 -0.5770 -0.6154  0.3728
  159DOPC  H12S19176   6.144   1.942  15.188 -0.1835  0.9708  1.6862
  159DOPC  C21319177   6.092   2.060  15.006 -0.2349  0.5359 -0.6133
  159DOPC  H13R19178   6.160   2.006  14.937 -1.9499 -0.3747 -1.6542
  159DOPC  H13S19179   6.082   2.169  14.988  0.2554  0.8239  0.7147
  159DOPC  C21419180   5.956   1.987  15.001 -0.2400  0.3069 -0.6682
  159DOPC  H14R19181   5.903   2.007  15.096  0.7825 -0.7051  0.1510
  159DOPC  H14S19182   5.964   1.876  15.004 -1.6938  0.1212 -2.3145
  159DOPC  C21519183   5.879   2.026  14.878  0.3935  0.3897  0.1865
  159DOPC  H15R19184   5.859   2.134  14.890 -1.1742  0.2228 -0.6398
  159DOPC  H15S19185   5.784   1.969  14.864 -0.2198  1.3709  0.2470
  159DOPC  C21619186   5.940   2.019  14.739 -0.5612  0.9144 -0.8694
  159DOPC  H16R19187   6.035   2.077  14.750 -1.0093  1.1436  3.1300
  159DOPC  H16S19188   5.873   2.072  14.668 -1.3944  0.8988 -0.1072
  159DOPC  C21719189   5.975   1.881  14.674 -0.4198 -0.2334 -0.0324
  159DOPC  H17R19190   5.885   1.842  14.622 -0.2775  0.9542 -1.2392
  159DOPC  H17S19191   6.011   1.800  14.740  1.7832 -0.3186 -1.2701
  159DOPC  C21819192   6.087   1.905  14.573  0.2641 -0.2181  0.5388
  159DOPC  H18R19193   6.184   1.931  14.621  0.9674 -2.2407  0.3290
  159DOPC  H18S19194   6.058   1.988  14.505 -0.5061  1.9724  3.3350
  159DOPC  H18T19195   6.096   1.821  14.501  1.5068  0.9729 -0.7802
  159DOPC   C3319196   6.079   2.271  15.679 -0.0303 -0.1812  0.1749
  159DOPC   H3X19197   6.132   2.361  15.642  0.8022  0.1130  2.0008
  159DOPC   H3Y19198   6.005   2.297  15.758  0.2426 -2.5405  1.2891
  159DOPC   C3419199   6.003   2.187  15.573  0.2437 -0.2184  0.0517
  159DOPC   H4X19200   5.947   2.102  15.618  0.7169 -1.2508 -1.2313
  159DOPC   H4Y19201   6.079   2.138  15.509  1.2838 -0.1161  1.1776
  159DOPC   C3519202   5.917   2.273  15.480 -0.1361 -0.0035 -0.0920
  159DOPC   H5X19203   5.831   2.324  15.528 -1.4339 -1.4786 -0.7773
  159DOPC   H5Y19204   5.867   2.207  15.406 -0.5236  0.3507 -0.1488
  159DOPC   C3619205   5.998   2.380  15.409 -0.0239  0.4158 -0.8514
  159DOPC   H6X19206   6.036   2.460  15.476  0.7048 -1.3086  0.9209
  159DOPC   H6Y19207   6.088   2.322  15.378  0.3850  0.4612  0.1755
  159DOPC   C3719208   5.917   2.452  15.299  0.0884  0.4208 -0.2439
  159DOPC   H7X19209   5.865   2.373  15.240  2.5234 -2.0475  0.7277
  159DOPC   H7Y19210   5.842   2.509  15.358 -2.5236 -0.7203 -2.2539
  159DOPC   C3819211   5.998   2.548  15.213 -0.2651  0.4084  0.2879
  159DOPC   H8X19212   6.076   2.605  15.268 -0.8733  1.9338 -0.3720
  159DOPC   H8Y19213   5.931   2.632  15.185 -0.0628  0.8907  1.2074
  159DOPC   C3919214   6.063   2.484  15.098 -0.3204 -0.2310 -0.6683
  159DOPC   H9X19215   6.158   2.433  15.119  0.0194  1.4589  2.5587
  159DOPC  C31019216   6.016   2.478  14.975  0.0657 -1.2591 -0.2213
  159DOPC  H10X19217   6.076   2.435  14.894 -0.1136  0.9710 -1.6127
  159DOPC  C31119218   5.886   2.537  14.929  0.4622 -0.9775 -0.7274
  159DOPC  H11X19219   5.826   2.580  15.012 -0.2499 -4.0267  0.5037
  159DOPC  H11Y19220   5.824   2.459  14.878  1.6235 -0.3821 -3.1984
  159DOPC  C31219221   5.917   2.651  14.832  0.2121 -0.2466 -0.2239
  159DOPC  H12X19222   5.969   2.603  14.747 -0.0248  0.7484 -0.9417
  159DOPC  H12Y19223   5.987   2.719  14.884  0.0689  0.4158 -0.8839
  159DOPC  C31319224   5.787   2.722  14.802 -0.2292  0.5640 -0.7506
  159DOPC  H13X19225   5.713   2.646  14.769  3.5134 -3.0527 -1.5934
  159DOPC  H13Y19226   5.739   2.767  14.892  0.7249  0.6254 -0.2629
  159DOPC  C31419227   5.804   2.827  14.694  0.2953  0.0037 -0.3576
  159DOPC  H14X19228   5.712   2.888  14.705  0.7742  0.4820  1.1901
  159DOPC  H14Y19229   5.880   2.901  14.726  0.1748 -0.7531  1.8152
  159DOPC  C31519230   5.822   2.780  14.545 -0.3251 -0.9517  0.0260
  159DOPC  H15X19231   5.921   2.729  14.540  0.9911  0.9291  3.4054
  159DOPC  H15Y19232   5.828   2.864  14.472 -0.0575 -1.9403 -1.1256
  159DOPC  C31619233   5.707   2.697  14.475  0.7890 -0.5651 -0.4784
  159DOPC  H16X19234   5.725   2.588  14.483 -3.0037 -1.3628 -0.8506
  159DOPC  H16Y19235   5.610   2.714  14.528  0.6158  0.8187 -1.1770
  159DOPC  C31719236   5.672   2.723  14.331 -0.2797 -0.1627  0.2929
  159DOPC  H17X19237   5.579   2.666  14.310 -0.1411 -0.9102  1.6011
  159DOPC  H17Y19238   5.652   2.832  14.332 -0.0104 -0.0869 -1.1996
  159DOPC  C31819239   5.772   2.683  14.224  0.4509  0.0116  0.7608
  159DOPC  H18X19240   5.851   2.762  14.227 -0.4536  0.9754 -0.2450
  159DOPC  H18Y19241   5.821   2.586  14.245 -0.1375 -0.1567  1.3808
  159DOPC  H18Z19242   5.727   2.683  14.123  0.6987 -0.1995  0.6487
  160DOPC     N19243   2.045   6.525  16.431 -0.6138 -0.2839 -0.4337
  160DOPC   C1219244   2.173   6.445  16.414  0.0154 -0.2805  0.8449
  160DOPC  H12A19245   2.153   6.352  16.465 -1.5461 -0.8104 -0.6495
  160DOPC  H12B19246   2.258   6.499  16.452 -0.3337 -1.1146  2.9823
  160DOPC   C1319247   2.016   6.549  16.580  0.5079  0.8624 -0.2161
  160DOPC  H13A19248   2.018   6.452  16.628  1.7273  1.2442  0.5323
  160DOPC  H13B19249   2.095   6.612  16.619  1.1954  1.2180 -2.0478
  160DOPC  H13C19250   1.919   6.593  16.592 -0.0956 -0.4310 -0.1706
  160DOPC   C1419251   1.921   6.448  16.387  0.0379 -0.1598 -0.2775
  160DOPC  H14A19252   1.829   6.504  16.393 -0.4407 -1.0614  1.1992
  160DOPC  H14B19253   1.930   6.410  16.286 -3.4874 -0.8162 -0.4750
  160DOPC  H14C19254   1.924   6.360  16.448  2.0212  2.1268  3.2611
  160DOPC   C1519255   2.055   6.662  16.370 -0.6162  0.3238  0.0994
  160DOPC  H15A19256   2.065   6.655  16.262 -2.0520  2.2139 -0.2089
  160DOPC  H15B19257   2.139   6.719  16.407  1.2735 -0.8409 -2.1646
  160DOPC  H15C19258   1.966   6.718  16.395 -1.2024 -2.0173  4.0956
  160DOPC   C1119259   2.202   6.403  16.270 -0.1192  0.4351  0.4182
  160DOPC  H11A19260   2.300   6.352  16.283  0.3268  1.1620 -0.0150
  160DOPC  H11B19261   2.124   6.332  16.237  0.4258  0.1318 -0.2320
  160DOPC     P19262   2.343   6.590  16.145  0.2911 -0.3169 -0.3668
  160DOPC   O1319263   2.357   6.572  16.002 -0.1199 -0.0693 -0.4119
  160DOPC   O1419264   2.457   6.555  16.235  0.5726 -0.2011 -0.5877
  160DOPC   O1219265   2.214   6.506  16.176 -0.0422  0.4346  0.2776
  160DOPC   O1119266   2.306   6.736  16.173  0.2514 -0.4429  0.2768
  160DOPC    C119267   2.195   6.810  16.116 -0.9284  0.1674 -0.0212
  160DOPC    HA19268   2.142   6.853  16.204  0.1379 -1.8779  1.7470
  160DOPC    HB19269   2.117   6.751  16.064 -1.4628  0.1001  0.8269
  160DOPC    C219270   2.252   6.922  16.025  0.0614  0.4889 -0.2924
  160DOPC    HS19271   2.173   6.993  15.994  1.2689  2.2756  0.5790
  160DOPC   O2119272   2.310   6.868  15.907 -0.0630 -0.0046 -0.0090
  160DOPC   C2119273   2.213   6.820  15.826 -0.1467 -0.0441  0.2184
  160DOPC   O2219274   2.095   6.841  15.833 -0.3549 -0.1233 -0.7555
  160DOPC   C2219275   2.282   6.746  15.714 -0.7851  0.1066  0.0106
  160DOPC   H2R19276   2.343   6.664  15.758 -0.2156  1.2049  1.3501
  160DOPC   H2S19277   2.358   6.814  15.670  1.2305 -1.3763  1.0286
  160DOPC    C319278   2.360   7.000  16.103 -0.2379  0.1119 -0.6071
  160DOPC    HX19279   2.445   6.935  16.132  1.1036  2.0640  0.0662
  160DOPC    HY19280   2.313   7.035  16.197 -1.1833  1.6732 -1.6229
  160DOPC   O3119281   2.421   7.112  16.031 -0.2850  0.2448  0.1556
  160DOPC   C3119282   2.346   7.217  16.005 -0.2459  0.9280  0.2520
  160DOPC   O3219283   2.230   7.228  16.054 -0.2925 -0.5710  0.4801
  160DOPC   C3219284   2.412   7.324  15.919 -0.0947 -0.0519 -0.0248
  160DOPC   H2X19285   2.426   7.413  15.984 -0.8478 -0.3164  0.5150
  160DOPC   H2Y19286   2.509   7.286  15.879 -0.2613  0.0891 -0.5675
  160DOPC   C2319287   2.186   6.702  15.606  0.5359 -0.2465  0.7517
  160DOPC   H3R19288   2.122   6.784  15.566  3.5489  0.5956 -2.8372
  160DOPC   H3S19289   2.123   6.623  15.652  0.1416  0.3334  1.2323
  160DOPC   C2419290   2.256   6.653  15.476  0.6768 -0.2023 -0.0709
  160DOPC   H4R19291   2.358   6.617  15.500  0.7881  0.9464  1.3195
  160DOPC   H4S19292   2.285   6.740  15.414  1.4033  0.6980  1.4745
  160DOPC   C2519293   2.172   6.554  15.393 -0.0042 -0.8038 -0.1145
  160DOPC   H5R19294   2.071   6.600  15.385  0.1434  0.0824  2.2567
  160DOPC   H5S19295   2.163   6.456  15.444 -0.4580 -1.5352 -1.5544
  160DOPC   C2619296   2.235   6.529  15.249  0.3711  0.6150 -0.3627
  160DOPC   H6R19297   2.342   6.512  15.273  0.9874  1.0628 -2.6034
  160DOPC   H6S19298   2.226   6.628  15.198 -0.3062  1.5466  1.4521
  160DOPC   C2719299   2.164   6.423  15.167  0.0596 -0.4277 -0.3221
  160DOPC   H7R19300   2.180   6.430  15.057 -0.0283 -1.1191 -0.3815
  160DOPC   H7S19301   2.054   6.435  15.177  0.2886  2.6540 -0.5315
  160DOPC   C2819302   2.204   6.279  15.191  0.3673  0.0314  0.9263
  160DOPC   H8R19303   2.124   6.215  15.149 -0.3968 -0.2210  2.6717
  160DOPC   H8S19304   2.199   6.251  15.299 -0.6054 -1.4969  0.5161
  160DOPC   C2919305   2.349   6.235  15.155  0.8318 -0.2272  0.4664
  160DOPC   H9R19306   2.420   6.225  15.238  2.0924 -0.8168 -0.6505
  160DOPC  C21019307   2.383   6.201  15.032  0.2167 -0.3310  0.4175
  160DOPC  H10R19308   2.476   6.141  15.026  0.8465  0.7823 -3.3118
  160DOPC  C21119309   2.304   6.187  14.907  0.1276 -0.0627  0.2228
  160DOPC  H11R19310   2.197   6.214  14.921  0.1971  0.9817 -0.9938
  160DOPC  H11S19311   2.308   6.081  14.874 -2.6308 -0.5816  1.2560
  160DOPC  C21219312   2.371   6.270  14.796  1.1660  0.7708  0.7777
  160DOPC  H12R19313   2.481   6.266  14.783  0.9346  1.6462 -2.0236
  160DOPC  H12S19314   2.349   6.376  14.821  0.2091  1.0119 -0.9434
  160DOPC  C21319315   2.309   6.228  14.662 -0.1990 -0.4604  0.1416
  160DOPC  H13R19316   2.201   6.213  14.679 -0.2063  0.7790  1.3251
  160DOPC  H13S19317   2.345   6.125  14.641  1.1003  0.0862 -0.4284
  160DOPC  C21419318   2.344   6.324  14.549  0.7490 -0.6199 -0.0379
  160DOPC  H14R19319   2.446   6.367  14.563 -0.6319  2.9966  0.1051
  160DOPC  H14S19320   2.285   6.417  14.566  1.2526 -0.7701  3.0121
  160DOPC  C21519321   2.324   6.267  14.407  0.5459 -0.9146 -0.6943
  160DOPC  H15R19322   2.226   6.214  14.407 -0.3291  0.6237  0.1487
  160DOPC  H15S19323   2.407   6.198  14.382  3.4422  2.2490 -0.5599
  160DOPC  C21619324   2.322   6.369  14.292  0.7557  0.2453 -0.3405
  160DOPC  H16R19325   2.230   6.432  14.287  0.9243  0.4463 -1.0984
  160DOPC  H16S19326   2.315   6.303  14.203 -0.3752 -0.5814  0.3335
  160DOPC  C21719327   2.452   6.452  14.276  0.0474 -0.3930  0.2018
  160DOPC  H17R19328   2.547   6.395  14.269  0.4743  0.2357  0.7862
  160DOPC  H17S19329   2.470   6.501  14.373 -0.6908 -0.0710  0.1800
  160DOPC  C21819330   2.456   6.552  14.159  0.3080  0.2478  0.5432
  160DOPC  H18R19331   2.457   6.497  14.063  0.7377 -1.2824  1.3944
  160DOPC  H18S19332   2.549   6.613  14.159  0.0371  0.7123 -1.0912
  160DOPC  H18T19333   2.380   6.633  14.162  0.9750  0.8722  1.0305
  160DOPC   C3319334   2.330   7.344  15.793 -0.0098 -0.5270  0.4174
  160DOPC   H3X19335   2.387   7.400  15.715 -1.2271 -0.6214 -0.5709
  160DOPC   H3Y19336   2.234   7.397  15.809  0.3564  1.7759 -3.7510
  160DOPC   C3419337   2.293   7.219  15.718 -0.2244  0.4122  0.3208
  160DOPC   H4X19338   2.205   7.168  15.765  0.1106  0.7790  1.3744
  160DOPC   H4Y19339   2.379   7.150  15.711 -0.9591 -0.4472 -0.5620
  160DOPC   C3519340   2.244   7.250  15.575 -0.1520  0.3777  0.4637
  160DOPC   H5X19341   2.307   7.326  15.523  2.4332 -2.9836 -1.6814
  160DOPC   H5Y19342   2.139   7.286  15.572 -0.0534  0.6382 -0.2119
  160DOPC   C3619343   2.245   7.124  15.486  0.2297  0.0924 -0.5985
  160DOPC   H6X19344   2.347   7.106  15.446  0.3257 -3.8873  0.9552
  160DOPC   H6Y19345   2.224   7.031  15.543 -0.6121  0.9698  0.5915
  160DOPC   C3719346   2.148   7.130  15.369 -0.4286 -0.5285  0.4702
  160DOPC   H7X19347   2.045   7.117  15.410 -1.2833 -0.3286 -1.5048
  160DOPC   H7Y19348   2.146   7.228  15.317  1.0005  0.2624  1.8374
  160DOPC   C3819349   2.187   7.021  15.267 -0.3796  0.0196  0.1883
  160DOPC   H8X19350   2.188   6.919  15.312 -2.0033 -0.7708 -1.4355
  160DOPC   H8Y19351   2.289   7.040  15.228 -0.2534  0.9335  0.9161
  160DOPC   C3919352   2.077   7.010  15.164 -0.3706  0.2024 -0.4435
  160DOPC   H9X19353   1.990   6.954  15.199 -0.8915  2.4713  2.2365
  160DOPC  C31019354   2.076   7.086  15.050  0.4512  0.0900  0.6000
  160DOPC  H10X19355   1.987   7.082  14.986  0.8504  0.7831 -0.0128
  160DOPC  C31119356   2.174   7.188  15.004  0.2717 -0.6944  0.5152
  160DOPC  H11X19357   2.234   7.212  15.094 -0.5344 -0.7182  1.0764
  160DOPC  H11Y19358   2.128   7.285  14.976  2.1466  0.9422  2.6910
  160DOPC  C31219359   2.252   7.149  14.875 -0.4939  0.2683  0.8325
  160DOPC  H12X19360   2.313   7.056  14.886 -1.7742 -0.7932 -0.6977
  160DOPC  H12Y19361   2.326   7.231  14.863 -2.5791  2.1807  0.6178
  160DOPC  C31319362   2.170   7.148  14.747  0.3541 -0.0582 -0.1378
  160DOPC  H13X19363   2.096   7.067  14.759 -2.2462  2.1174 -0.5402
  160DOPC  H13Y19364   2.105   7.237  14.731 -0.5737 -0.8860 -1.0228
  160DOPC  C31419365   2.251   7.127  14.624 -0.6874 -0.5715 -1.0776
  160DOPC  H14X19366   2.319   7.210  14.595  1.4541 -2.9798 -3.3769
  160DOPC  H14Y19367   2.326   7.049  14.647 -2.4288 -2.0265 -0.0028
  160DOPC  C31519368   2.175   7.082  14.495 -0.2272 -0.0016 -0.3140
  160DOPC  H15X19369   2.103   7.164  14.476 -1.4561 -0.7746  0.8011
  160DOPC  H15Y19370   2.112   6.994  14.520 -1.5723 -0.4317 -4.4184
  160DOPC  C31619371   2.253   7.049  14.370 -0.0925  0.5592 -0.8926
  160DOPC  H16X19372   2.311   7.128  14.317  0.8199  0.8233  0.4517
  160DOPC  H16Y19373   2.330   6.975  14.399 -1.3783 -0.1586  0.9122
  160DOPC  C31719374   2.167   7.001  14.251  0.1326 -0.5561 -1.2071
  160DOPC  H17X19375   2.236   6.971  14.169  1.0435  2.1968 -1.5597
  160DOPC  H17Y19376   2.102   6.916  14.281 -2.0419  1.1837 -0.6733
  160DOPC  C31819377   2.071   7.102  14.192  0.2584  0.1398 -0.1521
  160DOPC  H18X19378   1.990   7.147  14.255 -0.7331 -0.1307 -1.1872
  160DOPC  H18Y19379   2.135   7.184  14.153 -1.3394  2.0170  0.9697
  160DOPC  H18Z19380   2.021   7.045  14.110  1.2862  0.2387 -0.8585
  161DOPC     N19381   3.716   0.426  16.661  0.2980 -0.0885 -0.2147
  161DOPC   C1219382   3.613   0.539  16.650 -0.8271 -1.1171  0.7715
  161DOPC  H12A19383   3.586   0.562  16.752 -1.2109 -2.4269  0.9815
  161DOPC  H12B19384   3.523   0.506  16.600 -1.8483  0.2423  1.6215
  161DOPC   C1319385   3.631   0.310  16.711 -0.7813 -0.5328  1.0641
  161DOPC  H13A19386   3.694   0.223  16.717  1.3544  0.5836 -2.2783
  161DOPC  H13B19387   3.581   0.347  16.799 -0.1183  0.2533  1.1217
  161DOPC  H13C19388   3.559   0.276  16.638  1.0336 -0.8315 -0.6812
  161DOPC   C1419389   3.841   0.462  16.753  0.1326 -0.0582 -0.3207
  161DOPC  H14A19390   3.822   0.481  16.858  2.0980  2.6575 -0.3613
  161DOPC  H14B19391   3.912   0.383  16.736  0.4066  0.0447  0.3149
  161DOPC  H14C19392   3.873   0.553  16.705  0.2492 -0.2519 -0.6120
  161DOPC   C1519393   3.769   0.403  16.526 -0.1538 -0.7276  0.9008
  161DOPC  H15A19394   3.688   0.399  16.454  0.5078 -2.2917  0.2006
  161DOPC  H15B19395   3.833   0.317  16.523  0.6658 -0.1125 -0.9281
  161DOPC  H15C19396   3.831   0.484  16.490  2.2404 -2.0074  1.9170
  161DOPC   C1119397   3.641   0.664  16.560 -0.6802 -0.0553  0.2075
  161DOPC  H11A19398   3.641   0.614  16.461  1.5983 -2.8090  1.4768
  161DOPC  H11B19399   3.554   0.733  16.566  1.1081  2.3288  0.7482
  161DOPC     P19400   3.870   0.761  16.466 -0.5775  0.6478  0.0904
  161DOPC   O1319401   4.007   0.792  16.519 -0.1197 -0.3264 -0.3288
  161DOPC   O1419402   3.797   0.857  16.387 -0.3747  0.3184  0.0374
  161DOPC   O1219403   3.768   0.729  16.585 -0.0499  0.1903  0.4446
  161DOPC   O1119404   3.875   0.629  16.380 -0.1485  0.1178  0.5347
  161DOPC    C119405   3.972   0.607  16.280  0.2604 -0.5509  0.0812
  161DOPC    HA19406   4.023   0.513  16.309  1.0502  0.5054  2.3435
  161DOPC    HB19407   4.057   0.678  16.289 -1.9584  2.1550  1.1257
  161DOPC    C219408   3.909   0.595  16.132 -0.4769 -0.4339 -0.5058
  161DOPC    HS19409   3.990   0.573  16.060  0.5988 -1.4525  0.9850
  161DOPC   O2119410   3.832   0.713  16.105 -0.3083 -0.2800 -0.2707
  161DOPC   C2119411   3.912   0.812  16.069 -0.0961  0.6684  0.2676
  161DOPC   O2219412   4.031   0.797  16.035  0.0776  0.2255 -0.9087
  161DOPC   C2219413   3.835   0.943  16.060  0.4877  0.1263 -0.2733
  161DOPC   H2R19414   3.908   1.023  16.036  0.1032  0.9674  1.2613
  161DOPC   H2S19415   3.792   0.959  16.161  3.4049  0.0493  1.0527
  161DOPC    C319416   3.803   0.480  16.121 -0.0531  0.0920 -0.6612
  161DOPC    HX19417   3.740   0.477  16.213  0.4855 -1.3410 -0.3128
  161DOPC    HY19418   3.852   0.380  16.118  0.1336  0.1664 -0.2157
  161DOPC   O3119419   3.715   0.492  16.005  0.2498  0.0393 -0.9185
  161DOPC   C3119420   3.779   0.456  15.893  0.7530 -0.1390  0.8303
  161DOPC   O3219421   3.890   0.408  15.890  0.2029 -0.4925  0.5102
  161DOPC   C3219422   3.677   0.469  15.779  0.4690  0.3934  0.2736
  161DOPC   H2X19423   3.600   0.390  15.789 -0.3323  0.9059 -1.4571
  161DOPC   H2Y19424   3.638   0.573  15.789 -1.5807 -0.4464  1.7411
  161DOPC   C2319425   3.719   0.952  15.958 -0.3319  0.5028  0.2093
  161DOPC   H3R19426   3.669   1.051  15.960 -0.6775  0.4796 -2.6997
  161DOPC   H3S19427   3.639   0.879  15.984  0.9626 -0.2926  2.2011
  161DOPC   C2419428   3.749   0.917  15.814 -0.3869  0.0494  0.2542
  161DOPC   H4R19429   3.793   0.816  15.797  0.0258  0.0256  1.3782
  161DOPC   H4S19430   3.818   0.997  15.780  0.9707 -1.6236 -1.1287
  161DOPC   C2519431   3.625   0.930  15.718  0.7784 -0.0841 -0.1676
  161DOPC   H5R19432   3.600   1.039  15.718  1.1304  0.0067 -0.8813
  161DOPC   H5S19433   3.540   0.866  15.749 -0.5673  1.4552 -0.5115
  161DOPC   C2619434   3.662   0.888  15.574 -0.7066  0.9590  0.4743
  161DOPC   H6R19435   3.706   0.786  15.574 -1.3182  0.6874  0.5175
  161DOPC   H6S19436   3.748   0.948  15.538  1.1388 -0.7351  1.8083
  161DOPC   C2719437   3.536   0.897  15.484  0.1146  0.5354 -1.4675
  161DOPC   H7R19438   3.491   0.997  15.473  0.8015  1.3381  1.8918
  161DOPC   H7S19439   3.459   0.834  15.534  1.1776 -0.3255 -0.8452
  161DOPC   C2819440   3.556   0.820  15.349 -0.9004 -0.0750 -0.1833
  161DOPC   H8R19441   3.461   0.784  15.303 -0.5939 -0.7022 -0.3378
  161DOPC   H8S19442   3.610   0.724  15.368 -0.3208  0.5210  1.3793
  161DOPC   C2919443   3.653   0.903  15.263  0.3191  0.0003  0.2875
  161DOPC   H9R19444   3.756   0.919  15.296 -0.9596  0.1788  4.8222
  161DOPC  C21019445   3.609   0.972  15.155 -0.4378  0.2640  1.1794
  161DOPC  H10R19446   3.680   1.040  15.105 -1.1318 -0.7870 -1.3941
  161DOPC  C21119447   3.471   0.981  15.096 -0.2465  0.0239  0.5430
  161DOPC  H11R19448   3.452   1.076  15.041  3.5631  0.5231 -0.1380
  161DOPC  H11S19449   3.397   0.985  15.179 -2.2924 -0.4726 -1.1492
  161DOPC  C21219450   3.438   0.874  14.996 -0.5127  0.5786 -0.5158
  161DOPC  H12R19451   3.327   0.874  14.994 -0.5507 -0.8437  0.3645
  161DOPC  H12S19452   3.466   0.776  15.039 -2.3192  0.1401 -0.2777
  161DOPC  C21319453   3.493   0.898  14.854 -0.4989  0.3356 -0.5147
  161DOPC  H13R19454   3.591   0.949  14.867  0.8009 -1.9903 -0.6953
  161DOPC  H13S19455   3.435   0.977  14.802  1.0880  1.9505  0.0582
  161DOPC  C21419456   3.519   0.774  14.771  0.4591 -0.0775  0.4514
  161DOPC  H14R19457   3.437   0.702  14.790  0.3505  0.0604  0.5090
  161DOPC  H14S19458   3.613   0.724  14.801  0.2561 -1.1660 -0.6355
  161DOPC  C21519459   3.521   0.809  14.619  0.7481 -0.1678 -0.8407
  161DOPC  H15R19460   3.605   0.880  14.606  0.0133  0.8102 -0.3654
  161DOPC  H15S19461   3.429   0.862  14.586  1.5735  1.3249 -0.8234
  161DOPC  C21619462   3.526   0.688  14.534 -0.5934 -0.0251  0.3248
  161DOPC  H16R19463   3.463   0.609  14.580 -0.4058 -0.4935 -0.2209
  161DOPC  H16S19464   3.633   0.658  14.528 -0.5523 -0.0009  0.8465
  161DOPC  C21719465   3.486   0.706  14.388  0.4297  0.0564 -0.5828
  161DOPC  H17R19466   3.537   0.793  14.341  1.8553 -1.8809 -2.8634
  161DOPC  H17S19467   3.380   0.738  14.395  0.0327 -1.0836 -1.2146
  161DOPC  C21819468   3.509   0.583  14.300 -0.6256 -0.0249 -0.0435
  161DOPC  H18R19469   3.612   0.545  14.315 -0.7935  0.2291  1.9963
  161DOPC  H18S19470   3.479   0.601  14.194 -1.1668 -0.1925  0.0802
  161DOPC  H18T19471   3.443   0.502  14.337 -0.1601 -0.7345 -0.7314
  161DOPC   C3319472   3.734   0.458  15.629 -0.0329 -0.6615 -0.3091
  161DOPC   H3X19473   3.785   0.359  15.623  1.3915 -0.1566  2.1504
  161DOPC   H3Y19474   3.818   0.529  15.614 -0.2080 -0.3011  0.3952
  161DOPC   C3419475   3.624   0.467  15.525  0.5483 -0.1758  0.8591
  161DOPC   H4X19476   3.570   0.563  15.540 -1.2357 -0.7004 -1.5556
  161DOPC   H4Y19477   3.543   0.393  15.544 -0.3497  1.2232  2.8008
  161DOPC   C3519478   3.686   0.453  15.387  0.0251 -0.2377 -0.1741
  161DOPC   H5X19479   3.746   0.361  15.375 -0.9156 -0.9363  0.3604
  161DOPC   H5Y19480   3.765   0.527  15.364  1.5249 -1.9480 -0.7464
  161DOPC   C3619481   3.582   0.459  15.274  0.7647  0.0329 -0.6703
  161DOPC   H6X19482   3.522   0.367  15.290 -0.9341  1.0662 -0.8673
  161DOPC   H6Y19483   3.514   0.544  15.297  1.5092 -0.1455  2.8254
  161DOPC   C3719484   3.643   0.493  15.139 -0.1843  0.0035  0.0888
  161DOPC   H7X19485   3.698   0.590  15.144 -1.5453  1.2238 -4.2226
  161DOPC   H7Y19486   3.730   0.429  15.116 -1.0742 -0.0918 -3.7081
  161DOPC   C3819487   3.559   0.498  15.006 -0.5916 -0.5357 -0.4641
  161DOPC   H8X19488   3.633   0.510  14.924  0.6554  0.0856  0.7023
  161DOPC   H8Y19489   3.497   0.590  15.005  0.0642  0.0993  3.2977
  161DOPC   C3919490   3.470   0.381  14.981  0.3841  0.0923 -0.0559
  161DOPC   H9X19491   3.522   0.301  14.926 -1.3024 -0.9563 -0.1766
  161DOPC  C31019492   3.345   0.362  15.016  0.2681  0.4109 -0.0677
  161DOPC  H10X19493   3.298   0.274  14.970  0.6164  0.6717 -0.9285
  161DOPC  C31119494   3.265   0.464  15.093  0.9074  0.0501 -1.2825
  161DOPC  H11X19495   3.324   0.556  15.115  1.1175  0.2300 -2.4799
  161DOPC  H11Y19496   3.236   0.435  15.196  2.0235  1.3721 -0.5575
  161DOPC  C31219497   3.137   0.499  15.016  0.2488 -0.2230  0.3075
  161DOPC  H12X19498   3.084   0.563  15.089 -1.3228  1.2322 -1.9901
  161DOPC  H12Y19499   3.073   0.411  14.992 -0.8353  0.5167  0.4181
  161DOPC  C31319500   3.180   0.591  14.892  1.2407 -0.0623  0.3544
  161DOPC  H13X19501   3.244   0.663  14.948  2.7399 -1.0464 -0.0307
  161DOPC  H13Y19502   3.247   0.535  14.824  0.5956 -0.3758 -0.0348
  161DOPC  C31419503   3.064   0.663  14.824 -0.0118 -0.1946 -0.4636
  161DOPC  H14X19504   3.034   0.599  14.739 -0.7487  1.0186 -1.1412
  161DOPC  H14Y19505   2.973   0.669  14.888  0.0566 -2.1419 -0.1392
  161DOPC  C31519506   3.093   0.810  14.777 -0.0974 -0.0689 -0.6052
  161DOPC  H15X19507   3.197   0.820  14.737  0.4329 -0.0269  0.7479
  161DOPC  H15Y19508   3.088   0.875  14.866  0.2636 -0.1074 -0.5550
  161DOPC  C31619509   2.996   0.868  14.665  0.3056 -0.2268 -0.3548
  161DOPC  H16X19510   2.976   0.782  14.599  1.4497 -1.1301  0.4305
  161DOPC  H16Y19511   2.896   0.890  14.709 -0.4114  1.3674 -2.6164
  161DOPC  C31719512   3.046   0.988  14.582  0.1380 -0.3411  0.3589
  161DOPC  H17X19513   3.043   1.085  14.637  0.9762  1.0720 -1.9487
  161DOPC  H17Y19514   3.152   0.977  14.550  0.4643  1.1301  0.8473
  161DOPC  C31819515   2.968   1.006  14.452  0.0310  0.0519  0.5671
  161DOPC  H18X19516   3.018   1.083  14.389  0.9633 -1.6864 -0.9390
  161DOPC  H18Y19517   2.971   0.915  14.389  1.5435 -0.4484  1.3141
  161DOPC  H18Z19518   2.866   1.039  14.478 -1.1805 -1.7310 -1.5850
  162DOPC     N19519   0.508   5.519  16.285  0.1546 -0.2483 -0.0792
  162DOPC   C1219520   0.622   5.607  16.241 -0.4942 -0.0589  0.6754
  162DOPC  H12A19521   0.624   5.679  16.322 -1.0016 -0.3962  0.9917
  162DOPC  H12B19522   0.598   5.660  16.150  2.7789  1.0615  0.2971
  162DOPC   C1319523   0.490   5.413  16.182  0.0183 -0.0780  0.1358
  162DOPC  H13A19524   0.518   5.455  16.086 -2.0166  0.0168 -0.4497
  162DOPC  H13B19525   0.550   5.324  16.192  0.3100  0.1657  0.6290
  162DOPC  H13C19526   0.387   5.385  16.173 -0.2377  0.4930  1.0867
  162DOPC   C1419527   0.379   5.600  16.286 -0.4028 -0.6715 -0.2408
  162DOPC  H14A19528   0.296   5.538  16.316 -0.6243  0.7718  2.4130
  162DOPC  H14B19529   0.386   5.686  16.351 -0.9604 -0.5415 -0.3472
  162DOPC  H14C19530   0.348   5.654  16.198 -0.9372  0.5115  0.6561
  162DOPC   C1519531   0.536   5.466  16.424 -0.2031  0.4873  0.3983
  162DOPC  H15A19532   0.457   5.408  16.468 -0.2920 -2.0686 -2.7753
  162DOPC  H15B19533   0.541   5.546  16.496 -0.8427  1.0283 -0.1456
  162DOPC  H15C19534   0.629   5.412  16.431 -0.0261  0.3244 -2.1058
  162DOPC   C1119535   0.765   5.557  16.227  0.0361 -0.2183 -0.1524
  162DOPC  H11A19536   0.760   5.457  16.180 -0.2812  0.3949 -1.4859
  162DOPC  H11B19537   0.827   5.630  16.171 -0.1666  0.0929  0.0222
  162DOPC     P19538   0.857   5.675  16.445  0.0913 -0.1104 -0.0609
  162DOPC   O1319539   0.939   5.644  16.562 -0.4949 -0.3913  0.0920
  162DOPC   O1419540   0.742   5.767  16.467 -0.2812  0.4311 -0.9382
  162DOPC   O1219541   0.806   5.549  16.369  0.5973  0.1902  0.3571
  162DOPC   O1119542   0.953   5.757  16.348  0.5393  0.0465 -0.3909
  162DOPC    C119543   1.065   5.701  16.288 -0.0336 -0.2699 -0.4778
  162DOPC    HA19544   1.053   5.596  16.254 -2.1342 -0.6549  1.2417
  162DOPC    HB19545   1.149   5.693  16.361  1.8892  2.8693 -2.1212
  162DOPC    C219546   1.117   5.789  16.176  1.1397  0.0046 -0.2211
  162DOPC    HS19547   1.116   5.896  16.207 -0.5821 -0.0585  0.0460
  162DOPC   O2119548   1.022   5.775  16.067  0.5326  0.4740  0.1155
  162DOPC   C2119549   1.002   5.868  15.972 -0.6400 -0.0857 -1.2176
  162DOPC   O2219550   1.036   5.982  15.981 -0.1045  0.3673 -0.5314
  162DOPC   C2219551   0.916   5.818  15.863 -0.0453  0.2904  0.1670
  162DOPC   H2R19552   0.811   5.839  15.891  0.6147  1.2626  2.1112
  162DOPC   H2S19553   0.929   5.708  15.852  0.3226  0.4853 -1.7166
  162DOPC    C319554   1.262   5.755  16.123 -0.3118 -0.1964 -0.0370
  162DOPC    HX19555   1.265   5.645  16.108 -1.2247 -0.3685  0.8741
  162DOPC    HY19556   1.336   5.782  16.201 -0.8440  1.7283 -0.1451
  162DOPC   O3119557   1.300   5.827  15.995 -0.0630  0.0064 -0.3635
  162DOPC   C3119558   1.353   5.949  16.022 -0.4626 -0.4532  0.9306
  162DOPC   O3219559   1.374   5.994  16.131 -0.5928  0.5101  0.3774
  162DOPC   C3219560   1.390   6.019  15.893  0.2321  0.5873  0.9710
  162DOPC   H2X19561   1.488   5.976  15.864 -0.7292 -1.2196  0.1726
  162DOPC   H2Y19562   1.310   5.995  15.819  0.7694 -1.5255  1.0057
  162DOPC   C2319563   0.958   5.884  15.727 -0.2138  0.1312  1.0215
  162DOPC   H3R19564   1.004   5.985  15.736 -0.2668  0.3249 -0.5581
  162DOPC   H3S19565   0.858   5.901  15.681 -0.3255 -1.4699  0.6151
  162DOPC   C2419566   1.038   5.797  15.628 -0.4399  0.1958 -0.2430
  162DOPC   H4R19567   0.981   5.702  15.618  1.5982 -1.0265 -0.9345
  162DOPC   H4S19568   1.137   5.771  15.673 -1.1387 -0.8841  0.7229
  162DOPC   C2519569   1.061   5.860  15.488  0.3875  0.2575  0.1765
  162DOPC   H5R19570   1.111   5.958  15.502  0.6048  0.3098 -0.9284
  162DOPC   H5S19571   0.960   5.882  15.449 -0.3595  2.0544  2.7970
  162DOPC   C2619572   1.124   5.778  15.377 -1.4777 -0.2545 -0.6565
  162DOPC   H6R19573   1.153   5.846  15.294 -2.2804  0.8316 -0.0778
  162DOPC   H6S19574   1.052   5.705  15.337  0.0345 -0.9301 -2.2628
  162DOPC   C2719575   1.247   5.708  15.431  0.6377  0.5126  0.4401
  162DOPC   H7R19576   1.213   5.624  15.496  1.8569 -0.7379 -0.4822
  162DOPC   H7S19577   1.313   5.775  15.490  1.7571  1.2526 -1.5682
  162DOPC   C2819578   1.341   5.672  15.316  0.4278 -0.3932  0.6870
  162DOPC   H8R19579   1.432   5.623  15.357  1.0891  1.3908  1.4416
  162DOPC   H8S19580   1.357   5.772  15.271 -0.6365  0.3614  1.9136
  162DOPC   C2919581   1.276   5.573  15.228  0.4834  0.6417  0.2087
  162DOPC   H9R19582   1.216   5.493  15.274 -0.8088  1.0127 -0.7913
  162DOPC  C21019583   1.278   5.576  15.089  0.6025 -0.0270 -0.4396
  162DOPC  H10R19584   1.242   5.494  15.025 -0.9386 -1.3136  1.9283
  162DOPC  C21119585   1.335   5.685  15.008  0.5227 -0.1748 -0.1757
  162DOPC  H11R19586   1.393   5.757  15.070 -0.4715 -0.0774  0.6609
  162DOPC  H11S19587   1.257   5.753  14.969  0.6220  0.8696  1.3401
  162DOPC  C21219588   1.415   5.629  14.891  0.9700  0.4697 -0.2219
  162DOPC  H12R19589   1.349   5.586  14.813 -1.2377  0.0846  1.7487
  162DOPC  H12S19590   1.489   5.553  14.926  1.5342  1.0486 -0.1309
  162DOPC  C21319591   1.496   5.731  14.817 -0.3118 -0.5553 -0.0646
  162DOPC  H13R19592   1.436   5.825  14.809 -0.1072 -0.3143  1.1013
  162DOPC  H13S19593   1.506   5.699  14.711  3.0079 -0.2585  0.0574
  162DOPC  C21419594   1.639   5.761  14.877 -0.0816 -0.4009 -0.0319
  162DOPC  H14R19595   1.686   5.660  14.880 -1.5824 -1.0947  1.1182
  162DOPC  H14S19596   1.625   5.796  14.981 -2.4145 -1.0563 -0.0761
  162DOPC  C21519597   1.715   5.864  14.803 -0.6240 -0.9183 -0.5317
  162DOPC  H15R19598   1.668   5.963  14.825  0.3262 -0.3258 -1.0843
  162DOPC  H15S19599   1.713   5.855  14.693 -0.6216 -0.5758 -0.5631
  162DOPC  C21619600   1.868   5.870  14.835 -0.5443 -1.2514  0.3204
  162DOPC  H16R19601   1.920   5.772  14.834  0.4168 -0.7952 -2.2775
  162DOPC  H16S19602   1.882   5.912  14.937 -0.1317 -1.4490  0.3464
  162DOPC  C21719603   1.945   5.970  14.747  0.0358 -0.3464  0.3209
  162DOPC  H17R19604   1.961   5.931  14.645 -2.1829 -0.7133  0.0673
  162DOPC  H17S19605   2.052   5.956  14.773 -0.1821 -0.4233  1.2111
  162DOPC  C21819606   1.904   6.116  14.761 -0.3579  0.7595 -0.2501
  162DOPC  H18R19607   1.888   6.146  14.867 -0.6527 -1.8509  0.5168
  162DOPC  H18S19608   1.808   6.138  14.710 -1.3996 -1.0287  0.8767
  162DOPC  H18T19609   1.991   6.176  14.726  1.1615 -0.3810  1.4164
  162DOPC   C3319610   1.406   6.168  15.896  0.1245 -0.0498  0.6137
  162DOPC   H3X19611   1.462   6.201  15.986  1.2041 -1.8449  0.6519
  162DOPC   H3Y19612   1.300   6.200  15.904 -0.3677 -1.4606 -0.0311
  162DOPC   C3419613   1.470   6.224  15.767  0.3862  0.1140  0.2851
  162DOPC   H4X19614   1.429   6.326  15.749 -0.6759 -0.3761 -0.1230
  162DOPC   H4Y19615   1.454   6.155  15.682  2.0365  1.7306 -1.4329
  162DOPC   C3519616   1.623   6.244  15.777  0.2431  0.5736 -0.3157
  162DOPC   H5X19617   1.677   6.148  15.791  0.2801  0.1335 -2.9553
  162DOPC   H5Y19618   1.644   6.303  15.868  1.4499 -0.8512  0.3568
  162DOPC   C3619619   1.676   6.326  15.652  0.7315  0.0551  0.3027
  162DOPC   H6X19620   1.671   6.277  15.553  1.5801  0.1944  0.1838
  162DOPC   H6Y19621   1.614   6.418  15.647  0.4143 -0.0753  1.4009
  162DOPC   C3719622   1.824   6.360  15.668 -0.3030 -0.5169 -0.7572
  162DOPC   H7X19623   1.821   6.406  15.768 -1.7658 -1.8937 -0.1213
  162DOPC   H7Y19624   1.877   6.262  15.671  0.0390 -0.3337 -0.7854
  162DOPC   C3819625   1.885   6.452  15.560  0.7568 -0.1661 -0.1095
  162DOPC   H8X19626   1.882   6.388  15.470 -1.9427  1.0502 -0.9923
  162DOPC   H8Y19627   1.991   6.460  15.592  0.7318  0.4904 -0.1726
  162DOPC   C3919628   1.827   6.591  15.534 -0.6874  1.1880  0.3829
  162DOPC   H9X19629   1.817   6.646  15.628  0.7615  1.0988  0.6069
  162DOPC  C31019630   1.775   6.642  15.424 -0.7400 -0.0979 -0.2787
  162DOPC  H10X19631   1.717   6.735  15.426 -0.0562  0.3230  0.2037
  162DOPC  C31119632   1.762   6.576  15.292  0.1136  0.3240 -0.3110
  162DOPC  H11X19633   1.820   6.482  15.281  0.8064  0.7878 -0.7081
  162DOPC  H11Y19634   1.788   6.644  15.208 -1.4800 -0.6271 -1.6378
  162DOPC  C31219635   1.613   6.536  15.258 -0.3146  0.1320 -0.8654
  162DOPC  H12X19636   1.533   6.604  15.295 -0.2386 -0.9323  1.5029
  162DOPC  H12Y19637   1.583   6.442  15.312 -1.0056 -0.4461 -2.2102
  162DOPC  C31319638   1.590   6.516  15.108 -0.3393 -0.1540  0.0751
  162DOPC  H13X19639   1.627   6.608  15.057 -1.2792  0.7902  1.0586
  162DOPC  H13Y19640   1.656   6.430  15.085  1.3319  1.5578 -1.9895
  162DOPC  C31419641   1.443   6.498  15.076 -0.5721  0.1086  0.0787
  162DOPC  H14X19642   1.407   6.411  15.134 -0.6662 -0.8142 -1.3265
  162DOPC  H14Y19643   1.395   6.590  15.117 -0.5824 -0.1115  0.5650
  162DOPC  C31519644   1.404   6.474  14.928  0.4406  0.5644 -0.7273
  162DOPC  H15X19645   1.305   6.426  14.914  0.7760  0.2800 -2.3600
  162DOPC  H15Y19646   1.483   6.412  14.881  2.1550  1.0467  1.3509
  162DOPC  C31619647   1.390   6.601  14.843  0.1970  0.3404 -0.1300
  162DOPC  H16X19648   1.303   6.664  14.874  0.1410 -0.0512  0.5321
  162DOPC  H16Y19649   1.479   6.665  14.861 -1.0286  1.5091  2.2979
  162DOPC  C31719650   1.373   6.584  14.696  0.0500 -0.8003 -0.0817
  162DOPC  H17X19651   1.301   6.500  14.688  0.0266 -0.7115 -0.9500
  162DOPC  H17Y19652   1.335   6.674  14.642 -1.1253 -1.0022  0.3735
  162DOPC  C31819653   1.496   6.522  14.623 -0.3292 -0.4588 -0.3341
  162DOPC  H18X19654   1.467   6.511  14.516 -0.1793  0.5650 -0.4926
  162DOPC  H18Y19655   1.578   6.597  14.624 -0.4255 -0.3190 -1.3897
  162DOPC  H18Z19656   1.534   6.426  14.664  0.8337  0.5415  1.0304
  163DOPC     N19657   6.828   2.963  16.636 -0.7518 -0.1892  0.0318
  163DOPC   C1219658   6.679   2.953  16.595 -0.8034 -0.5568 -0.0829
  163DOPC  H12A19659   6.620   2.919  16.680 -0.7897 -1.3245 -0.3714
  163DOPC  H12B19660   6.667   2.874  16.522 -1.2499  0.6673 -1.3729
  163DOPC   C1319661   6.910   2.966  16.513 -0.2868  1.0188  0.0961
  163DOPC  H13A19662   6.890   2.880  16.451  0.7084  1.4544 -0.8629
  163DOPC  H13B19663   6.900   3.052  16.448 -0.8308  1.4398  0.7277
  163DOPC  H13C19664   7.009   2.950  16.553 -0.4610  0.6351  0.3726
  163DOPC   C1419665   6.865   2.839  16.709 -0.4128  0.0505 -0.4412
  163DOPC  H14A19666   6.964   2.845  16.752 -0.8949 -2.0156  1.1437
  163DOPC  H14B19667   6.792   2.813  16.785 -0.5957 -1.2190 -1.0206
  163DOPC  H14C19668   6.872   2.752  16.645 -1.3294  2.2491 -3.8060
  163DOPC   C1519669   6.863   3.077  16.726 -0.2697  0.5275  0.3021
  163DOPC  H15A19670   6.798   3.075  16.812  0.0933  0.4423  0.5800
  163DOPC  H15B19671   6.850   3.162  16.661 -0.0027 -0.8414 -1.6355
  163DOPC  H15C19672   6.964   3.084  16.762 -0.9551  0.5439  2.3305
  163DOPC   C1119673   6.610   3.078  16.536  0.3694 -0.2054 -0.3951
  163DOPC  H11A19674   6.509   3.037  16.513  0.9079 -1.8446  0.0554
  163DOPC  H11B19675   6.600   3.157  16.614 -1.0833 -1.1938  0.4967
  163DOPC     P19676   6.611   3.250  16.348  0.0586  0.7720 -0.4250
  163DOPC   O1319677   6.699   3.370  16.357 -0.5123  0.3198  0.1671
  163DOPC   O1419678   6.471   3.261  16.392 -0.3984 -0.5763 -0.1815
  163DOPC   O1219679   6.668   3.129  16.419 -0.1456  0.3672  0.5072
  163DOPC   O1119680   6.598   3.209  16.198 -0.7229  1.1821  0.0577
  163DOPC    C119681   6.619   3.075  16.151  0.5210  0.5773 -0.1865
  163DOPC    HA19682   6.522   3.029  16.120  0.3846  1.1924 -0.6854
  163DOPC    HB19683   6.665   3.005  16.224  1.5839 -1.1795 -2.4242
  163DOPC    C219684   6.710   3.067  16.030  0.4831 -0.4330  0.6509
  163DOPC    HS19685   6.810   3.106  16.060  0.2623  1.0799 -0.4356
  163DOPC   O2119686   6.650   3.139  15.914 -0.4360 -0.1762  0.0674
  163DOPC   C2119687   6.689   3.257  15.898 -0.1262 -0.5923 -0.8025
  163DOPC   O2219688   6.773   3.314  15.966 -0.5066 -0.3891  0.2860
  163DOPC   C2219689   6.632   3.338  15.784  0.0546  0.5170 -0.0693
  163DOPC   H2R19690   6.719   3.386  15.734 -0.9512  1.8713 -0.5745
  163DOPC   H2S19691   6.565   3.414  15.830 -0.2856  1.2139 -1.6448
  163DOPC    C319692   6.750   2.922  15.994 -0.0400 -0.6348 -0.0170
  163DOPC    HX19693   6.647   2.881  15.979 -0.4600  0.6102 -0.6570
  163DOPC    HY19694   6.794   2.873  16.083  0.1907  0.8403  0.7087
  163DOPC   O3119695   6.824   2.912  15.871 -0.2407  0.3347  0.1170
  163DOPC   C3119696   6.952   2.931  15.890  0.1518  0.1708 -0.5685
  163DOPC   O3219697   7.007   2.969  15.994  0.5143 -0.0261  0.8529
  163DOPC   C3219698   7.026   2.885  15.766  0.0145 -0.2465  0.4058
  163DOPC   H2X19699   7.021   2.774  15.770 -0.2140 -0.1978  2.3012
  163DOPC   H2Y19700   6.975   2.923  15.675  1.3093 -0.9238 -0.6395
  163DOPC   C2319701   6.539   3.273  15.673 -0.3010  0.0955 -0.0152
  163DOPC   H3R19702   6.509   3.360  15.610  0.4085  0.5042  0.1909
  163DOPC   H3S19703   6.453   3.234  15.731 -0.5441  2.4425  1.3236
  163DOPC   C2419704   6.618   3.174  15.591  0.2586 -0.0896  0.3795
  163DOPC   H4R19705   6.653   3.090  15.654 -1.0556 -1.3298 -0.4629
  163DOPC   H4S19706   6.699   3.217  15.529 -1.0600  0.2042 -1.2256
  163DOPC   C2519707   6.527   3.107  15.485 -0.1875 -0.3326 -0.0737
  163DOPC   H5R19708   6.503   3.181  15.405  0.0730  1.2998  1.2945
  163DOPC   H5S19709   6.439   3.075  15.545 -0.4503 -1.1070 -0.8433
  163DOPC   C2619710   6.604   2.979  15.436  0.5651  0.7046 -0.0915
  163DOPC   H6R19711   6.534   2.925  15.369  0.2920  0.3624  0.4550
  163DOPC   H6S19712   6.612   2.907  15.521  0.3323  2.4002  1.4316
  163DOPC   C2719713   6.741   2.992  15.358 -0.0516 -0.1243  0.3100
  163DOPC   H7R19714   6.813   3.045  15.425 -1.4631  0.1367  1.6893
  163DOPC   H7S19715   6.728   3.046  15.262  0.6220 -0.9347 -0.2476
  163DOPC   C2819716   6.789   2.854  15.339  0.1850 -0.4121  0.7382
  163DOPC   H8R19717   6.704   2.820  15.275  3.0501 -1.4122 -2.8822
  163DOPC   H8S19718   6.800   2.797  15.434  0.2577  0.8998  1.5347
  163DOPC   C2919719   6.906   2.856  15.246  0.2469 -0.7091 -0.6708
  163DOPC   H9R19720   6.932   2.955  15.206 -0.7408 -1.0301 -2.1810
  163DOPC  C21019721   6.966   2.748  15.194  0.0724 -0.0685 -0.3569
  163DOPC  H10R19722   7.048   2.769  15.124 -1.0660  1.6605 -1.2605
  163DOPC  C21119723   6.932   2.602  15.218 -0.2738 -0.6595 -0.2801
  163DOPC  H11R19724   6.850   2.595  15.292 -0.6689  0.2781 -0.6122
  163DOPC  H11S19725   7.021   2.554  15.264  1.3346  1.5397 -0.9436
  163DOPC  C21219726   6.897   2.516  15.087 -0.2630  0.5176  0.2654
  163DOPC  H12R19727   6.869   2.414  15.119 -1.3506  1.1796  1.5471
  163DOPC  H12S19728   6.981   2.512  15.015 -1.8014  0.1451 -1.5882
  163DOPC  C21319729   6.775   2.562  14.997  0.2408 -0.9731 -0.5172
  163DOPC  H13R19730   6.812   2.629  14.918  0.3373 -1.1067 -0.5857
  163DOPC  H13S19731   6.713   2.627  15.063  2.4316  1.2825 -0.5556
  163DOPC  C21419732   6.698   2.449  14.936  0.5929 -0.2927 -0.0960
  163DOPC  H14R19733   6.687   2.382  15.025 -1.0308  2.0559  1.5901
  163DOPC  H14S19734   6.766   2.395  14.867  0.8990 -0.0365  0.0065
  163DOPC  C21519735   6.566   2.476  14.863 -0.4857 -0.2306  0.0522
  163DOPC  H15R19736   6.578   2.544  14.776 -2.5155  0.0648 -0.0462
  163DOPC  H15S19737   6.488   2.521  14.928  0.0909 -1.5752  1.7653
  163DOPC  C21619738   6.504   2.343  14.815 -0.4670 -0.2507  0.5462
  163DOPC  H16R19739   6.508   2.280  14.906 -0.4806 -1.5023 -0.2965
  163DOPC  H16S19740   6.570   2.301  14.736  0.0540  2.0038 -0.2904
  163DOPC  C21719741   6.360   2.366  14.764  0.4569 -0.2747  0.0736
  163DOPC  H17R19742   6.353   2.452  14.694 -0.5215 -1.5399 -1.4351
  163DOPC  H17S19743   6.294   2.394  14.850 -1.4889 -1.3654 -0.9787
  163DOPC  C21819744   6.300   2.233  14.716 -1.2376 -0.6617 -0.0827
  163DOPC  H18R19745   6.312   2.152  14.791 -1.3147 -2.5481 -2.0126
  163DOPC  H18S19746   6.347   2.194  14.623 -0.2106  0.2528  0.0431
  163DOPC  H18T19747   6.190   2.237  14.700 -1.0490  1.0841 -1.3333
  163DOPC   C3319748   7.174   2.932  15.771  0.0167 -0.1314  0.2230
  163DOPC   H3X19749   7.237   2.869  15.838 -1.5654  0.6687  2.5988
  163DOPC   H3Y19750   7.187   3.036  15.809  2.8695 -0.0129 -0.8112
  163DOPC   C3419751   7.230   2.927  15.628 -0.0394 -0.2759 -0.1498
  163DOPC   H4X19752   7.190   3.018  15.577  3.0800  1.6794  0.6551
  163DOPC   H4Y19753   7.188   2.842  15.571 -0.5167 -0.4564  0.4561
  163DOPC   C3519754   7.381   2.932  15.616 -0.0487  1.0284  0.5478
  163DOPC   H5X19755   7.430   2.842  15.657 -2.4426 -1.1558 -1.0504
  163DOPC   H5Y19756   7.419   3.023  15.667  2.7902 -1.4366  3.1733
  163DOPC   C3619757   7.427   2.932  15.468  0.1487 -0.6526 -0.4067
  163DOPC   H6X19758   7.378   2.849  15.412  1.2857 -0.3024 -2.0115
  163DOPC   H6Y19759   7.384   3.020  15.415  0.9975 -1.9651 -3.5706
  163DOPC   C3719760   7.583   2.918  15.459 -0.6762  0.1681  0.1540
  163DOPC   H7X19761   7.632   2.996  15.521 -1.5459 -0.2095  1.3555
  163DOPC   H7Y19762   7.621   2.831  15.515  0.8807  0.3476 -0.5774
  163DOPC   C3819763   7.631   2.926  15.311 -0.2333 -0.1591 -0.1370
  163DOPC   H8X19764   7.741   2.932  15.300 -0.1443 -0.9859  0.2510
  163DOPC   H8Y19765   7.597   3.025  15.274 -0.6181  0.0340  0.7316
  163DOPC   C3919766   7.595   2.800  15.228  0.8707 -0.5196 -0.4694
  163DOPC   H9X19767   7.623   2.701  15.267 -0.4533 -0.8858 -0.4069
  163DOPC  C31019768   7.532   2.796  15.112  0.0068  0.1232 -0.0694
  163DOPC  H10X19769   7.522   2.698  15.062  0.3536  0.0000  0.1015
  163DOPC  C31119770   7.478   2.915  15.037 -0.0651  0.4828 -0.2609
  163DOPC  H11X19771   7.559   2.977  14.994  1.3411 -2.1809 -1.7433
  163DOPC  H11Y19772   7.419   2.981  15.103 -1.4565  1.9885 -2.8375
  163DOPC  C31219773   7.387   2.871  14.909  0.2075 -0.7480 -0.1404
  163DOPC  H12X19774   7.450   2.803  14.848  1.4696  1.5498 -1.5888
  163DOPC  H12Y19775   7.378   2.962  14.846  1.0850 -0.9086 -0.5075
  163DOPC  C31319776   7.256   2.805  14.957  0.8388  0.1530  0.0484
  163DOPC  H13X19777   7.281   2.712  15.013 -0.6136 -0.4609 -0.2817
  163DOPC  H13Y19778   7.201   2.868  15.029  0.3887 -1.7717  1.4642
  163DOPC  C31419779   7.176   2.770  14.830 -0.1969 -0.1459  0.0823
  163DOPC  H14X19780   7.236   2.743  14.740 -1.9906  0.5385 -1.3853
  163DOPC  H14Y19781   7.107   2.685  14.852 -0.4858  0.5556  2.1418
  163DOPC  C31519782   7.082   2.885  14.786  0.5021 -0.0027 -0.2933
  163DOPC  H15X19783   7.025   2.871  14.692  1.6087  0.2875 -1.0223
  163DOPC  H15Y19784   7.141   2.976  14.764 -2.1424  1.8345 -0.2615
  163DOPC  C31619785   6.975   2.922  14.894 -0.5240 -0.4181  0.8798
  163DOPC  H16X19786   6.936   2.827  14.938 -0.3106 -1.1777 -0.5189
  163DOPC  H16Y19787   7.038   2.974  14.969  1.8228  0.1056 -1.3623
  163DOPC  C31719788   6.857   3.008  14.850  0.2014 -0.3689  0.5513
  163DOPC  H17X19789   6.897   3.110  14.865  1.7631 -1.0143  0.9671
  163DOPC  H17Y19790   6.841   2.980  14.744  1.6191  3.5033 -0.8525
  163DOPC  C31819791   6.727   2.993  14.925  0.7915  0.0547 -0.8852
  163DOPC  H18X19792   6.687   2.897  14.885  2.4043 -0.1505 -2.1037
  163DOPC  H18Y19793   6.743   2.984  15.035 -0.5050  1.9344 -0.4990
  163DOPC  H18Z19794   6.651   3.073  14.917  0.5372  0.1934  1.9530
  164DOPC     N19795   1.273   0.941  16.746  0.1477 -0.0042 -0.1253
  164DOPC   C1219796   1.213   0.833  16.653 -0.0428 -0.2429  0.3900
  164DOPC  H12A19797   1.143   0.883  16.588  1.8278  0.5366 -1.1094
  164DOPC  H12B19798   1.146   0.766  16.704 -1.7177  0.0023 -1.3824
  164DOPC   C1319799   1.167   1.029  16.805 -0.6350 -0.9429  0.5733
  164DOPC  H13A19800   1.092   0.974  16.860 -0.5713  1.0232  2.8115
  164DOPC  H13B19801   1.202   1.096  16.882  1.0726 -2.2794  0.9985
  164DOPC  H13C19802   1.125   1.088  16.724  0.3620 -0.5091  0.3549
  164DOPC   C1419803   1.365   1.030  16.675  0.1123  0.0658 -0.2303
  164DOPC  H14A19804   1.312   1.080  16.596  1.0675 -2.2264 -2.4607
  164DOPC  H14B19805   1.388   1.098  16.756 -0.9804  0.2569 -0.0699
  164DOPC  H14C19806   1.453   0.979  16.638 -1.6965 -1.3560 -2.8614
  164DOPC   C1519807   1.348   0.879  16.863  0.3467  0.8528 -1.0091
  164DOPC  H15A19808   1.274   0.808  16.898  0.4822  1.4429  0.5248
  164DOPC  H15B19809   1.374   0.950  16.940  0.0998  1.0859 -1.1367
  164DOPC  H15C19810   1.440   0.830  16.837  0.1413 -0.8329  1.1840
  164DOPC   C1119811   1.311   0.761  16.553 -0.6569 -0.1199  0.7399
  164DOPC  H11A19812   1.254   0.676  16.510 -0.8540  0.7946 -0.8955
  164DOPC  H11B19813   1.330   0.835  16.473  0.1434 -0.5689  0.5009
  164DOPC     P19814   1.570   0.718  16.568 -0.3414  0.0467  0.0860
  164DOPC   O1319815   1.642   0.606  16.621 -0.1723  0.1851 -0.4573
  164DOPC   O1419816   1.621   0.859  16.591  0.0536 -0.2757  0.2730
  164DOPC   O1219817   1.422   0.709  16.614 -0.2619  0.3390 -0.0106
  164DOPC   O1119818   1.569   0.680  16.412  0.0083 -0.6263 -0.6513
  164DOPC    C119819   1.514   0.557  16.384  0.6430  0.2988 -0.6305
  164DOPC    HA19820   1.448   0.519  16.465  1.1029  1.8030  0.5012
  164DOPC    HB19821   1.599   0.486  16.377  0.0189 -0.5506  0.1106
  164DOPC    C219822   1.433   0.547  16.256  0.1644 -0.4142  0.0844
  164DOPC    HS19823   1.502   0.572  16.173 -0.6103  3.2124  0.4037
  164DOPC   O2119824   1.324   0.636  16.262 -0.6146  0.2910  0.5776
  164DOPC   C2119825   1.305   0.704  16.157  0.9758  0.0680 -0.1619
  164DOPC   O2219826   1.362   0.708  16.048 -0.3818  0.5505  0.5325
  164DOPC   C2219827   1.176   0.786  16.173  0.3589  0.0514 -0.2011
  164DOPC   H2R19828   1.177   0.862  16.092 -1.2351 -0.0822 -0.3862
  164DOPC   H2S19829   1.184   0.842  16.268  1.5760 -0.6661  0.1451
  164DOPC    C319830   1.382   0.400  16.236 -1.1870 -0.5122 -0.1847
  164DOPC    HX19831   1.329   0.369  16.329  0.4694 -0.7269  0.7295
  164DOPC    HY19832   1.463   0.325  16.222 -1.6377 -0.8690 -0.9389
  164DOPC   O3119833   1.296   0.390  16.123 -0.2556  0.0052  0.2379
  164DOPC   C3119834   1.210   0.296  16.126  0.1885  0.0655 -0.0267
  164DOPC   O3219835   1.210   0.202  16.210  0.2443  0.1103 -0.1336
  164DOPC   C3219836   1.120   0.304  16.005  0.8383 -0.2190  0.2649
  164DOPC   H2X19837   1.016   0.294  16.043  1.7116 -1.7135  2.4544
  164DOPC   H2Y19838   1.124   0.408  15.965 -2.3450 -1.0938 -2.7535
  164DOPC   C2319839   1.043   0.706  16.152  0.0817 -0.0950 -0.5974
  164DOPC   H3R19840   1.027   0.638  16.238  1.9222 -0.6096 -0.6199
  164DOPC   H3S19841   1.058   0.643  16.061  0.1573 -0.4534 -0.3373
  164DOPC   C2419842   0.914   0.785  16.122  0.0040  0.0245 -1.2599
  164DOPC   H4R19843   0.918   0.868  16.197 -0.7496 -0.3128 -0.8400
  164DOPC   H4S19844   0.825   0.724  16.146 -1.1914  2.0834 -0.0892
  164DOPC   C2519845   0.895   0.847  15.983 -0.1396  0.3161  0.6522
  164DOPC   H5R19846   0.976   0.922  15.967  0.8537 -1.2500 -2.3063
  164DOPC   H5S19847   0.809   0.917  15.994  0.2632  0.7749  0.9117
  164DOPC   C2619848   0.891   0.751  15.869  0.4603  0.7563 -0.6696
  164DOPC   H6R19849   0.813   0.673  15.879 -1.3681  2.6013  0.1163
  164DOPC   H6S19850   0.992   0.705  15.861  2.0307  3.7037  0.3592
  164DOPC   C2719851   0.865   0.820  15.735  0.3042 -0.4137 -0.1144
  164DOPC   H7R19852   0.948   0.894  15.733  1.2235 -1.4350 -0.8646
  164DOPC   H7S19853   0.769   0.876  15.738 -0.1464 -1.2011  0.9328
  164DOPC   C2819854   0.891   0.731  15.618  0.7221 -0.3431  0.4182
  164DOPC   H8R19855   0.993   0.685  15.613  0.9945  0.3009 -0.0248
  164DOPC   H8S19856   0.890   0.792  15.526  0.2123 -1.3589 -0.2691
  164DOPC   C2919857   0.788   0.621  15.601 -0.3407 -0.5298 -0.5335
  164DOPC   H9R19858   0.689   0.665  15.618  1.0246  2.0856  1.3274
  164DOPC  C21019859   0.800   0.488  15.586  0.4039  0.1189  0.4990
  164DOPC  H10R19860   0.709   0.436  15.553  0.4065 -0.4734  1.4011
  164DOPC  C21119861   0.923   0.410  15.575  0.3359  0.3228 -0.8211
  164DOPC  H11R19862   0.936   0.364  15.675 -1.3926  1.5591  0.0296
  164DOPC  H11S19863   1.018   0.466  15.557  0.8294 -0.1279  0.3259
  164DOPC  C21219864   0.923   0.288  15.476 -0.4786 -0.5391 -0.2696
  164DOPC  H12R19865   0.826   0.234  15.468 -1.0304  0.6865 -3.2901
  164DOPC  H12S19866   1.000   0.220  15.520 -0.7278 -2.1004 -2.1054
  164DOPC  C21319867   0.972   0.329  15.332  0.0665 -0.3330  0.7018
  164DOPC  H13R19868   1.070   0.381  15.341 -0.4531  0.7665  0.1132
  164DOPC  H13S19869   0.906   0.403  15.283 -0.9065  0.0513  2.5035
  164DOPC  C21419870   0.962   0.209  15.236 -0.2029 -0.8329  0.8153
  164DOPC  H14R19871   0.862   0.161  15.245 -0.3500 -0.8263 -0.5330
  164DOPC  H14S19872   1.042   0.137  15.263 -0.0038 -0.2422  1.8529
  164DOPC  C21519873   0.972   0.252  15.092 -0.6343  0.6259  0.2341
  164DOPC  H15R19874   1.067   0.308  15.076 -0.9125  2.2683  3.4544
  164DOPC  H15S19875   0.893   0.329  15.074 -0.2746  1.3054  1.4514
  164DOPC  C21619876   0.966   0.138  14.990 -0.0255  0.8630 -0.0205
  164DOPC  H16R19877   0.868   0.086  14.990  1.2422 -1.7367 -0.7890
  164DOPC  H16S19878   1.044   0.062  15.015 -0.5272  0.0430 -0.8995
  164DOPC  C21719879   0.988   0.184  14.842  0.0433  0.7326  0.3369
  164DOPC  H17R19880   1.084   0.240  14.845 -0.8595  2.3857 -0.2229
  164DOPC  H17S19881   0.907   0.252  14.808  0.3770  0.4620 -1.0604
  164DOPC  C21819882   0.996   0.062  14.741 -0.7081  0.7722  0.3662
  164DOPC  H18R19883   1.032   0.095  14.641 -0.5203 -2.0931 -0.5918
  164DOPC  H18S19884   0.896   0.014  14.728 -1.3041  1.8393  0.8311
  164DOPC  H18T19885   1.061  -0.019  14.779 -0.6880  0.1342 -0.9905
  164DOPC   C3319886   1.152   0.216  15.881 -0.0175 -0.4014 -0.4806
  164DOPC   H3X19887   1.065   0.207  15.813 -1.6310 -0.0846  1.4559
  164DOPC   H3Y19888   1.169   0.115  15.925  0.9105 -0.0728 -0.0452
  164DOPC   C3419889   1.272   0.269  15.794  0.5892  0.2344 -0.2528
  164DOPC   H4X19890   1.271   0.212  15.699  0.8678  0.2193 -0.2480
  164DOPC   H4Y19891   1.365   0.257  15.853  0.2796  1.5959  0.5747
  164DOPC   C3519892   1.258   0.416  15.749 -0.3751 -0.3557  0.5981
  164DOPC   H5X19893   1.300   0.483  15.827  1.2844 -0.3938 -0.2219
  164DOPC   H5Y19894   1.151   0.444  15.737 -0.3935 -0.7154 -0.0990
  164DOPC   C3619895   1.331   0.453  15.618  0.5535  0.8320  0.2889
  164DOPC   H6X19896   1.435   0.434  15.652  0.4595  1.1248  0.7501
  164DOPC   H6Y19897   1.306   0.376  15.541 -0.5295  0.5310  0.9211
  164DOPC   C3719898   1.304   0.598  15.568 -0.5039  0.2443 -0.4302
  164DOPC   H7X19899   1.201   0.588  15.530 -1.0551 -2.6325  1.4949
  164DOPC   H7Y19900   1.312   0.675  15.648 -1.9980 -1.3405  1.3462
  164DOPC   C3819901   1.404   0.633  15.452  0.4669 -0.2881  0.0138
  164DOPC   H8X19902   1.362   0.733  15.428 -1.7283 -0.8628  1.1459
  164DOPC   H8Y19903   1.380   0.566  15.367 -0.6668 -0.5576  0.5201
  164DOPC   C3919904   1.546   0.648  15.492 -0.5639 -0.1871  0.1094
  164DOPC   H9X19905   1.568   0.731  15.560  0.6350 -0.9696  0.7147
  164DOPC  C31019906   1.647   0.580  15.438 -0.1570 -0.3866  0.0567
  164DOPC  H10X19907   1.748   0.589  15.481 -0.2048 -0.4955  0.1915
  164DOPC  C31119908   1.637   0.473  15.330 -0.2046  0.5682  0.1519
  164DOPC  H11X19909   1.535   0.429  15.335 -0.5329  1.3276  0.4152
  164DOPC  H11Y19910   1.714   0.396  15.349 -2.2375 -1.0838  2.2299
  164DOPC  C31219911   1.660   0.506  15.185  0.3885  0.1289  0.2139
  164DOPC  H12X19912   1.762   0.551  15.189  0.3137  0.2496  0.9430
  164DOPC  H12Y19913   1.588   0.584  15.150  1.5419  1.1203 -0.0141
  164DOPC  C31319914   1.660   0.392  15.085  0.1498 -0.3511 -0.0112
  164DOPC  H13X19915   1.724   0.420  14.998 -0.1131  2.5719  0.6360
  164DOPC  H13Y19916   1.699   0.299  15.132 -0.7650 -0.6166  0.2312
  164DOPC  C31419917   1.517   0.357  15.039  0.1793  0.0204 -0.1648
  164DOPC  H14X19918   1.448   0.360  15.127 -0.1091 -0.0416 -0.3879
  164DOPC  H14Y19919   1.520   0.253  15.000  0.9163 -0.3531  0.8212
  164DOPC  C31519920   1.470   0.440  14.916  0.3044 -0.2376  0.3251
  164DOPC  H15X19921   1.558   0.469  14.856  1.3154 -0.0064  1.8591
  164DOPC  H15Y19922   1.444   0.533  14.972  0.5444 -1.2181  2.1278
  164DOPC  C31619923   1.353   0.379  14.841 -0.2472 -0.9827 -0.0243
  164DOPC  H16X19924   1.404   0.293  14.793 -1.2138 -2.1464  0.9591
  164DOPC  H16Y19925   1.268   0.353  14.908 -0.9121  0.4539 -0.2739
  164DOPC  C31719926   1.301   0.476  14.736  0.4105 -0.0152  0.6776
  164DOPC  H17X19927   1.251   0.561  14.787 -3.2391 -0.2509 -2.0937
  164DOPC  H17Y19928   1.385   0.526  14.683 -0.0070 -1.0506 -1.0359
  164DOPC  C31819929   1.205   0.406  14.640 -0.6684  0.4385 -0.0755
  164DOPC  H18X19930   1.198   0.463  14.545  1.4790 -0.1305 -0.6253
  164DOPC  H18Y19931   1.249   0.310  14.607 -0.8241  0.4916 -0.4497
  164DOPC  H18Z19932   1.110   0.383  14.692 -0.7191  0.9495  0.0638
  165DOPC     N19933   5.135   0.770  16.250  0.3297  0.0049 -0.7253
  165DOPC   C1219934   5.238   0.710  16.156 -0.4440 -0.3169 -0.3942
  165DOPC  H12A19935   5.308   0.790  16.132 -0.4978  0.3285  1.4090
  165DOPC  H12B19936   5.181   0.685  16.068  0.2327 -1.4665 -0.5179
  165DOPC   C1319937   5.193   0.832  16.376 -0.5718 -0.0016 -0.6295
  165DOPC  H13A19938   5.286   0.882  16.356 -1.0220  0.7177 -0.9854
  165DOPC  H13B19939   5.123   0.904  16.417 -1.6775 -0.4717 -1.6308
  165DOPC  H13C19940   5.213   0.763  16.457 -1.7183  0.4266  0.0572
  165DOPC   C1419941   5.038   0.663  16.292  0.0195 -0.4104 -0.6504
  165DOPC  H14A19942   4.975   0.621  16.216 -1.7913 -1.1266  1.1464
  165DOPC  H14B19943   5.095   0.584  16.340 -0.5471 -0.4369 -0.0113
  165DOPC  H14C19944   4.973   0.689  16.374 -1.8175 -2.0629 -1.5104
  165DOPC   C1519945   5.050   0.874  16.186 -0.0910 -0.5044  0.2499
  165DOPC  H15A19946   4.963   0.901  16.243 -2.9887 -3.7739 -2.1705
  165DOPC  H15B19947   5.016   0.848  16.087 -0.8857 -2.8733  1.0732
  165DOPC  H15C19948   5.111   0.959  16.161  0.6401 -1.0807  0.0111
  165DOPC   C1119949   5.324   0.598  16.217 -0.0184  0.2748  0.3357
  165DOPC  H11A19950   5.275   0.501  16.240 -0.0194  0.1448 -0.1913
  165DOPC  H11B19951   5.393   0.566  16.136  0.5454 -2.6486  1.8220
  165DOPC     P19952   5.536   0.705  16.327  0.4516 -0.2802  0.3293
  165DOPC   O1319953   5.655   0.627  16.276 -0.3633  0.6236 -0.1847
  165DOPC   O1419954   5.547   0.772  16.457 -0.5339  0.3098 -0.1934
  165DOPC   O1219955   5.400   0.627  16.328 -0.1910 -0.4064 -0.6880
  165DOPC   O1119956   5.515   0.817  16.214  0.3636  0.2432  0.1918
  165DOPC    C119957   5.526   0.962  16.225  0.9069 -0.1348 -0.3124
  165DOPC    HA19958   5.531   1.002  16.329 -0.7369 -1.3064  0.2686
  165DOPC    HB19959   5.433   1.004  16.180  1.0868 -0.4091 -0.9432
  165DOPC    C219960   5.639   1.025  16.139 -0.7458 -0.1116 -0.1391
  165DOPC    HS19961   5.655   1.132  16.166 -1.5193  0.0966 -0.4750
  165DOPC   O2119962   5.625   1.007  15.999  0.0439  0.3114 -0.3047
  165DOPC   C2119963   5.535   1.082  15.944  0.1470  0.0141  0.1467
  165DOPC   O2219964   5.474   1.170  16.001  0.4099  0.2999  0.3324
  165DOPC   C2219965   5.521   1.041  15.800  0.0063 -0.3170 -0.0350
  165DOPC   H2R19966   5.441   1.107  15.761  1.1256  0.5086 -1.0075
  165DOPC   H2S19967   5.489   0.935  15.792 -0.2865 -0.1845 -0.7180
  165DOPC    C319968   5.775   0.956  16.166  0.2149  0.1077 -0.4217
  165DOPC    HX19969   5.775   0.851  16.130  1.1501  0.6366 -2.0551
  165DOPC    HY19970   5.790   0.952  16.276 -0.3852 -1.5632 -0.3731
  165DOPC   O3119971   5.883   1.030  16.107 -0.0736 -0.0317 -0.3187
  165DOPC   C3119972   5.934   1.134  16.170 -0.0901  0.7113  0.2401
  165DOPC   O3219973   5.898   1.170  16.283 -0.1040 -0.1880  0.0216
  165DOPC   C3219974   6.033   1.211  16.080 -0.3743 -0.0128  0.1350
  165DOPC   H2X19975   6.007   1.194  15.973  1.0849  1.3174 -0.4551
  165DOPC   H2Y19976   6.036   1.319  16.103  0.8026 -0.4720  2.3681
  165DOPC   C2319977   5.651   1.060  15.719  0.8096  0.3868  0.3993
  165DOPC   H3R19978   5.745   1.022  15.764 -0.3902 -0.1079  2.6677
  165DOPC   H3S19979   5.671   1.168  15.704 -0.4733  0.6048  0.1365
  165DOPC   C2419980   5.635   1.006  15.579 -0.2640 -0.1683 -0.1077
  165DOPC   H4R19981   5.557   1.064  15.526 -0.4088 -0.5627 -0.3249
  165DOPC   H4S19982   5.606   0.900  15.595 -0.8948  0.2741  2.0888
  165DOPC   C2519983   5.764   1.027  15.497  0.5842  0.3172 -0.0660
  165DOPC   H5R19984   5.855   1.022  15.561  1.3679  0.6642 -1.1235
  165DOPC   H5S19985   5.777   1.125  15.447  0.7492  0.0966 -0.4643
  165DOPC   C2619986   5.779   0.910  15.391 -0.4653 -0.2856 -0.4530
  165DOPC   H6R19987   5.867   0.923  15.324  0.2547 -0.4280  0.4438
  165DOPC   H6S19988   5.691   0.897  15.324 -0.6373 -0.9921 -0.0989
  165DOPC   C2719989   5.809   0.771  15.453  0.4627 -0.5370 -0.0292
  165DOPC   H7R19990   5.721   0.731  15.507 -0.8035 -0.0765 -1.6670
  165DOPC   H7S19991   5.889   0.774  15.530  0.6719 -3.7529  0.0006
  165DOPC   C2819992   5.856   0.663  15.349  0.4105  0.0523  0.3895
  165DOPC   H8R19993   5.947   0.698  15.295  1.2388 -0.6614  1.2806
  165DOPC   H8S19994   5.776   0.663  15.272 -2.1927  1.3950  2.9445
  165DOPC   C2919995   5.873   0.529  15.419  0.0778 -0.2468  0.2288
  165DOPC   H9R19996   5.785   0.492  15.473 -1.4721 -1.7504 -3.0347
  165DOPC  C21019997   5.983   0.449  15.410  0.2214 -0.0169 -0.1576
  165DOPC  H10R19998   5.986   0.357  15.470  0.4702  0.8733  1.2389
  165DOPC  C21119999   6.108   0.482  15.322  0.6637 -0.5628  0.2209
  165DOPC  H11R20000   6.107   0.588  15.291  1.3505 -0.0971  1.7049
  165DOPC  H11S20001   6.097   0.435  15.222  1.5486 -0.4541  0.0608
  165DOPC  C21220002   6.252   0.463  15.371  0.0282 -0.2399  0.4728
  165DOPC  H12R20003   6.338   0.517  15.326  0.0885 -0.0789  0.7780
  165DOPC  H12S20004   6.282   0.356  15.362  1.2283  0.0809  0.4482
  165DOPC  C21320005   6.274   0.510  15.509 -0.1587 -0.5033  0.2292
  165DOPC  H13R20006   6.377   0.492  15.548 -0.2521 -2.5271 -0.3348
  165DOPC  H13S20007   6.197   0.463  15.573 -0.9350 -0.9181 -0.9730
  165DOPC  C21420008   6.257   0.660  15.544 -0.1603  0.5068  0.2204
  165DOPC  H14R20009   6.181   0.707  15.480 -0.1905  1.2618  0.8009
  165DOPC  H14S20010   6.354   0.711  15.523  1.0127 -0.0878  3.4968
  165DOPC  C21520011   6.204   0.677  15.680  0.3137  0.3717 -0.1826
  165DOPC  H15R20012   6.272   0.621  15.748 -1.1636 -0.3475  0.7512
  165DOPC  H15S20013   6.101   0.639  15.696  0.3071  1.3352  2.7304
  165DOPC  C21620014   6.207   0.823  15.724 -0.1827  0.2347  0.1332
  165DOPC  H16R20015   6.303   0.870  15.695 -0.4693  0.4687 -0.4729
  165DOPC  H16S20016   6.214   0.823  15.834  0.7832  1.4462  0.0981
  165DOPC  C21720017   6.095   0.919  15.676 -0.7015 -0.5274 -0.2846
  165DOPC  H17R20018   6.001   0.878  15.719 -1.3966  1.6899  0.4729
  165DOPC  H17S20019   6.084   0.918  15.565  0.7884  1.5075 -0.5054
  165DOPC  C21820020   6.107   1.063  15.718 -0.0140  0.0510 -0.2288
  165DOPC  H18R20021   6.201   1.106  15.678  1.5779 -0.0686  3.0331
  165DOPC  H18S20022   6.103   1.077  15.829 -0.7244  0.2021 -0.2705
  165DOPC  H18T20023   6.024   1.116  15.667  0.6962  0.5815 -0.8547
  165DOPC   C3320024   6.187   1.164  16.096  0.1081 -0.1616  1.1972
  165DOPC   H3X20025   6.185   1.059  16.059 -0.4046  0.1874  0.1867
  165DOPC   H3Y20026   6.216   1.175  16.202  2.4846 -1.5266  0.7803
  165DOPC   C3420027   6.277   1.252  16.003  0.4563  0.6000  0.2854
  165DOPC   H4X20028   6.253   1.358  16.026  2.0571  1.1763 -0.5581
  165DOPC   H4Y20029   6.246   1.240  15.897  0.1203  1.6646  0.2512
  165DOPC   C3520030   6.423   1.220  16.016 -0.9451  0.0567 -0.1488
  165DOPC   H5X20031   6.434   1.110  16.011  1.1397  0.2023  0.2349
  165DOPC   H5Y20032   6.454   1.249  16.118  0.7939  1.6676 -1.0614
  165DOPC   C3620033   6.515   1.288  15.919 -0.7678 -0.4693 -0.8189
  165DOPC   H6X20034   6.612   1.240  15.895  1.1315  3.6819 -2.3795
  165DOPC   H6Y20035   6.454   1.300  15.827 -0.4427  1.1889 -0.8528
  165DOPC   C3720036   6.540   1.432  15.955 -0.4619  0.7170 -0.0208
  165DOPC   H7X20037   6.586   1.450  16.055  1.1878 -0.1555 -0.5663
  165DOPC   H7Y20038   6.437   1.473  15.962 -0.9505 -0.5155  0.1422
  165DOPC   C3820039   6.626   1.512  15.853  0.4264  0.0941 -0.4756
  165DOPC   H8X20040   6.580   1.507  15.752 -1.7427  4.2116  0.0982
  165DOPC   H8Y20041   6.726   1.465  15.843  1.4140  2.2888 -1.4839
  165DOPC   C3920042   6.635   1.656  15.900 -0.4630 -1.1494 -0.0989
  165DOPC   H9X20043   6.705   1.672  15.984  1.0320 -1.7563 -1.1897
  165DOPC  C31020044   6.593   1.763  15.842  0.2458  0.2342 -0.2228
  165DOPC  H10X20045   6.613   1.858  15.895  0.3282  0.4192 -0.5790
  165DOPC  C31120046   6.512   1.777  15.714 -0.1357  0.6434 -0.6977
  165DOPC  H11X20047   6.415   1.726  15.729  0.7152 -0.2817  2.5199
  165DOPC  H11Y20048   6.562   1.721  15.632  1.4731  0.8255  0.1100
  165DOPC  C31220049   6.491   1.922  15.679 -0.1121  0.0999 -0.4283
  165DOPC  H12X20050   6.454   1.974  15.770  0.1330  0.0241 -0.2832
  165DOPC  H12Y20051   6.415   1.921  15.598  0.1067  0.3147 -0.6395
  165DOPC  C31320052   6.610   2.014  15.646 -0.3901  0.4670  0.5196
  165DOPC  H13X20053   6.587   2.121  15.665  0.9259  0.3641  3.1569
  165DOPC  H13Y20054   6.694   1.985  15.713  1.1732 -0.2347 -1.6404
  165DOPC  C31420055   6.654   2.000  15.498  0.2531  0.0666  0.3431
  165DOPC  H14X20056   6.691   1.896  15.484 -0.8824 -0.3136  0.0668
  165DOPC  H14Y20057   6.575   2.020  15.422  0.8651 -1.1950 -0.6597
  165DOPC  C31520058   6.766   2.095  15.453  0.2796  0.0736 -0.5943
  165DOPC  H15X20059   6.710   2.191  15.450 -1.1004 -0.6570  0.4148
  165DOPC  H15Y20060   6.805   2.079  15.351  1.0609 -2.0393 -0.0060
  165DOPC  C31620061   6.888   2.104  15.545  0.7023  0.3738 -0.5440
  165DOPC  H16X20062   6.866   2.157  15.641  0.1995  1.4176 -1.2093
  165DOPC  H16Y20063   6.912   2.001  15.579 -1.8249  0.3158  1.3835
  165DOPC  C31720064   7.003   2.190  15.478 -0.1999  0.4917 -0.5384
  165DOPC  H17X20065   7.076   2.221  15.556 -1.9130 -0.6096  1.6156
  165DOPC  H17Y20066   7.062   2.132  15.405 -0.5565 -0.6738  0.0803
  165DOPC  C31820067   6.960   2.322  15.413  1.3018  0.7789  0.1175
  165DOPC  H18X20068   6.891   2.300  15.328  3.0287  0.2326 -1.1910
  165DOPC  H18Y20069   6.904   2.394  15.478  1.3381  1.8817 -1.0343
  165DOPC  H18Z20070   7.041   2.370  15.354 -1.0380  2.0310 -2.3248
  166DOPC     N20071   0.013   3.056  16.119  0.4596  0.0798 -0.5224
  166DOPC   C1220072  -0.069   2.934  16.087 -0.5022  0.5335  0.2696
  166DOPC  H12A20073  -0.166   2.962  16.048 -0.0094 -1.1209 -2.3787
  166DOPC  H12B20074  -0.104   2.881  16.174 -3.5393  1.2024 -0.4252
  166DOPC   C1320075  -0.049   3.124  16.233  0.7395 -0.3093 -0.1598
  166DOPC  H13A20076  -0.043   3.071  16.327  0.9888  1.2234  0.7323
  166DOPC  H13B20077  -0.002   3.220  16.247  0.7174 -0.2606 -0.4117
  166DOPC  H13C20078  -0.152   3.149  16.209 -0.4116 -1.6618  2.8816
  166DOPC   C1420079   0.027   3.156  16.005 -0.5495  0.0474  0.1236
  166DOPC  H14A20080   0.066   3.108  15.917 -3.7957  0.6357 -1.7753
  166DOPC  H14B20081  -0.071   3.194  15.980 -1.2735 -0.2630  2.2224
  166DOPC  H14C20082   0.090   3.241  16.027  0.7473 -1.0810  0.9843
  166DOPC   C1520083   0.149   3.014  16.171  0.3775  0.4018 -0.0674
  166DOPC  H15A20084   0.145   2.977  16.273 -0.7591  1.4145  0.2694
  166DOPC  H15B20085   0.213   3.101  16.180 -0.0182  0.7075 -0.2004
  166DOPC  H15C20086   0.185   2.937  16.104 -2.0818  0.1793 -1.2138
  166DOPC   C1120087  -0.013   2.826  15.988  0.5642  0.7504 -0.4055
  166DOPC  H11A20088  -0.095   2.771  15.938  0.9511 -0.3355  0.1266
  166DOPC  H11B20089   0.040   2.873  15.903  0.8232  2.1317  0.4955
  166DOPC     P20090   0.051   2.616  16.116  0.0593 -0.4355  0.0190
  166DOPC   O1320091  -0.086   2.632  16.165 -0.1017 -0.0029 -0.2755
  166DOPC   O1420092   0.155   2.584  16.224 -0.6784 -0.0398  0.3640
  166DOPC   O1220093   0.092   2.752  16.054  0.0248  0.4030 -0.1784
  166DOPC   O1120094   0.059   2.512  15.999 -0.0412 -0.2516 -0.2359
  166DOPC    C120095   0.181   2.505  15.924 -0.7205  0.4808  0.0838
  166DOPC    HA20096   0.268   2.469  15.983 -0.7082 -0.3168 -0.4030
  166DOPC    HB20097   0.193   2.600  15.869 -1.0360 -0.5882 -1.9026
  166DOPC    C220098   0.168   2.399  15.807 -0.2658 -0.4709  0.0361
  166DOPC    HS20099   0.246   2.429  15.733 -0.4160 -0.6079 -0.1817
  166DOPC   O2120100   0.041   2.414  15.738 -0.0141 -0.3106 -0.5694
  166DOPC   C2120101   0.030   2.526  15.671 -0.4390  0.6089  0.3124
  166DOPC   O2220102   0.116   2.611  15.657 -0.1595  0.4750 -0.0389
  166DOPC   C2220103  -0.116   2.533  15.620 -0.0488 -0.5812 -0.1164
  166DOPC   H2R20104  -0.157   2.622  15.673 -0.5013 -0.4873 -0.6187
  166DOPC   H2S20105  -0.174   2.443  15.650 -0.3148 -0.1081  0.8440
  166DOPC    C320106   0.192   2.256  15.867 -0.3570 -0.3653  0.1263
  166DOPC    HX20107   0.120   2.252  15.951 -0.4188  0.8142  0.1422
  166DOPC    HY20108   0.299   2.250  15.895  0.1754 -1.8748 -1.9758
  166DOPC   O3120109   0.164   2.156  15.765  0.2534  0.2940  0.3511
  166DOPC   C3120110   0.038   2.121  15.738 -0.1477  0.0345  0.6711
  166DOPC   O3220111  -0.058   2.147  15.811  0.0608  0.3905 -0.3098
  166DOPC   C3220112   0.033   2.046  15.600 -0.7178 -0.5974  0.0852
  166DOPC   H2X20113   0.131   2.049  15.548 -1.1890  2.0906 -0.7950
  166DOPC   H2Y20114   0.020   1.940  15.632  2.3988 -1.1027  0.0223
  166DOPC   C2320115  -0.135   2.569  15.468  0.6864 -0.0526 -1.4321
  166DOPC   H3R20116  -0.061   2.645  15.434  1.6674  0.4432  1.5021
  166DOPC   H3S20117  -0.240   2.604  15.464  1.4454  2.4003 -1.7438
  166DOPC   C2420118  -0.116   2.448  15.387 -0.1720 -0.4516 -0.7222
  166DOPC   H4R20119  -0.195   2.377  15.420 -1.0130  2.3145  4.1794
  166DOPC   H4S20120  -0.012   2.412  15.399 -0.0711  0.3017  0.9314
  166DOPC   C2520121  -0.140   2.476  15.237 -0.8933 -0.4504 -0.1598
  166DOPC   H5R20122  -0.055   2.537  15.200 -1.1068  0.3082  0.5504
  166DOPC   H5S20123  -0.230   2.538  15.217 -0.2636 -0.3778 -3.2322
  166DOPC   C2620124  -0.159   2.356  15.149  0.0542 -0.5232 -0.5732
  166DOPC   H6R20125  -0.245   2.291  15.175  0.3144 -0.6174  0.0620
  166DOPC   H6S20126  -0.072   2.287  15.156 -0.0442 -0.7165 -1.1652
  166DOPC   C2720127  -0.166   2.406  15.002 -0.2921 -0.6619  0.4729
  166DOPC   H7R20128  -0.088   2.482  14.980 -0.7915 -0.6743 -1.4818
  166DOPC   H7S20129  -0.262   2.457  14.980 -0.9851 -1.1179  2.2433
  166DOPC   C2820130  -0.143   2.287  14.905  0.4506 -0.1901  0.1482
  166DOPC   H8R20131  -0.218   2.209  14.930  0.8172 -1.2087 -1.7528
  166DOPC   H8S20132  -0.042   2.241  14.917  0.4022 -0.6918 -1.2113
  166DOPC   C2920133  -0.169   2.316  14.762  0.0579  0.2215 -0.3993
  166DOPC   H9R20134  -0.277   2.325  14.741 -0.1358 -1.8840 -0.5715
  166DOPC  C21020135  -0.082   2.353  14.666 -0.1406  0.1768  0.7259
  166DOPC  H10R20136  -0.124   2.371  14.566 -1.4700  1.3174  1.4515
  166DOPC  C21120137   0.067   2.381  14.673  0.3732  0.1371  0.1557
  166DOPC  H11R20138   0.121   2.352  14.766 -0.4646 -1.0474  0.2871
  166DOPC  H11S20139   0.099   2.488  14.667  2.0905 -0.4066 -1.6085
  166DOPC  C21220140   0.161   2.306  14.575  0.1430  0.4361 -0.6627
  166DOPC  H12R20141   0.131   2.199  14.572 -1.6329  0.8483  0.6806
  166DOPC  H12S20142   0.262   2.293  14.618 -0.9532 -3.0626  1.2342
  166DOPC  C21320143   0.161   2.364  14.434 -0.0258 -0.1372 -0.1009
  166DOPC  H13R20144   0.163   2.475  14.438 -2.3088 -0.0313 -0.4004
  166DOPC  H13S20145   0.062   2.340  14.389  0.5100 -3.0901  0.1255
  166DOPC  C21420146   0.260   2.308  14.340  0.1228 -0.5531 -0.0660
  166DOPC  H14R20147   0.245   2.200  14.322 -0.0322 -0.8415  1.6480
  166DOPC  H14S20148   0.359   2.315  14.390 -0.3951 -2.1900  1.2869
  166DOPC  C21520149   0.257   2.394  14.211 -0.2158  0.0288 -0.6639
  166DOPC  H15R20150   0.260   2.502  14.234 -0.7704 -0.4917  2.2506
  166DOPC  H15S20151   0.168   2.361  14.153  0.9242 -2.0811 -1.3105
  166DOPC  C21620152   0.379   2.361  14.125 -0.3350 -0.0253  0.6866
  166DOPC  H16R20153   0.376   2.250  14.112 -0.2550  0.1052 -0.5784
  166DOPC  H16S20154   0.470   2.395  14.179  0.5943 -2.1544  0.5574
  166DOPC  C21720155   0.387   2.429  13.988  0.2101  0.1786 -0.7432
  166DOPC  H17R20156   0.402   2.536  14.017  1.9893 -0.8019  2.4012
  166DOPC  H17S20157   0.294   2.418  13.929 -0.7145  1.6790  0.3382
  166DOPC  C21820158   0.510   2.376  13.908  0.3881 -0.1815  0.7530
  166DOPC  H18R20159   0.505   2.265  13.911 -3.7307 -0.1762 -0.0030
  166DOPC  H18S20160   0.597   2.421  13.962 -0.0754 -0.4206  1.7278
  166DOPC  H18T20161   0.498   2.407  13.802 -0.9039 -0.0523  0.9270
  166DOPC   C3320162  -0.091   2.071  15.504  0.0660  0.0883 -0.4751
  166DOPC   H3X20163  -0.087   2.174  15.462  0.5186  1.2811  2.2361
  166DOPC   H3Y20164  -0.176   2.051  15.574 -1.0255  3.9022 -0.4983
  166DOPC   C3420165  -0.090   1.963  15.397  0.2134  0.2643  0.7207
  166DOPC   H4X20166  -0.086   1.862  15.443 -1.2401 -0.5013 -0.7717
  166DOPC   H4Y20167   0.008   1.977  15.346  1.0191 -2.1467  1.4872
  166DOPC   C3520168  -0.208   1.972  15.302  0.3251 -0.1408  0.1283
  166DOPC   H5X20169  -0.214   2.068  15.247  1.7056 -0.0542  0.1046
  166DOPC   H5Y20170  -0.299   1.949  15.361 -0.1250 -0.2616 -0.6086
  166DOPC   C3620171  -0.195   1.867  15.196  0.5200  0.7876 -0.2534
  166DOPC   H6X20172  -0.100   1.891  15.143  0.0116  0.6326 -1.2790
  166DOPC   H6Y20173  -0.171   1.766  15.233 -2.6220 -0.1082 -0.3871
  166DOPC   C3720174  -0.313   1.874  15.097 -0.4799 -0.6175  0.3698
  166DOPC   H7X20175  -0.319   1.977  15.056  0.3991 -1.2102 -1.3362
  166DOPC   H7Y20176  -0.288   1.820  15.004 -0.7219 -0.3959  0.1743
  166DOPC   C3820177  -0.452   1.836  15.143 -0.0362  0.7865  0.8476
  166DOPC   H8X20178  -0.515   1.840  15.052 -2.2893 -2.1232  2.1093
  166DOPC   H8Y20179  -0.479   1.906  15.225  1.4881  2.3054  0.0972
  166DOPC   C3920180  -0.458   1.690  15.187  0.4028 -0.2678  0.0600
  166DOPC   H9X20181  -0.363   1.639  15.165 -1.1332 -2.8355 -1.0626
  166DOPC  C31020182  -0.558   1.634  15.252 -0.4491  0.0262  0.4086
  166DOPC  H10X20183  -0.547   1.528  15.277  2.2462 -0.0540 -0.7539
  166DOPC  C31120184  -0.681   1.697  15.301 -0.4086  0.5028  0.0402
  166DOPC  H11X20185  -0.671   1.807  15.295  0.6643  0.5399  1.7695
  166DOPC  H11Y20186  -0.697   1.665  15.407  1.1585  1.7882  0.7091
  166DOPC  C31220187  -0.803   1.649  15.215 -0.2810  0.2488 -0.4260
  166DOPC  H12X20188  -0.811   1.540  15.239  0.6227  0.4985  1.1080
  166DOPC  H12Y20189  -0.796   1.665  15.105 -0.8932 -1.8774 -0.8284
  166DOPC  C31320190  -0.937   1.705  15.271 -0.3661 -0.0233 -0.1559
  166DOPC  H13X20191  -0.938   1.704  15.382  0.8757  0.8938 -0.1113
  166DOPC  H13Y20192  -0.941   1.815  15.259  0.6125 -0.0513 -0.8790
  166DOPC  C31420193  -1.058   1.631  15.213  0.7227 -0.3206 -0.1178
  166DOPC  H14X20194  -1.065   1.649  15.103  2.3908  0.7901 -0.0735
  166DOPC  H14Y20195  -1.053   1.522  15.234  2.1786  0.0239  1.4697
  166DOPC  C31520196  -1.189   1.683  15.268  0.3086 -0.3318  0.0420
  166DOPC  H15X20197  -1.274   1.644  15.208  1.0331 -1.8567 -0.0165
  166DOPC  H15Y20198  -1.179   1.792  15.247 -0.3446  0.7324  4.3773
  166DOPC  C31620199  -1.221   1.657  15.415  0.0401  0.7709 -0.1532
  166DOPC  H16X20200  -1.206   1.548  15.435 -0.7449  0.6444 -0.2230
  166DOPC  H16Y20201  -1.138   1.700  15.475 -2.2043  0.3946  3.5842
  166DOPC  C31720202  -1.362   1.706  15.471 -0.2699 -0.1523 -0.5098
  166DOPC  H17X20203  -1.443   1.686  15.397 -0.5152  2.3650 -1.0132
  166DOPC  H17Y20204  -1.370   1.658  15.570  3.4394  4.4075  2.4235
  166DOPC  C31820205  -1.368   1.853  15.501  0.0287 -0.6574  0.0156
  166DOPC  H18X20206  -1.281   1.884  15.562  0.3508  0.2204 -0.8591
  166DOPC  H18Y20207  -1.347   1.911  15.408  2.7640 -3.3714 -1.2194
  166DOPC  H18Z20208  -1.462   1.893  15.545  2.1868  2.6969  2.0124
  167DOPC     N20209   6.528   1.614  16.480  0.6220  0.1591 -0.6172
  167DOPC   C1220210   6.649   1.687  16.533 -0.3903  0.0925  0.2664
  167DOPC  H12A20211   6.655   1.668  16.639  0.3566  0.9066  0.3829
  167DOPC  H12B20212   6.650   1.793  16.511  1.9314  0.0271 -0.1277
  167DOPC   C1320213   6.544   1.461  16.497 -0.2421 -0.0286  0.2835
  167DOPC  H13A20214   6.638   1.437  16.450  0.8048  2.4358  0.9263
  167DOPC  H13B20215   6.549   1.437  16.602 -2.2094  0.9751  0.6628
  167DOPC  H13C20216   6.465   1.405  16.450 -0.4496  0.5475 -0.0690
  167DOPC   C1420217   6.511   1.643  16.332 -0.3363  0.5860  0.3018
  167DOPC  H14A20218   6.489   1.748  16.318 -0.1562  0.8029  1.5595
  167DOPC  H14B20219   6.600   1.624  16.274  0.0880  4.1755 -0.4562
  167DOPC  H14C20220   6.426   1.592  16.290 -0.1105  0.8100 -0.4459
  167DOPC   C1520221   6.400   1.651  16.540 -0.0425 -0.3320 -0.7747
  167DOPC  H15A20222   6.371   1.752  16.515  2.6022  0.4760 -0.8342
  167DOPC  H15B20223   6.393   1.643  16.648 -3.4889  4.1295 -0.3794
  167DOPC  H15C20224   6.322   1.585  16.505  0.1454 -0.4890 -0.8974
  167DOPC   C1120225   6.791   1.654  16.480 -0.6801 -0.3948  0.6151
  167DOPC  H11A20226   6.862   1.708  16.545 -0.8873 -2.6334  2.8783
  167DOPC  H11B20227   6.819   1.547  16.493  0.7658 -0.0450  0.4419
  167DOPC     P20228   6.869   1.839  16.316  0.1546 -0.3874  0.4093
  167DOPC   O1320229   6.942   1.887  16.435  1.0657 -0.0925  0.2130
  167DOPC   O1420230   6.754   1.919  16.270 -0.0958  0.4247  0.4167
  167DOPC   O1220231   6.817   1.684  16.341  0.2335  0.1128 -0.9262
  167DOPC   O1120232   6.980   1.840  16.197 -0.1166  0.6039  0.2393
  167DOPC    C120233   7.026   1.713  16.163  0.0155  0.2255  0.6064
  167DOPC    HA20234   6.948   1.641  16.129  0.3985  1.1912 -2.6212
  167DOPC    HB20235   7.068   1.669  16.256 -0.4510  0.7966  1.0991
  167DOPC    C220236   7.143   1.721  16.065 -0.7209  0.0442  0.4294
  167DOPC    HS20237   7.208   1.805  16.097 -0.8025 -0.3025  1.5490
  167DOPC   O2120238   7.096   1.746  15.933  0.0194  0.4734  0.2826
  167DOPC   C2120239   7.191   1.787  15.850  0.1185  0.3247 -0.8498
  167DOPC   O2220240   7.302   1.820  15.874 -0.3861 -0.0629  0.4714
  167DOPC   C2220241   7.128   1.810  15.716 -0.0188  0.3802  0.7632
  167DOPC   H2R20242   7.202   1.830  15.635 -1.1957  1.1517 -0.1707
  167DOPC   H2S20243   7.058   1.897  15.717  0.9337  1.1941 -0.3896
  167DOPC    C320244   7.231   1.590  16.076 -0.2080  0.9379  0.8354
  167DOPC    HX20245   7.273   1.578  16.178 -0.1038  2.2491  0.9654
  167DOPC    HY20246   7.320   1.610  16.013  0.2906  0.3258  1.3367
  167DOPC   O3120247   7.174   1.468  16.019 -0.2222  0.0720  0.3263
  167DOPC   C3120248   7.096   1.399  16.086 -0.0398 -0.2815 -0.6788
  167DOPC   O3220249   7.056   1.417  16.205  0.3186 -0.0759  0.7177
  167DOPC   C3220250   7.063   1.278  16.008 -0.6748  0.3995  0.5616
  167DOPC   H2X20251   7.065   1.312  15.902  0.2221  2.4642  1.1877
  167DOPC   H2Y20252   7.146   1.208  16.030  0.0459  0.5339 -1.5541
  167DOPC   C2320253   7.033   1.692  15.669 -0.2164  0.7525 -0.3189
  167DOPC   H3R20254   6.973   1.736  15.586  1.2151  1.8445 -0.8097
  167DOPC   H3S20255   6.958   1.673  15.748  0.9916 -2.7421  0.1703
  167DOPC   C2420256   7.103   1.558  15.630  0.5895  0.2129 -0.2915
  167DOPC   H4R20257   7.191   1.537  15.694  3.0888  1.0399 -3.2367
  167DOPC   H4S20258   7.147   1.562  15.528  0.0185  1.2357 -0.5166
  167DOPC   C2520259   7.004   1.439  15.648  0.3435  0.2641  0.4336
  167DOPC   H5R20260   6.930   1.453  15.730 -1.7580 -0.5045 -1.2232
  167DOPC   H5S20261   7.060   1.345  15.665  0.0641 -0.4236 -2.0146
  167DOPC   C2620262   6.912   1.411  15.527  0.0440  0.1360 -0.0541
  167DOPC   H6R20263   6.961   1.413  15.427  1.1853  0.2186  0.4810
  167DOPC   H6S20264   6.822   1.475  15.521 -0.6090 -0.6897  0.7270
  167DOPC   C2720265   6.851   1.268  15.537 -0.3123 -0.4567 -0.3906
  167DOPC   H7R20266   6.785   1.260  15.627 -0.2281 -1.6355 -0.4210
  167DOPC   H7S20267   6.924   1.185  15.542  0.3547  0.1898  1.2806
  167DOPC   C2820268   6.757   1.232  15.421 -0.2865  0.7767  0.4846
  167DOPC   H8R20269   6.807   1.219  15.323 -2.2176  0.1213 -0.4558
  167DOPC   H8S20270   6.684   1.316  15.411 -2.9447 -1.4672 -0.0985
  167DOPC   C2920271   6.679   1.101  15.444 -0.4204 -0.1408  0.2103
  167DOPC   H9R20272   6.721   1.002  15.419 -1.5757 -0.7574  0.6411
  167DOPC  C21020273   6.559   1.093  15.494  0.5168 -0.2210 -0.0532
  167DOPC  H10R20274   6.515   0.992  15.503 -0.6639  0.4537  3.1539
  167DOPC  C21120275   6.470   1.204  15.545  0.8098 -0.1090  0.2280
  167DOPC  H11R20276   6.535   1.275  15.601 -0.3821 -0.4037  2.0760
  167DOPC  H11S20277   6.400   1.164  15.621  0.8110  0.1231  0.3518
  167DOPC  C21220278   6.392   1.283  15.437  0.0020 -0.4699 -0.2772
  167DOPC  H12R20279   6.350   1.370  15.492  2.5394  1.2213 -0.8689
  167DOPC  H12S20280   6.461   1.324  15.360 -1.7874  2.2401 -0.5682
  167DOPC  C21320281   6.279   1.195  15.378 -0.4920 -0.0699 -0.6570
  167DOPC  H13R20282   6.220   1.145  15.458 -0.8166 -0.0686 -0.8939
  167DOPC  H13S20283   6.333   1.105  15.341 -1.9095 -0.9039 -0.7622
  167DOPC  C21420284   6.178   1.247  15.274 -0.6531 -0.5593  0.2828
  167DOPC  H14R20285   6.237   1.296  15.193 -1.8952  0.2697 -0.1520
  167DOPC  H14S20286   6.114   1.328  15.314 -0.0876  1.4516 -2.5128
  167DOPC  C21520287   6.095   1.130  15.220 -0.1488  0.6203  0.5789
  167DOPC  H15R20288   6.022   1.170  15.146 -1.1598 -0.3232  1.0261
  167DOPC  H15S20289   6.031   1.089  15.301  1.0258 -0.2137  1.1221
  167DOPC  C21620290   6.180   1.015  15.161 -0.1498  0.6936  0.6323
  167DOPC  H16R20291   6.212   0.933  15.229 -2.0522 -1.6269 -1.0775
  167DOPC  H16S20292   6.260   1.067  15.104 -0.5748  1.8251  1.0452
  167DOPC  C21720293   6.090   0.935  15.065 -0.9080  0.4283 -0.5522
  167DOPC  H17R20294   6.041   1.004  14.993  1.5518  1.8798 -0.9463
  167DOPC  H17S20295   6.004   0.891  15.121  0.5859  0.6211  2.0929
  167DOPC  C21820296   6.183   0.826  14.998  0.3591 -0.0810  0.1303
  167DOPC  H18R20297   6.126   0.753  14.936  1.1587  0.7782 -1.6926
  167DOPC  H18S20298   6.241   0.763  15.068 -0.8845 -0.2232  1.0652
  167DOPC  H18T20299   6.257   0.873  14.930 -0.8420  0.1815 -1.0323
  167DOPC   C3320300   6.935   1.202  16.036 -0.1891 -0.5098 -0.1841
  167DOPC   H3X20301   6.854   1.276  16.015  2.0807  1.8396 -1.2219
  167DOPC   H3Y20302   6.937   1.172  16.143  0.1046  0.8133  0.2008
  167DOPC   C3420303   6.927   1.076  15.946 -0.3167 -0.5536  0.2124
  167DOPC   H4X20304   7.019   1.014  15.945 -0.7300 -1.1808  0.4196
  167DOPC   H4Y20305   6.909   1.117  15.844 -0.8256  0.6506  0.7650
  167DOPC   C3520306   6.797   0.987  15.976 -0.6099  0.1317  0.0050
  167DOPC   H5X20307   6.708   1.051  15.992  0.3856  2.3237 -2.5924
  167DOPC   H5Y20308   6.822   0.922  16.063  0.9545 -0.9783 -1.2216
  167DOPC   C3620309   6.755   0.895  15.865 -0.0130  0.1411 -0.0493
  167DOPC   H6X20310   6.734   0.948  15.770  1.0356 -0.9629 -0.9402
  167DOPC   H6Y20311   6.836   0.821  15.847 -0.7907 -1.3087  1.9486
  167DOPC   C3720312   6.624   0.821  15.901 -0.2762 -0.3914 -0.8542
  167DOPC   H7X20313   6.628   0.768  15.999 -1.7221 -0.0957 -0.6041
  167DOPC   H7Y20314   6.544   0.896  15.920 -0.0565 -0.5933  1.1392
  167DOPC   C3820315   6.571   0.740  15.789 -0.2634  0.3378 -0.3075
  167DOPC   H8X20316   6.569   0.815  15.707 -1.2675  1.0737  0.3621
  167DOPC   H8Y20317   6.468   0.716  15.823 -0.1916  1.3628  0.6819
  167DOPC   C3920318   6.653   0.614  15.763  0.1943 -0.8969 -1.3669
  167DOPC   H9X20319   6.652   0.552  15.854  0.9497  0.0452 -0.6895
  167DOPC  C31020320   6.724   0.587  15.656  0.1546 -0.6914 -0.6587
  167DOPC  H10X20321   6.769   0.486  15.649 -1.1512 -1.4736  1.4623
  167DOPC  C31120322   6.729   0.667  15.530 -0.2832  0.1744 -0.4491
  167DOPC  H11X20323   6.829   0.708  15.507  0.4377 -2.1576 -1.7774
  167DOPC  H11Y20324   6.655   0.750  15.535 -0.7020 -0.2739  1.2647
  167DOPC  C31220325   6.708   0.579  15.417  0.3043 -0.0720 -0.7984
  167DOPC  H12X20326   6.607   0.533  15.420  0.6554 -0.9850 -2.1258
  167DOPC  H12Y20327   6.786   0.502  15.403  1.6911  0.8065  1.4646
  167DOPC  C31320328   6.700   0.657  15.287 -0.1137  0.4301  1.0709
  167DOPC  H13X20329   6.788   0.726  15.289  0.2924 -0.0049 -0.2641
  167DOPC  H13Y20330   6.730   0.597  15.198  1.2910  1.0076  1.1239
  167DOPC  C31420331   6.574   0.740  15.250  0.2626 -0.3454 -0.3483
  167DOPC  H14X20332   6.497   0.668  15.214 -0.8270 -0.7007  2.4673
  167DOPC  H14Y20333   6.534   0.789  15.342 -1.2797 -1.3527 -0.4464
  167DOPC  C31520334   6.596   0.843  15.137  0.1656  0.0645  0.0446
  167DOPC  H15X20335   6.646   0.934  15.178 -0.3095  0.0649  0.6297
  167DOPC  H15Y20336   6.501   0.887  15.100  1.2274  1.5753 -1.0042
  167DOPC  C31620337   6.677   0.787  15.014  0.4180  0.0767  0.0520
  167DOPC  H16X20338   6.781   0.766  15.045  0.0790 -0.3235  0.9637
  167DOPC  H16Y20339   6.644   0.684  14.988 -0.2779  0.3109 -0.0271
  167DOPC  C31720340   6.668   0.873  14.881 -0.1332  0.4303 -1.0256
  167DOPC  H17X20341   6.630   0.973  14.909  0.5732  1.2938 -2.9861
  167DOPC  H17Y20342   6.769   0.881  14.837 -0.1338  2.9174 -0.7114
  167DOPC  C31820343   6.576   0.823  14.771  0.7094  0.0506 -0.2730
  167DOPC  H18X20344   6.485   0.783  14.820  1.9614 -1.0574  1.2738
  167DOPC  H18Y20345   6.559   0.894  14.688  1.0404  0.9935  0.4587
  167DOPC  H18Z20346   6.617   0.730  14.725  0.3888  0.1400 -0.7476
  168DOPC     N20347   2.014   0.586  16.613  0.2667 -0.0008  0.4999
  168DOPC   C1220348   1.955   0.538  16.479 -0.5946 -0.4723 -0.0439
  168DOPC  H12A20349   1.860   0.496  16.512  0.3061 -0.6737  2.4514
  168DOPC  H12B20350   2.014   0.455  16.442 -2.3210 -1.3751 -0.9209
  168DOPC   C1320351   2.033   0.472  16.711 -0.5276  0.2576  0.4335
  168DOPC  H13A20352   1.941   0.445  16.760 -1.1392 -2.1719 -1.7906
  168DOPC  H13B20353   2.073   0.385  16.661  1.7052  0.9572  0.8718
  168DOPC  H13C20354   2.104   0.493  16.789 -1.3520 -1.5896  1.7339
  168DOPC   C1420355   1.934   0.698  16.670 -0.7036 -0.5603  0.6156
  168DOPC  H14A20356   1.943   0.789  16.611 -0.2859 -0.6263  0.5770
  168DOPC  H14B20357   1.828   0.678  16.670 -1.0087  0.4158 -2.7463
  168DOPC  H14C20358   1.978   0.725  16.765  1.0078  1.6149 -0.6927
  168DOPC   C1520359   2.153   0.635  16.584  0.5417 -0.5236 -0.5658
  168DOPC  H15A20360   2.151   0.715  16.512  2.0830 -0.4830 -0.5962
  168DOPC  H15B20361   2.230   0.566  16.553  1.0395 -0.1972 -0.0861
  168DOPC  H15C20362   2.189   0.680  16.675 -0.8008  0.7547 -0.6343
  168DOPC   C1120363   1.927   0.632  16.357  0.6853  0.4272  0.2395
  168DOPC  H11A20364   1.859   0.583  16.285  1.4009  0.8667 -0.7587
  168DOPC  H11B20365   1.867   0.718  16.394  1.4327  1.2294 -0.3776
  168DOPC     P20366   2.136   0.584  16.219 -0.2768  0.0105  0.0795
  168DOPC   O1320367   2.068   0.457  16.183 -0.6589 -0.0773  0.1689
  168DOPC   O1420368   2.264   0.566  16.285 -0.6897 -0.0743  0.2902
  168DOPC   O1220369   2.045   0.682  16.299 -0.6599 -0.2231  0.0615
  168DOPC   O1120370   2.153   0.666  16.091 -0.3009 -0.8146 -0.2338
  168DOPC    C120371   2.050   0.748  16.031 -0.0970 -0.0406  0.2164
  168DOPC    HA20372   2.078   0.856  16.036  1.7023 -0.4698  0.1492
  168DOPC    HB20373   1.951   0.739  16.080 -1.4673 -2.2585 -2.6812
  168DOPC    C220374   2.020   0.709  15.883 -0.1588 -0.3608 -0.9861
  168DOPC    HS20375   1.936   0.773  15.849 -0.0429 -0.4388 -1.4247
  168DOPC   O2120376   1.988   0.567  15.872 -0.2645 -0.5951 -0.2966
  168DOPC   C2120377   1.862   0.539  15.879  0.5882 -0.6038  0.4508
  168DOPC   O2220378   1.762   0.608  15.873 -0.0109  0.1923  0.3139
  168DOPC   C2220379   1.858   0.382  15.885  0.4000  0.4020  0.2982
  168DOPC   H2R20380   1.854   0.354  15.992 -1.3396 -0.4974  0.0401
  168DOPC   H2S20381   1.953   0.345  15.840 -0.3742  0.0734 -1.1318
  168DOPC    C320382   2.141   0.739  15.794  0.7249  0.2831 -1.0988
  168DOPC    HX20383   2.235   0.694  15.833  1.2236  1.5626 -0.7776
  168DOPC    HY20384   2.156   0.848  15.779 -2.6947  0.8702 -1.0475
  168DOPC   O3120385   2.110   0.692  15.662  0.0929  0.5477 -0.7249
  168DOPC   C3120386   2.191   0.707  15.565 -0.3004 -0.4227 -0.0377
  168DOPC   O3220387   2.307   0.755  15.571 -0.3085  0.3133 -0.3091
  168DOPC   C3220388   2.123   0.662  15.441  0.8850  0.2965  0.0358
  168DOPC   H2X20389   2.013   0.673  15.447  0.8808 -0.1055  0.8877
  168DOPC   H2Y20390   2.166   0.728  15.363  1.6350  0.8000  0.8461
  168DOPC   C2320391   1.739   0.324  15.804 -0.5231 -0.3706 -0.4949
  168DOPC   H3R20392   1.647   0.377  15.837  0.3879  0.7982  0.2535
  168DOPC   H3S20393   1.719   0.217  15.825 -3.0805  0.0393 -0.5473
  168DOPC   C2420394   1.756   0.346  15.653  0.3182 -1.2462  0.1252
  168DOPC   H4R20395   1.780   0.453  15.642 -2.5974 -0.5720 -0.6768
  168DOPC   H4S20396   1.654   0.336  15.610  0.4512  0.5413 -0.7012
  168DOPC   C2520397   1.866   0.263  15.578  0.3167 -0.7420 -0.1261
  168DOPC   H5R20398   1.969   0.288  15.609  0.8969  0.4574 -2.7589
  168DOPC   H5S20399   1.858   0.292  15.471  0.1598 -1.0205 -0.1911
  168DOPC   C2620400   1.853   0.114  15.590  0.2654  0.5955  0.0958
  168DOPC   H6R20401   1.750   0.093  15.555  0.6541  0.6727 -1.1612
  168DOPC   H6S20402   1.857   0.090  15.698 -1.4067  2.2539  0.5823
  168DOPC   C2720403   1.969   0.027  15.544  0.4849  0.2466  0.2473
  168DOPC   H7R20404   1.958  -0.070  15.596 -0.4283  0.4366  0.4138
  168DOPC   H7S20405   2.068   0.070  15.569  0.1488  1.7564 -0.8210
  168DOPC   C2820406   1.975   0.008  15.392 -0.3303  0.3469 -0.3646
  168DOPC   H8R20407   2.076  -0.030  15.363  0.0140  0.5717  0.5024
  168DOPC   H8S20408   1.977   0.112  15.354 -2.5410  1.0504  1.2451
  168DOPC   C2920409   1.866  -0.072  15.336  0.4585  0.0165  0.0878
  168DOPC   H9R20410   1.787  -0.108  15.404  0.8185 -2.2420 -0.6012
  168DOPC  C21020411   1.834  -0.085  15.203  0.8506 -0.4063  0.0036
  168DOPC  H10R20412   1.748  -0.137  15.158 -1.0064  2.6914 -0.2699
  168DOPC  C21120413   1.924  -0.021  15.094 -0.0344 -0.9514  0.3019
  168DOPC  H11R20414   1.948  -0.096  15.016  0.0464 -0.5421 -0.0714
  168DOPC  H11S20415   2.028   0.001  15.127 -0.5467 -0.1783  1.4702
  168DOPC  C21220416   1.872   0.108  15.027  0.0502  0.0495  0.1233
  168DOPC  H12R20417   1.883   0.197  15.093 -1.6287  0.3300  0.0754
  168DOPC  H12S20418   1.762   0.092  15.017  0.1521 -0.1711 -0.7096
  168DOPC  C21320419   1.936   0.153  14.893 -0.3770  0.2807  0.3698
  168DOPC  H13R20420   2.045   0.166  14.908 -0.5433  0.3970  1.5514
  168DOPC  H13S20421   1.887   0.252  14.875  3.1101  1.9648 -0.7014
  168DOPC  C21420422   1.911   0.053  14.777  0.4381  0.3661  0.1437
  168DOPC  H14R20423   1.803   0.032  14.763  1.1813 -2.3462 -3.0081
  168DOPC  H14S20424   1.955  -0.047  14.794 -0.8353 -0.1521  0.5011
  168DOPC  C21520425   1.948   0.112  14.648 -0.0727  0.0056  1.0466
  168DOPC  H15R20426   2.054   0.142  14.640 -0.4903  1.2345 -0.3144
  168DOPC  H15S20427   1.892   0.201  14.610  0.6620 -0.2252 -0.6437
  168DOPC  C21620428   1.938   0.020  14.522  0.1585  0.3074 -0.5521
  168DOPC  H16R20429   1.841  -0.033  14.514  0.3045 -0.1062  0.3033
  168DOPC  H16S20430   2.014  -0.059  14.540  0.6630  1.0838  0.8679
  168DOPC  C21720431   1.986   0.074  14.385 -0.2029  0.4753 -0.1543
  168DOPC  H17R20432   2.091   0.111  14.385 -0.1708  0.6639 -3.3438
  168DOPC  H17S20433   1.925   0.157  14.345  0.0475  1.1657  0.8502
  168DOPC  C21820434   1.974  -0.032  14.274  0.8028  0.0107 -0.2936
  168DOPC  H18R20435   1.891  -0.097  14.311  0.6871  0.6736  0.6596
  168DOPC  H18S20436   2.066  -0.093  14.266 -0.0049 -1.2539 -0.2820
  168DOPC  H18T20437   1.944   0.019  14.180 -1.6597 -2.4399 -0.9639
  168DOPC   C3320438   2.152   0.513  15.407 -0.6668 -0.4047  0.2468
  168DOPC   H3X20439   2.139   0.445  15.494 -0.6376 -0.8524 -0.0954
  168DOPC   H3Y20440   2.260   0.505  15.382 -0.4992  1.7182  0.1193
  168DOPC   C3420441   2.073   0.460  15.295 -0.1268  0.1180  1.1466
  168DOPC   H4X20442   1.963   0.474  15.307 -0.3575 -0.8583  0.3573
  168DOPC   H4Y20443   2.099   0.355  15.272  1.0679  0.1915  2.0991
  168DOPC   C3520444   2.111   0.547  15.172 -0.2370  0.4178 -0.5944
  168DOPC   H5X20445   2.218   0.572  15.151 -0.3512  0.9751 -0.5181
  168DOPC   H5Y20446   2.054   0.642  15.175  0.1432  0.6863 -1.3933
  168DOPC   C3620447   2.068   0.471  15.046  0.6610  0.1809 -0.2256
  168DOPC   H6X20448   2.124   0.375  15.047  1.0324  0.3965 -0.0285
  168DOPC   H6Y20449   1.962   0.443  15.058  1.0375 -1.4882 -0.6046
  168DOPC   C3720450   2.112   0.538  14.913  0.3403 -0.1148 -0.2432
  168DOPC   H7X20451   2.219   0.563  14.932  0.0345  0.7648  0.3693
  168DOPC   H7Y20452   2.103   0.468  14.827 -0.8836  1.1766 -1.2090
  168DOPC   C3820453   2.033   0.671  14.877  0.4291  0.8100 -0.7339
  168DOPC   H8X20454   2.098   0.722  14.802 -0.1289  2.2043 -0.3107
  168DOPC   H8Y20455   2.017   0.734  14.967 -0.4472 -0.8455  0.3002
  168DOPC   C3920456   1.891   0.637  14.828  0.2952 -0.2734  0.5497
  168DOPC   H9X20457   1.823   0.599  14.905 -1.0960  2.0642  0.5695
  168DOPC  C31020458   1.842   0.663  14.706  0.3298  0.4837  0.2418
  168DOPC  H10X20459   1.741   0.628  14.680  0.6345 -0.5673  0.4521
  168DOPC  C31120460   1.913   0.732  14.588  0.2196  0.2380 -0.2850
  168DOPC  H11X20461   1.943   0.669  14.502 -0.6825  0.7791 -1.0150
  168DOPC  H11Y20462   2.008   0.783  14.615  0.6568  0.4231 -2.0702
  168DOPC  C31220463   1.830   0.850  14.541 -0.2189  0.0966 -0.0115
  168DOPC  H12X20464   1.879   0.896  14.453 -0.1722  2.8238  1.3197
  168DOPC  H12Y20465   1.844   0.926  14.621  2.2969  0.0492 -0.3098
  168DOPC  C31320466   1.679   0.820  14.517 -0.3366 -0.2156 -0.0841
  168DOPC  H13X20467   1.663   0.742  14.439  0.1719 -1.8809  1.4101
  168DOPC  H13Y20468   1.627   0.795  14.613  1.9472  0.9431  1.5441
  168DOPC  C31420469   1.611   0.949  14.472 -0.1212 -0.3556 -0.0208
  168DOPC  H14X20470   1.502   0.933  14.486 -0.9759  2.9558 -1.6889
  168DOPC  H14Y20471   1.632   1.030  14.545 -1.5869 -1.0626  1.2358
  168DOPC  C31520472   1.642   0.991  14.329 -0.0040  0.3319  0.7532
  168DOPC  H15X20473   1.595   0.932  14.247  2.1274 -1.3690  0.6530
  168DOPC  H15Y20474   1.751   0.971  14.326 -0.5369 -3.2154  0.0884
  168DOPC  C31620475   1.605   1.135  14.304 -0.1202  0.1124  0.1930
  168DOPC  H16X20476   1.495   1.142  14.312 -0.2224 -0.4551 -0.5928
  168DOPC  H16Y20477   1.647   1.205  14.379 -0.7573  1.7128 -0.9090
  168DOPC  C31720478   1.654   1.179  14.162  0.5554 -0.0270 -0.1514
  168DOPC  H17X20479   1.761   1.154  14.146  0.2719 -1.5178  0.0952
  168DOPC  H17Y20480   1.596   1.124  14.085  1.0782  0.6564 -1.0428
  168DOPC  C31820481   1.631   1.330  14.149  0.2018  0.0284 -0.6240
  168DOPC  H18X20482   1.686   1.374  14.236 -2.5787  0.9768  0.7625
  168DOPC  H18Y20483   1.662   1.381  14.055 -2.3050  0.9235 -1.0393
  168DOPC  H18Z20484   1.522   1.343  14.163 -0.1202 -3.4564  0.9473
  169DOPC     N20485   0.456   1.121  16.571 -0.3189  0.1273 -0.2400
  169DOPC   C1220486   0.443   1.141  16.421 -0.9445  0.2580  0.4540
  169DOPC  H12A20487   0.469   1.043  16.382 -1.9548 -0.0892  0.6252
  169DOPC  H12B20488   0.523   1.208  16.393 -1.4715  1.2734  1.3212
  169DOPC   C1320489   0.420   1.256  16.636  0.6613  0.1449 -0.3670
  169DOPC  H13A20490   0.435   1.254  16.742 -0.6039  0.5770 -0.1604
  169DOPC  H13B20491   0.477   1.336  16.589  0.7897  1.7886  2.3807
  169DOPC  H13C20492   0.317   1.278  16.613  0.2332 -2.2674 -1.0592
  169DOPC   C1420493   0.596   1.088  16.614  0.3668 -0.1001 -0.3320
  169DOPC  H14A20494   0.612   0.987  16.581 -1.1859 -0.9183  1.2163
  169DOPC  H14B20495   0.673   1.151  16.573 -0.1039  0.7404  0.0408
  169DOPC  H14C20496   0.606   1.091  16.722 -2.8416  3.0735  0.1018
  169DOPC   C1520497   0.365   1.020  16.625  0.1168 -0.2480 -0.0330
  169DOPC  H15A20498   0.370   1.023  16.733 -0.7136  0.1805  0.0022
  169DOPC  H15B20499   0.384   0.923  16.583  2.8660 -0.5341  1.6128
  169DOPC  H15C20500   0.265   1.050  16.598  0.4160 -0.5342 -1.5146
  169DOPC   C1120501   0.309   1.186  16.359  0.2528 -0.4127 -0.2261
  169DOPC  H11A20502   0.279   1.274  16.420 -0.4460 -0.1944 -0.8652
  169DOPC  H11B20503   0.323   1.219  16.254 -0.8235  0.2529 -0.1773
  169DOPC     P20504   0.189   0.963  16.283  0.2758  0.0554 -0.4688
  169DOPC   O1320505   0.110   1.011  16.169  0.0119  0.0482  0.3741
  169DOPC   O1420506   0.137   0.862  16.371 -0.0401  0.5523 -0.0362
  169DOPC   O1220507   0.212   1.085  16.381 -0.2126 -0.7382 -0.2483
  169DOPC   O1120508   0.336   0.932  16.245  0.2014  0.6697  0.3819
  169DOPC    C120509   0.395   0.803  16.236  0.1292  0.7844 -0.1276
  169DOPC    HA20510   0.312   0.733  16.216 -0.3005  0.4186  2.5297
  169DOPC    HB20511   0.437   0.768  16.333 -0.6493 -1.9909 -0.7109
  169DOPC    C220512   0.497   0.798  16.121  0.5933 -0.9606 -0.2618
  169DOPC    HS20513   0.595   0.845  16.145  0.7630 -0.9563 -0.9364
  169DOPC   O2120514   0.439   0.864  16.007  0.2056  0.7089 -0.0871
  169DOPC   C2120515   0.457   0.999  15.997  0.0772  0.4530  0.6685
  169DOPC   O2220516   0.519   1.070  16.068  0.1192 -0.4081 -0.2185
  169DOPC   C2220517   0.402   1.046  15.863 -0.2021  0.1948 -1.0596
  169DOPC   H2R20518   0.321   1.120  15.885 -2.5892 -2.2610 -1.0088
  169DOPC   H2S20519   0.355   0.958  15.814 -1.8851  0.3935  0.1080
  169DOPC    C320520   0.535   0.649  16.084 -0.2952  0.2873  0.5597
  169DOPC    HX20521   0.555   0.601  16.182  0.0924  3.8509  2.3754
  169DOPC    HY20522   0.623   0.660  16.016 -2.3643  1.2936 -2.1478
  169DOPC   O3120523   0.418   0.590  16.023  0.5761  0.2208  0.0090
  169DOPC   C3120524   0.427   0.557  15.895  0.4123  0.1058 -0.3319
  169DOPC   O3220525   0.526   0.559  15.828  0.1913 -0.5106 -0.4590
  169DOPC   C3220526   0.289   0.513  15.855 -0.2204  0.1577 -0.1225
  169DOPC   H2X20527   0.291   0.402  15.849 -0.0040  0.0759  1.1487
  169DOPC   H2Y20528   0.213   0.542  15.930 -1.6819  2.3192 -2.3144
  169DOPC   C2320529   0.508   1.108  15.768  0.3107  0.4988 -0.2577
  169DOPC   H3R20530   0.591   1.034  15.772 -1.4217 -1.5624 -0.5712
  169DOPC   H3S20531   0.537   1.208  15.808  0.3629  0.9134 -1.2930
  169DOPC   C2420532   0.461   1.114  15.628  0.7189  0.2841  0.9718
  169DOPC   H4R20533   0.417   1.020  15.589  0.5993  1.2612 -1.4260
  169DOPC   H4S20534   0.552   1.134  15.567 -0.1427  0.0689 -0.4401
  169DOPC   C2520535   0.362   1.225  15.587  0.9259 -0.2874  0.3170
  169DOPC   H5R20536   0.388   1.317  15.643  1.9611 -1.2315  1.4479
  169DOPC   H5S20537   0.258   1.215  15.624  0.8746  0.2302  0.3139
  169DOPC   C2620538   0.365   1.268  15.439 -0.2650  0.1187  0.5248
  169DOPC   H6R20539   0.470   1.273  15.403 -0.7871 -0.5037 -1.1805
  169DOPC   H6S20540   0.308   1.363  15.426 -1.7235 -0.9635 -1.7760
  169DOPC   C2720541   0.282   1.162  15.357  0.0538  0.3987 -0.2383
  169DOPC   H7R20542   0.174   1.188  15.358  0.4049  2.3784 -2.7998
  169DOPC   H7S20543   0.300   1.067  15.412  2.3289 -0.7665 -2.7564
  169DOPC   C2820544   0.331   1.129  15.216 -0.0448  0.3417 -0.0366
  169DOPC   H8R20545   0.259   1.055  15.175  1.8398  0.5764 -4.2664
  169DOPC   H8S20546   0.432   1.083  15.215  0.6486  1.7761  0.4173
  169DOPC   C2920547   0.347   1.241  15.117 -0.4745  0.1450  0.2076
  169DOPC   H9R20548   0.351   1.340  15.164  0.9366  1.1155 -1.8167
  169DOPC  C21020549   0.364   1.236  14.986  0.0360 -0.2797  0.4397
  169DOPC  H10R20550   0.358   1.329  14.927 -0.6174 -0.8933 -0.4912
  169DOPC  C21120551   0.367   1.108  14.905 -0.0216  0.2419 -0.0479
  169DOPC  H11R20552   0.406   1.018  14.956  1.6494  0.6909 -0.4811
  169DOPC  H11S20553   0.442   1.121  14.824 -0.2690 -1.1312 -0.5153
  169DOPC  C21220554   0.240   1.062  14.830  0.2439  0.2730 -0.3912
  169DOPC  H12R20555   0.258   0.965  14.779 -3.1996 -1.0964  0.7308
  169DOPC  H12S20556   0.225   1.133  14.747 -1.4761  0.2582 -0.1278
  169DOPC  C21320557   0.116   1.063  14.917 -0.6745 -0.2510  0.5338
  169DOPC  H13R20558   0.094   1.158  14.970 -0.2849  0.8474 -1.1641
  169DOPC  H13S20559   0.143   0.984  14.990  2.1776 -1.0656 -1.2406
  169DOPC  C21420560  -0.001   1.013  14.824  0.0765  0.1243  0.2414
  169DOPC  H14R20561  -0.083   0.992  14.896  0.4437  0.0056  0.6277
  169DOPC  H14S20562   0.031   0.926  14.762  2.4983  3.2150 -3.2451
  169DOPC  C21520563  -0.053   1.125  14.732 -0.4643  0.5226 -0.1721
  169DOPC  H15R20564   0.010   1.143  14.642 -2.1189  0.7008 -1.3501
  169DOPC  H15S20565  -0.035   1.223  14.779 -0.3087  1.0418 -1.2767
  169DOPC  C21620566  -0.196   1.092  14.682  0.0458 -0.4067 -0.1058
  169DOPC  H16R20567  -0.253   1.186  14.667  1.4449  0.7216  1.2840
  169DOPC  H16S20568  -0.252   1.046  14.766 -0.6062 -0.6757 -0.6821
  169DOPC  C21720569  -0.195   1.011  14.550 -0.0015  0.1129 -0.1219
  169DOPC  H17R20570  -0.130   1.063  14.476  1.3090 -0.6524  0.4522
  169DOPC  H17S20571  -0.290   1.028  14.496  0.1117  2.4282  0.2794
  169DOPC  C21820572  -0.172   0.866  14.567 -0.2688  0.8950 -0.2693
  169DOPC  H18R20573  -0.236   0.839  14.654  0.3348  3.1884  0.9655
  169DOPC  H18S20574  -0.069   0.832  14.596 -0.3339  0.4546 -0.5447
  169DOPC  H18T20575  -0.207   0.804  14.483  1.8030  0.0051 -0.5504
  169DOPC   C3320576   0.236   0.576  15.720 -0.4674 -0.1967 -0.1578
  169DOPC   H3X20577   0.248   0.686  15.725 -1.0921 -0.1309 -0.0849
  169DOPC   H3Y20578   0.126   0.562  15.717 -0.4449 -0.4685  0.1793
  169DOPC   C3420579   0.304   0.519  15.593  0.1990  0.1368 -0.7679
  169DOPC   H4X20580   0.267   0.416  15.575  1.0226 -0.3446  0.1997
  169DOPC   H4Y20581   0.412   0.507  15.617  0.3750  3.2774  0.5295
  169DOPC   C3520582   0.276   0.605  15.473  0.0621 -0.9304  0.2762
  169DOPC   H5X20583   0.349   0.568  15.398  1.3087 -1.6911  1.7920
  169DOPC   H5Y20584   0.305   0.711  15.492  2.7678 -1.3899 -0.8123
  169DOPC   C3620585   0.126   0.605  15.419  0.5140 -0.1069  0.0516
  169DOPC   H6X20586   0.114   0.504  15.374 -0.1068 -0.0542  0.0931
  169DOPC   H6Y20587   0.050   0.622  15.499 -0.2578  1.0315 -0.8905
  169DOPC   C3720588   0.099   0.704  15.309  0.2318 -0.4225 -0.3381
  169DOPC   H7X20589  -0.008   0.699  15.277  0.9901  0.8658 -3.4664
  169DOPC   H7Y20590   0.119   0.805  15.349  0.0453 -1.4691  2.6218
  169DOPC   C3820591   0.189   0.695  15.178 -0.4552  0.0285 -0.2467
  169DOPC   H8X20592   0.287   0.716  15.227 -0.6458 -0.6968  0.4674
  169DOPC   H8Y20593   0.174   0.779  15.107  1.3998  0.0917 -0.6290
  169DOPC   C3920594   0.197   0.562  15.113 -0.2809 -0.5734 -0.8459
  169DOPC   H9X20595   0.226   0.477  15.176 -0.0806 -0.3832 -0.6788
  169DOPC  C31020596   0.160   0.535  14.984  0.4380  0.3995 -0.1267
  169DOPC  H10X20597   0.191   0.434  14.954  1.7885  0.3370  1.3188
  169DOPC  C31120598   0.106   0.622  14.885  0.4758 -0.7694  0.7153
  169DOPC  H11X20599   0.101   0.728  14.915  2.6064 -0.1101 -0.9882
  169DOPC  H11Y20600   0.001   0.585  14.874  1.0459 -2.1026 -0.6517
  169DOPC  C31220601   0.169   0.617  14.743 -0.0983  0.0281 -0.3107
  169DOPC  H12X20602   0.095   0.680  14.690 -0.6125 -0.8313 -0.6350
  169DOPC  H12Y20603   0.162   0.513  14.704  0.9117 -0.5321  0.9158
  169DOPC  C31320604   0.315   0.662  14.740 -0.4903  0.1815  0.0805
  169DOPC  H13X20605   0.308   0.764  14.784  1.3785 -0.0345  0.9838
  169DOPC  H13Y20606   0.378   0.595  14.802  0.2408 -0.8183 -1.6612
  169DOPC  C31420607   0.368   0.654  14.593 -0.1884  0.2782 -0.0002
  169DOPC  H14X20608   0.381   0.549  14.558  1.3295  0.4701 -0.0774
  169DOPC  H14Y20609   0.290   0.683  14.519 -0.1874  0.2340 -0.0197
  169DOPC  C31520610   0.507   0.721  14.564 -0.1733  1.2434  0.7147
  169DOPC  H15X20611   0.536   0.680  14.465 -0.3048 -0.9474  1.5386
  169DOPC  H15Y20612   0.585   0.695  14.638  2.7068  1.2581 -2.1252
  169DOPC  C31620613   0.504   0.870  14.560  0.2157  0.0947 -0.3664
  169DOPC  H16X20614   0.439   0.908  14.478  1.9814  0.7825 -1.5121
  169DOPC  H16Y20615   0.467   0.901  14.660 -0.6212  0.2686 -0.7163
  169DOPC  C31720616   0.644   0.937  14.537  0.1935 -0.2747  0.0717
  169DOPC  H17X20617   0.665   0.895  14.436 -2.2500 -0.2452 -0.4969
  169DOPC  H17Y20618   0.636   1.047  14.525  2.3159  0.1124  1.6271
  169DOPC  C31820619   0.752   0.911  14.636 -0.4051  0.5371  0.3733
  169DOPC  H18X20620   0.833   0.985  14.618  0.0559 -0.2885 -1.1614
  169DOPC  H18Y20621   0.713   0.927  14.739  0.6846  1.6890  0.6321
  169DOPC  H18Z20622   0.800   0.811  14.630  0.8953  1.1813 -0.3308
  170DOPC     N20623   6.762   7.203  16.415  0.4919  0.0900  0.6641
  170DOPC   C1220624   6.831   7.314  16.346 -0.5876 -0.0500 -0.1738
  170DOPC  H12A20625   6.900   7.269  16.276 -1.3749  1.7488 -2.2546
  170DOPC  H12B20626   6.892   7.369  16.415 -1.0289  0.1730  0.0435
  170DOPC   C1320627   6.681   7.118  16.321 -0.4669 -0.2275 -0.1600
  170DOPC  H13A20628   6.600   7.170  16.273 -1.4307 -2.4206 -1.0688
  170DOPC  H13B20629   6.725   7.061  16.241 -3.0012 -2.0933 -0.3663
  170DOPC  H13C20630   6.635   7.037  16.376 -0.1995 -0.3747 -0.1511
  170DOPC   C1420631   6.675   7.266  16.524  0.5494  1.1519  0.3414
  170DOPC  H14A20632   6.721   7.343  16.584  0.8033 -0.3142  2.1063
  170DOPC  H14B20633   6.590   7.315  16.479  0.3284  0.2487 -0.2448
  170DOPC  H14C20634   6.639   7.183  16.583  2.3958 -1.1762 -1.5985
  170DOPC   C1520635   6.862   7.123  16.492  0.0233  0.0970 -0.3853
  170DOPC  H15A20636   6.936   7.079  16.426 -1.3310  0.4798 -2.2439
  170DOPC  H15B20637   6.814   7.040  16.542 -2.2017  1.1517 -0.6740
  170DOPC  H15C20638   6.910   7.185  16.566 -1.1368 -0.6882  1.0761
  170DOPC   C1120639   6.746   7.412  16.263 -0.1867 -0.0227  0.3303
  170DOPC  H11A20640   6.807   7.484  16.203 -1.3470  0.3608 -0.4282
  170DOPC  H11B20641   6.695   7.360  16.178  1.7206 -1.9016  0.2543
  170DOPC     P20642   6.554   7.592  16.288 -0.3073  0.2890 -0.1747
  170DOPC   O1320643   6.626   7.708  16.229 -0.1649 -0.0318 -0.0272
  170DOPC   O1420644   6.445   7.613  16.380 -0.0107  0.6980 -0.5333
  170DOPC   O1220645   6.659   7.488  16.351  0.1481  0.0062 -0.0868
  170DOPC   O1120646   6.495   7.495  16.175 -0.2631  0.1155  0.1213
  170DOPC    C120647   6.405   7.527  16.071 -0.8691  0.0573 -0.3066
  170DOPC    HA20648   6.379   7.635  16.075 -0.8840  0.0342  0.3407
  170DOPC    HB20649   6.307   7.478  16.084 -0.5571 -0.5817 -0.3412
  170DOPC    C220650   6.467   7.485  15.939 -0.1315 -0.3205 -0.0084
  170DOPC    HS20651   6.395   7.508  15.857  1.6197 -0.8237 -1.7584
  170DOPC   O2120652   6.510   7.348  15.938 -0.2642  0.2262  0.1814
  170DOPC   C2120653   6.404   7.258  15.949  0.2893 -0.0918  0.2025
  170DOPC   O2220654   6.291   7.290  15.937  0.2904 -0.0171  0.1670
  170DOPC   C2220655   6.445   7.108  15.968  0.0912 -0.4865 -0.8096
  170DOPC   H2R20656   6.414   7.080  16.071  0.6726 -0.8308 -0.7270
  170DOPC   H2S20657   6.555   7.106  15.954 -0.0257 -0.9651 -1.7665
  170DOPC    C320658   6.595   7.567  15.908 -0.2053 -0.7577  0.7732
  170DOPC    HX20659   6.668   7.524  15.980 -0.0987 -1.6484  0.1563
  170DOPC    HY20660   6.587   7.674  15.936 -0.2689 -0.1348 -1.4160
  170DOPC   O3120661   6.637   7.553  15.772  0.5709 -0.2136 -0.1170
  170DOPC   C3120662   6.558   7.614  15.686 -0.3260 -0.0054 -0.1629
  170DOPC   O3220663   6.451   7.672  15.708  0.1199 -0.1444 -0.4674
  170DOPC   C3220664   6.622   7.608  15.550  0.0561 -0.5258 -0.2892
  170DOPC   H2X20665   6.701   7.686  15.547 -1.4722  1.3148  2.3144
  170DOPC   H2Y20666   6.647   7.505  15.518 -0.1726 -0.8184  0.4722
  170DOPC   C2320667   6.375   7.004  15.870 -0.2570  0.4318  0.7035
  170DOPC   H3R20668   6.264   7.012  15.871 -0.4960 -1.6209  3.4660
  170DOPC   H3S20669   6.403   6.899  15.892 -0.0383  0.3046 -0.1482
  170DOPC   C2420670   6.430   7.008  15.720  0.2554 -0.1209 -0.8796
  170DOPC   H4R20671   6.381   6.919  15.676 -2.1792  1.9610 -2.7081
  170DOPC   H4S20672   6.541   7.002  15.722  0.2205 -0.7137  0.2520
  170DOPC   C2520673   6.405   7.133  15.635 -0.5550  0.0342  0.7688
  170DOPC   H5R20674   6.480   7.202  15.679  0.5458  0.1883 -1.2190
  170DOPC   H5S20675   6.304   7.174  15.655 -1.3513 -1.5897  0.2778
  170DOPC   C2620676   6.433   7.133  15.486  0.0775 -0.3379  0.3604
  170DOPC   H6R20677   6.514   7.060  15.464 -0.8833 -1.2801 -0.1775
  170DOPC   H6S20678   6.472   7.232  15.453  1.3597 -1.2976 -1.1476
  170DOPC   C2720679   6.310   7.104  15.397  0.1696 -0.7400 -0.4866
  170DOPC   H7R20680   6.238   7.187  15.413  0.0069 -1.0584  0.5131
  170DOPC   H7S20681   6.254   7.009  15.415 -0.1584 -0.6488 -0.9968
  170DOPC   C2820682   6.344   7.109  15.246 -0.1520  0.0062  0.4640
  170DOPC   H8R20683   6.432   7.044  15.228  0.9023  1.7276 -0.9877
  170DOPC   H8S20684   6.380   7.213  15.228  0.7620 -0.2536  0.7491
  170DOPC   C2920685   6.232   7.082  15.151  0.6040 -0.4536  0.4889
  170DOPC   H9R20686   6.155   7.160  15.157 -0.0086 -0.9874 -0.2033
  170DOPC  C21020687   6.232   7.002  15.047 -0.5646 -0.0129  0.4356
  170DOPC  H10R20688   6.143   6.997  14.983  0.5884 -1.5322 -1.1549
  170DOPC  C21120689   6.348   6.917  14.999  0.8583  0.2025  0.3537
  170DOPC  H11R20690   6.437   6.929  15.064  2.6310  0.6559 -2.0536
  170DOPC  H11S20691   6.380   6.962  14.903  2.3185  1.3873  1.3525
  170DOPC  C21220692   6.307   6.773  14.998 -0.1224  0.0768  0.3796
  170DOPC  H12R20693   6.201   6.760  14.966  0.2251  0.5014 -1.0355
  170DOPC  H12S20694   6.323   6.718  15.093 -1.8846  2.4968  2.2000
  170DOPC  C21320695   6.390   6.699  14.891  0.1795 -0.6639 -0.2620
  170DOPC  H13R20696   6.496   6.722  14.918 -0.3930  1.2130  0.5510
  170DOPC  H13S20697   6.387   6.741  14.788 -1.0174  0.7393  0.3096
  170DOPC  C21420698   6.372   6.550  14.894  0.5794  0.3654  0.5735
  170DOPC  H14R20699   6.265   6.524  14.874  0.9494  0.5309 -1.9729
  170DOPC  H14S20700   6.393   6.500  14.991  0.6528 -0.9416 -0.0967
  170DOPC  C21520701   6.459   6.495  14.783  0.2800  0.1710  0.2596
  170DOPC  H15R20702   6.481   6.387  14.786 -1.5460 -0.3631 -2.1448
  170DOPC  H15S20703   6.558   6.545  14.787 -0.0230  0.8327 -0.1883
  170DOPC  C21620704   6.409   6.507  14.635 -0.0069  0.2737 -0.6549
  170DOPC  H16R20705   6.340   6.593  14.624 -0.1276  0.2547 -0.0687
  170DOPC  H16S20706   6.331   6.428  14.625 -1.2158  0.9455  2.3315
  170DOPC  C21720707   6.513   6.509  14.531 -0.2496 -0.1244  0.6148
  170DOPC  H17R20708   6.561   6.409  14.530  1.1918  0.4547  3.0939
  170DOPC  H17S20709   6.593   6.579  14.562 -1.9199  0.9141  2.8037
  170DOPC  C21820710   6.457   6.535  14.392 -0.1755 -0.6095 -0.1160
  170DOPC  H18R20711   6.400   6.631  14.388 -1.3921 -1.3125 -0.1494
  170DOPC  H18S20712   6.370   6.470  14.370 -2.0323  1.2868  1.1473
  170DOPC  H18T20713   6.527   6.533  14.306 -0.0395  0.3595 -0.0404
  170DOPC   C3320714   6.511   7.639  15.443  0.2659  0.1355 -0.2724
  170DOPC   H3X20715   6.451   7.731  15.458 -0.3102 -0.2707 -0.0417
  170DOPC   H3Y20716   6.439   7.554  15.445 -1.9885  1.9459 -0.1638
  170DOPC   C3420717   6.569   7.639  15.298 -0.6419  0.1550 -0.7613
  170DOPC   H4X20718   6.584   7.532  15.275 -2.0607 -0.7496  2.1286
  170DOPC   H4Y20719   6.673   7.679  15.306 -0.9729  0.8979  0.0804
  170DOPC   C3520720   6.486   7.721  15.203 -0.2117 -0.0235  0.6544
  170DOPC   H5X20721   6.465   7.820  15.249 -1.8009 -0.2727  0.5223
  170DOPC   H5Y20722   6.384   7.679  15.186 -0.0491 -0.1617 -0.0210
  170DOPC   C3620723   6.561   7.749  15.073 -0.2397 -0.0502  0.1287
  170DOPC   H6X20724   6.657   7.797  15.101  1.6295 -2.7965 -1.0950
  170DOPC   H6Y20725   6.597   7.654  15.027 -1.7089  0.8248 -3.1239
  170DOPC   C3720726   6.484   7.830  14.965 -0.6621 -0.2576 -0.1548
  170DOPC   H7X20727   6.393   7.776  14.933 -1.2333  0.8210 -0.4003
  170DOPC   H7Y20728   6.447   7.916  15.024  3.8522 -0.3474  3.3796
  170DOPC   C3820729   6.568   7.871  14.844  0.1698  0.4116 -0.0953
  170DOPC   H8X20730   6.672   7.893  14.875 -0.1291  2.3236 -0.3415
  170DOPC   H8Y20731   6.534   7.971  14.808  0.8983  1.9514  3.0944
  170DOPC   C3920732   6.559   7.756  14.744 -0.1114  0.4167 -0.2015
  170DOPC   H9X20733   6.469   7.741  14.683 -0.6788 -1.1491  0.9658
  170DOPC  C31020734   6.655   7.663  14.732 -0.1207  0.4164  0.6058
  170DOPC  H10X20735   6.655   7.593  14.647  1.6413  1.5748 -0.4185
  170DOPC  C31120736   6.781   7.647  14.815 -0.5346 -0.2370 -0.2985
  170DOPC  H11X20737   6.784   7.700  14.913  1.9446 -0.6978 -0.0622
  170DOPC  H11Y20738   6.876   7.675  14.765 -0.9732 -1.0822 -1.6725
  170DOPC  C31220739   6.806   7.500  14.864 -1.1698 -0.7918 -0.2278
  170DOPC  H12X20740   6.790   7.425  14.784  0.4634 -1.7452  0.2862
  170DOPC  H12Y20741   6.739   7.473  14.948 -0.7975 -0.9210  0.0294
  170DOPC  C31320742   6.959   7.489  14.907  0.1167  0.2820  0.4965
  170DOPC  H13X20743   6.965   7.388  14.952 -1.2932 -0.2418 -0.3967
  170DOPC  H13Y20744   7.016   7.476  14.812 -1.5448  0.0722 -0.5168
  170DOPC  C31420745   7.027   7.601  14.984 -0.6048 -0.3118  0.5634
  170DOPC  H14X20746   7.135   7.577  14.990 -1.3925 -4.3075  1.6533
  170DOPC  H14Y20747   7.025   7.694  14.922  2.0005 -0.7204 -0.2834
  170DOPC  C31520748   6.972   7.634  15.123 -0.1499 -0.0179  0.3466
  170DOPC  H15X20749   6.862   7.628  15.128 -0.1921 -0.1244 -0.5061
  170DOPC  H15Y20750   7.004   7.735  15.158 -0.6381  1.1259 -2.2772
  170DOPC  C31620751   7.027   7.535  15.225 -0.0817  0.1907 -0.4070
  170DOPC  H16X20752   7.008   7.432  15.188 -0.5655 -0.3666  1.2732
  170DOPC  H16Y20753   7.137   7.551  15.229  0.0704 -0.4258 -1.6449
  170DOPC  C31720754   6.953   7.539  15.362  0.7397  0.4404  0.2328
  170DOPC  H17X20755   6.844   7.537  15.341  0.4563 -0.8324  1.6566
  170DOPC  H17Y20756   6.974   7.451  15.426  1.3857 -0.0469 -0.6215
  170DOPC  C31820757   6.982   7.666  15.440 -0.2273 -0.4377  0.4741
  170DOPC  H18X20758   7.090   7.692  15.443 -0.1342 -0.4512 -1.5683
  170DOPC  H18Y20759   6.934   7.753  15.391 -2.2213 -1.0874  1.1676
  170DOPC  H18Z20760   6.941   7.670  15.544  0.2316 -0.7602  0.6703
  171DOPC     N20761   3.722   3.086  12.077 -0.2705  0.4596 -1.0419
  171DOPC   C1220762   3.740   3.061  12.231  0.6934  0.2298  0.0310
  171DOPC  H12A20763   3.672   2.984  12.263  0.9042  0.8538  2.0790
  171DOPC  H12B20764   3.716   3.148  12.290 -1.9424 -0.8772  0.7098
  171DOPC   C1320765   3.814   3.195  12.038 -0.2291 -0.1430 -0.1967
  171DOPC  H13A20766   3.820   3.284  12.100  0.3609 -0.5901  0.4089
  171DOPC  H13B20767   3.917   3.164  12.044  0.1524  1.0886  0.0093
  171DOPC  H13C20768   3.810   3.223  11.934  0.9670  1.7475  0.2051
  171DOPC   C1420769   3.580   3.125  12.050  0.1521  0.2303  0.7428
  171DOPC  H14A20770   3.557   3.116  11.945  0.7478 -1.0406  0.6990
  171DOPC  H14B20771   3.512   3.064  12.108 -1.3524  1.5572  0.4278
  171DOPC  H14C20772   3.558   3.222  12.090  0.4655 -0.1071  1.7555
  171DOPC   C1520773   3.746   2.957  11.998  0.4483 -0.6775 -0.0369
  171DOPC  H15A20774   3.720   2.981  11.896  2.1623  3.0203  0.2312
  171DOPC  H15B20775   3.688   2.872  12.028 -0.2691 -0.7393 -1.5545
  171DOPC  H15C20776   3.850   2.929  12.012  0.4557  0.5291  3.6288
  171DOPC   C1120777   3.878   3.005  12.273 -0.2573  0.0196  0.1170
  171DOPC  H11A20778   3.880   3.013  12.384 -1.5232  4.1408  0.0292
  171DOPC  H11B20779   3.885   2.897  12.250  0.2718  0.4740 -2.1433
  171DOPC     P20780   4.112   3.024  12.151  0.2596  0.2987 -0.1751
  171DOPC   O1320781   4.217   3.128  12.137 -0.1881 -0.6263  0.5579
  171DOPC   O1420782   4.076   2.943  12.028 -0.0373 -0.6262 -0.1567
  171DOPC   O1220783   3.982   3.084  12.217  0.0758  0.0981  0.5797
  171DOPC   O1120784   4.161   2.928  12.263  0.5493  0.2805 -0.0547
  171DOPC    C120785   4.224   2.992  12.382 -0.2858 -0.5211  0.8070
  171DOPC    HA20786   4.208   2.922  12.467 -0.5321 -0.1865  1.0408
  171DOPC    HB20787   4.184   3.093  12.406  3.4811  1.3175  0.1118
  171DOPC    C220788   4.375   3.015  12.372 -0.3646  0.0074 -0.6201
  171DOPC    HS20789   4.393   3.075  12.281 -0.8752 -1.4906 -1.7565
  171DOPC   O2120790   4.439   2.886  12.371  0.2557 -0.7681  0.3550
  171DOPC   C2120791   4.556   2.888  12.308  0.0066  0.5350  0.2704
  171DOPC   O2220792   4.591   2.977  12.233  0.4883  0.1786 -0.0638
  171DOPC   C2220793   4.639   2.766  12.344  0.1895  0.3520 -0.5977
  171DOPC   H2R20794   4.678   2.714  12.254 -0.0544 -1.8126  0.4875
  171DOPC   H2S20795   4.576   2.698  12.405  1.4318 -0.9001 -0.6513
  171DOPC    C320796   4.430   3.108  12.484  0.2762  0.1875 -0.0108
  171DOPC    HX20797   4.401   3.213  12.459  1.5717  0.6999  0.5418
  171DOPC    HY20798   4.540   3.124  12.491  0.4554 -0.9592 -0.1404
  171DOPC   O3120799   4.382   3.067  12.616  0.2382 -0.2403 -0.6978
  171DOPC   C3120800   4.466   3.014  12.700  0.5166  0.1846  0.9715
  171DOPC   O3220801   4.585   3.019  12.694 -0.0085 -0.5319 -0.1474
  171DOPC   C3220802   4.385   2.938  12.803 -0.1509 -0.3453 -0.4984
  171DOPC   H2X20803   4.331   3.011  12.867  2.1074  0.1985  0.8910
  171DOPC   H2Y20804   4.315   2.868  12.754 -0.7770  0.1919 -0.3853
  171DOPC   C2320805   4.768   2.811  12.418  0.1469 -0.2458 -0.4769
  171DOPC   H3R20806   4.746   2.889  12.494  1.4422  0.1118 -0.4399
  171DOPC   H3S20807   4.843   2.852  12.347 -0.7741  2.7715  0.1522
  171DOPC   C2420808   4.842   2.705  12.495  0.2295 -0.6776 -0.3752
  171DOPC   H4R20809   4.921   2.759  12.552 -1.0612  0.4353  0.4126
  171DOPC   H4S20810   4.872   2.624  12.425 -1.0894 -1.5940  0.0941
  171DOPC   C2520811   4.750   2.634  12.594 -0.4406  0.0256 -0.0742
  171DOPC   H5R20812   4.683   2.568  12.534 -0.1193 -1.4317  1.1266
  171DOPC   H5S20813   4.685   2.714  12.637  0.2651  0.3963  0.3173
  171DOPC   C2620814   4.819   2.557  12.700 -0.5709  0.0477  0.1381
  171DOPC   H6R20815   4.882   2.634  12.751 -1.4511  0.5634  0.4751
  171DOPC   H6S20816   4.902   2.494  12.662 -0.0838 -0.2455  1.6146
  171DOPC   C2720817   4.725   2.484  12.788 -0.0978  0.6118 -0.3259
  171DOPC   H7R20818   4.687   2.391  12.741  2.0962 -0.6171  0.2319
  171DOPC   H7S20819   4.631   2.542  12.803 -0.4743  0.2640 -1.2569
  171DOPC   C2820820   4.777   2.445  12.928  0.3331 -0.3856 -0.0250
  171DOPC   H8R20821   4.812   2.535  12.983 -2.1590  0.1319  0.8511
  171DOPC   H8S20822   4.858   2.370  12.913  1.3951  0.6568  0.3404
  171DOPC   C2920823   4.666   2.397  13.017  0.4097  0.0081  0.0761
  171DOPC   H9R20824   4.581   2.466  13.013  0.7181  0.3235 -2.4970
  171DOPC  C21020825   4.668   2.293  13.102  0.0921 -0.1510 -1.0059
  171DOPC  H10R20826   4.579   2.285  13.167  1.4357 -2.6054  0.6352
  171DOPC  C21120827   4.788   2.201  13.125  0.4521  0.3227  0.2485
  171DOPC  H11R20828   4.848   2.206  13.031  1.3375 -1.0045  0.7142
  171DOPC  H11S20829   4.756   2.094  13.127 -4.0301  1.4242 -0.1768
  171DOPC  C21220830   4.869   2.242  13.253 -0.1411  0.7613 -0.3793
  171DOPC  H12R20831   4.906   2.346  13.244  1.3757  0.2564 -0.2688
  171DOPC  H12S20832   4.961   2.180  13.246 -1.0214 -0.8189  0.9999
  171DOPC  C21320833   4.802   2.203  13.390  0.4470 -0.1728  0.0531
  171DOPC  H13R20834   4.767   2.097  13.387  2.7087 -1.0669  2.1612
  171DOPC  H13S20835   4.708   2.258  13.412  0.3107 -0.9370  1.5347
  171DOPC  C21420836   4.897   2.204  13.507 -0.3726 -0.0942 -0.4864
  171DOPC  H14R20837   4.989   2.146  13.484  0.1902  0.6557 -0.1770
  171DOPC  H14S20838   4.868   2.151  13.600 -0.3369 -0.7178 -0.8247
  171DOPC  C21520839   4.937   2.348  13.533  0.9228 -0.2099  0.4237
  171DOPC  H15R20840   4.850   2.411  13.564  1.7325  0.1806  2.0025
  171DOPC  H15S20841   4.987   2.393  13.445  0.2999  0.4798  0.4085
  171DOPC  C21620842   5.054   2.373  13.629  0.9189  0.2252 -0.2219
  171DOPC  H16R20843   5.090   2.474  13.599 -2.2258  1.8878  1.1100
  171DOPC  H16S20844   5.123   2.287  13.613 -0.2294 -1.5989  3.5139
  171DOPC  C21720845   5.016   2.386  13.779 -0.3334 -0.0966 -0.0739
  171DOPC  H17R20846   4.954   2.478  13.783 -0.3777 -0.1013 -0.5532
  171DOPC  H17S20847   5.112   2.410  13.828  0.8618 -0.0739 -2.2965
  171DOPC  C21820848   4.948   2.271  13.842  0.9500  0.5459 -0.3881
  171DOPC  H18R20849   5.011   2.180  13.860 -2.9610 -2.5403 -0.9831
  171DOPC  H18S20850   4.864   2.239  13.777 -0.6873  3.0878  0.3545
  171DOPC  H18T20851   4.901   2.287  13.941  3.7534 -3.1319  1.7930
  171DOPC   C3320852   4.476   2.852  12.892 -0.7244  0.2509 -0.2660
  171DOPC   H3X20853   4.519   2.914  12.973 -1.8758  3.3003 -1.8053
  171DOPC   H3Y20854   4.558   2.819  12.824 -0.5243  0.5109 -0.1514
  171DOPC   C3420855   4.421   2.722  12.944 -0.4201  0.8864 -0.3626
  171DOPC   H4X20856   4.508   2.655  12.963  0.2254  1.4504 -1.2565
  171DOPC   H4Y20857   4.352   2.675  12.870 -0.8665 -0.1744  0.6936
  171DOPC   C3520858   4.329   2.725  13.074  0.0120 -0.1864 -0.8943
  171DOPC   H5X20859   4.256   2.807  13.055 -1.2203 -1.3523 -1.3051
  171DOPC   H5Y20860   4.395   2.765  13.154 -1.1806  2.8553 -1.2934
  171DOPC   C3620861   4.275   2.586  13.119  0.0135  0.1289 -0.1983
  171DOPC   H6X20862   4.220   2.543  13.033 -1.7126  0.4203  0.7151
  171DOPC   H6Y20863   4.353   2.510  13.137  0.5360  0.5283 -0.7681
  171DOPC   C3720864   4.172   2.597  13.229 -0.2405 -0.2666 -0.3246
  171DOPC   H7X20865   4.091   2.670  13.204 -1.2072 -0.8120  1.0926
  171DOPC   H7Y20866   4.123   2.499  13.245 -1.4443  0.4329  0.5103
  171DOPC   C3820867   4.232   2.649  13.368  0.3494 -0.3238  0.0248
  171DOPC   H8X20868   4.146   2.665  13.436  0.2110 -1.1135  0.0533
  171DOPC   H8Y20869   4.274   2.750  13.349 -0.8394  0.7040  2.4367
  171DOPC   C3920870   4.334   2.561  13.433  0.0837  0.6010 -0.0483
  171DOPC   H9X20871   4.435   2.586  13.398 -0.5390  0.5636 -2.0136
  171DOPC  C31020872   4.315   2.446  13.506 -0.3742  0.2650 -0.0630
  171DOPC  H10X20873   4.389   2.399  13.572  0.2179  0.9805 -0.2054
  171DOPC  C31120874   4.177   2.395  13.537 -0.3644 -0.1059 -0.1274
  171DOPC  H11X20875   4.144   2.320  13.462 -0.2832 -0.8876  0.5982
  171DOPC  H11Y20876   4.101   2.476  13.528 -1.7281 -1.2153  0.9252
  171DOPC  C31220877   4.157   2.320  13.672 -0.1135 -0.2497  0.4079
  171DOPC  H12X20878   4.244   2.256  13.694  1.7023  2.1604  0.6510
  171DOPC  H12Y20879   4.060   2.269  13.655 -0.5408  1.1718 -1.8976
  171DOPC  C31320880   4.149   2.417  13.794  0.1423 -0.0627  0.6879
  171DOPC  H13X20881   4.239   2.480  13.776 -1.5722  2.0436 -1.0146
  171DOPC  H13Y20882   4.059   2.478  13.771  1.0129  0.6841 -0.9046
  171DOPC  C31420883   4.153   2.354  13.930 -0.4092  0.1014 -0.1033
  171DOPC  H14X20884   4.062   2.295  13.955 -0.3303  0.3781  0.9062
  171DOPC  H14Y20885   4.229   2.273  13.926 -2.8047 -2.2540 -3.6549
  171DOPC  C31520886   4.185   2.452  14.047  0.8666  0.0711 -0.3765
  171DOPC  H15X20887   4.237   2.541  14.006  0.3305  1.5289  1.9024
  171DOPC  H15Y20888   4.238   2.393  14.126 -1.3156  0.0296  1.1464
  171DOPC  C31620889   4.064   2.503  14.125  0.0716  1.0827  0.9788
  171DOPC  H16X20890   4.089   2.595  14.181  1.5089  2.0092 -1.0402
  171DOPC  H16Y20891   3.982   2.521  14.052  1.5110 -0.7975 -1.2716
  171DOPC  C31720892   4.012   2.404  14.231 -0.5207 -0.2782 -0.8763
  171DOPC  H17X20893   3.919   2.439  14.281  0.3763 -0.5594  1.0807
  171DOPC  H17Y20894   3.999   2.300  14.194 -0.0302 -1.3956  1.8567
  171DOPC  C31820895   4.117   2.389  14.348  0.8240  0.0104 -0.4197
  171DOPC  H18X20896   4.189   2.312  14.314 -0.9105 -1.0598 -1.9050
  171DOPC  H18Y20897   4.171   2.485  14.355  0.0795  0.5617 -1.8217
  171DOPC  H18Z20898   4.067   2.357  14.442 -0.8151 -0.7805 -1.5133
  172DOPC     N20899   3.773   4.265  12.188 -0.7896  0.0061  0.4677
  172DOPC   C1220900   3.645   4.173  12.192 -0.1994 -0.2207 -0.4853
  172DOPC  H12A20901   3.680   4.073  12.172  0.6074 -0.3128  1.2045
  172DOPC  H12B20902   3.571   4.197  12.118  0.0530  0.1242 -0.6257
  172DOPC   C1320903   3.868   4.238  12.300  0.0327  0.7918  0.2080
  172DOPC  H13A20904   3.887   4.131  12.299 -2.0840  0.3185 -2.7421
  172DOPC  H13B20905   3.954   4.303  12.299  0.4733  0.2358  0.7241
  172DOPC  H13C20906   3.823   4.257  12.396  1.4325  0.8684  0.8812
  172DOPC   C1420907   3.724   4.407  12.190  0.0057  0.6050 -0.0712
  172DOPC  H14A20908   3.799   4.465  12.137  1.4010 -1.0867 -0.0233
  172DOPC  H14B20909   3.629   4.422  12.141  0.4313 -0.9835 -1.4786
  172DOPC  H14C20910   3.713   4.432  12.295  0.5548  0.0316  0.1291
  172DOPC   C1520911   3.844   4.249  12.060 -0.4229 -0.1052 -0.1511
  172DOPC  H15A20912   3.944   4.290  12.052 -1.0919  1.7147  0.1391
  172DOPC  H15B20913   3.792   4.293  11.975  1.6533  1.1771 -0.8408
  172DOPC  H15C20914   3.855   4.147  12.029  1.2192  0.0397 -0.1614
  172DOPC   C1120915   3.578   4.148  12.332  0.1914  0.4765 -0.2323
  172DOPC  H11A20916   3.501   4.068  12.331 -3.1770  3.4797  0.7069
  172DOPC  H11B20917   3.662   4.124  12.401  0.6356  0.2908 -0.8279
  172DOPC     P20918   3.377   4.319  12.297  0.1611  0.1001 -0.4035
  172DOPC   O1320919   3.309   4.213  12.216 -0.3578 -0.8627 -0.6521
  172DOPC   O1420920   3.409   4.444  12.230  0.6276 -0.4709 -0.1123
  172DOPC   O1220921   3.513   4.272  12.373  0.4882  0.0762  0.5687
  172DOPC   O1120922   3.289   4.343  12.416  1.0290 -0.2656 -0.1666
  172DOPC    C120923   3.237   4.251  12.515 -0.3483 -0.5952  0.5757
  172DOPC    HA20924   3.235   4.144  12.486  0.4709 -0.4073 -0.1949
  172DOPC    HB20925   3.131   4.271  12.542 -0.0777  0.7249  0.6977
  172DOPC    C220926   3.313   4.254  12.656 -0.5294  0.1402  0.2148
  172DOPC    HS20927   3.417   4.217  12.642 -0.6114  0.0719 -0.2054
  172DOPC   O2120928   3.249   4.156  12.746 -0.1650 -0.1485  0.0573
  172DOPC   C2120929   3.281   4.030  12.726 -0.2792 -0.2956 -0.3962
  172DOPC   O2220930   3.359   3.989  12.648  0.0926  0.0808 -0.0537
  172DOPC   C2220931   3.207   3.938  12.827  0.8613 -0.3520 -0.2795
  172DOPC   H2R20932   3.097   3.939  12.811  0.3907  0.5919  2.4309
  172DOPC   H2S20933   3.212   3.977  12.930 -1.6260 -1.6600  0.4109
  172DOPC    C320934   3.317   4.392  12.717 -0.4568 -0.1977 -0.1980
  172DOPC    HX20935   3.220   4.445  12.728  0.5609  1.6466  0.3246
  172DOPC    HY20936   3.361   4.465  12.646 -0.2289 -0.2304 -0.0891
  172DOPC   O3120937   3.364   4.398  12.852  0.6965 -0.3020 -0.3523
  172DOPC   C3120938   3.488   4.370  12.869  0.5460 -0.7599  0.3277
  172DOPC   O3220939   3.575   4.370  12.785  0.1759 -0.1767  0.0596
  172DOPC   C3220940   3.513   4.351  13.018  0.8268  0.0364 -0.6509
  172DOPC   H2X20941   3.448   4.268  13.054  0.5439  0.3543 -0.4260
  172DOPC   H2Y20942   3.617   4.311  13.011  1.9509  2.6182  0.0077
  172DOPC   C2320943   3.253   3.793  12.810 -0.5112  0.4073 -0.3395
  172DOPC   H3R20944   3.364   3.797  12.805 -0.3030 -0.3119  2.1765
  172DOPC   H3S20945   3.217   3.744  12.716  0.4874  1.0946 -1.0923
  172DOPC   C2420946   3.200   3.705  12.930  0.6807  0.6519  0.3191
  172DOPC   H4R20947   3.097   3.670  12.904 -0.0924  2.4251  0.8687
  172DOPC   H4S20948   3.190   3.770  13.019  1.8752 -1.2907  1.9413
  172DOPC   C2520949   3.275   3.570  12.968  0.1957  0.0430  0.4832
  172DOPC   H5R20950   3.382   3.599  12.971 -0.6739  3.7218  3.1964
  172DOPC   H5S20951   3.271   3.493  12.888 -0.2189  1.3920 -0.8381
  172DOPC   C2620952   3.242   3.511  13.103  0.1615 -0.2069 -0.0217
  172DOPC   H6R20953   3.275   3.405  13.100 -0.0305 -0.2456 -1.0153
  172DOPC   H6S20954   3.132   3.500  13.110 -0.0702 -2.1251 -3.9946
  172DOPC   C2720955   3.320   3.580  13.217  0.2419 -0.3002 -0.3293
  172DOPC   H7R20956   3.284   3.686  13.217  0.8104 -0.0972 -1.6921
  172DOPC   H7S20957   3.426   3.587  13.185  0.9938  1.8180  2.1962
  172DOPC   C2820958   3.312   3.517  13.358 -0.4914  0.3802  0.3796
  172DOPC   H8R20959   3.384   3.434  13.369 -1.0708 -0.3181 -0.8400
  172DOPC   H8S20960   3.209   3.481  13.376  0.2511 -0.9427  2.2713
  172DOPC   C2920961   3.330   3.625  13.458 -0.1585  0.2275  0.1944
  172DOPC   H9R20962   3.405   3.702  13.434  1.4533 -1.8772 -2.0285
  172DOPC  C21020963   3.275   3.639  13.580  0.4928 -0.5495 -0.0826
  172DOPC  H10R20964   3.314   3.715  13.650 -1.6634 -1.2622  2.0549
  172DOPC  C21120965   3.181   3.543  13.647  0.1840  0.1302  0.2457
  172DOPC  H11R20966   3.228   3.494  13.735 -0.6405 -1.6764 -0.2782
  172DOPC  H11S20967   3.153   3.464  13.574  0.8138  0.0633  0.0764
  172DOPC  C21220968   3.060   3.619  13.701  0.8029 -0.3942  0.3476
  172DOPC  H12R20969   3.094   3.708  13.758  1.0671  1.0458 -1.9053
  172DOPC  H12S20970   3.003   3.546  13.762  1.6111  0.0475  1.6802
  172DOPC  C21320971   2.973   3.674  13.594  0.8992  0.2334  0.2528
  172DOPC  H13R20972   2.939   3.592  13.527  3.4782 -2.2821  1.7839
  172DOPC  H13S20973   3.024   3.748  13.528  1.9203 -0.7604 -0.0994
  172DOPC  C21420974   2.842   3.731  13.648  0.0509 -0.0489 -0.2801
  172DOPC  H14R20975   2.793   3.652  13.707 -0.4286 -1.4697 -2.4530
  172DOPC  H14S20976   2.782   3.742  13.555  0.6005 -2.0075 -0.9021
  172DOPC  C21520977   2.857   3.858  13.735  0.4401  0.8001  0.3697
  172DOPC  H15R20978   2.910   3.942  13.686  0.1811  0.2071 -0.9534
  172DOPC  H15S20979   2.916   3.823  13.823 -0.8577 -0.1081  0.9093
  172DOPC  C21620980   2.716   3.912  13.784 -0.3028 -0.2374 -0.1137
  172DOPC  H16R20981   2.635   3.846  13.822 -1.4018  1.4960  0.6765
  172DOPC  H16S20982   2.679   3.964  13.693  0.4786 -0.7137 -0.7113
  172DOPC  C21720983   2.736   4.019  13.888  0.1374  0.1352  0.3813
  172DOPC  H17R20984   2.651   4.089  13.904  1.6665  1.9960  0.8550
  172DOPC  H17S20985   2.819   4.083  13.850 -2.3451  2.2151 -1.9251
  172DOPC  C21820986   2.776   3.959  14.026  0.2790 -0.1824 -0.5535
  172DOPC  H18R20987   2.696   3.896  14.069 -0.0482  0.3383 -0.3913
  172DOPC  H18S20988   2.789   4.048  14.091 -1.9413  0.5072 -0.9711
  172DOPC  H18T20989   2.874   3.907  14.035  1.4736  1.8346 -1.3554
  172DOPC   C3320990   3.495   4.467  13.121 -0.0834 -0.3920 -0.1269
  172DOPC   H3X20991   3.406   4.528  13.092  0.0266 -0.3171 -0.3094
  172DOPC   H3Y20992   3.583   4.535  13.112 -0.5400  0.2131 -0.1029
  172DOPC   C3420993   3.477   4.421  13.267 -0.8203 -0.7744 -0.0548
  172DOPC   H4X20994   3.561   4.348  13.277  1.5204  1.4548 -1.9695
  172DOPC   H4Y20995   3.382   4.366  13.280 -1.7606  0.6102 -0.8042
  172DOPC   C3520996   3.486   4.541  13.366 -0.7359 -0.4249  1.1225
  172DOPC   H5X20997   3.420   4.618  13.319 -0.9104 -0.2508  1.6548
  172DOPC   H5Y20998   3.589   4.580  13.353 -0.1182 -2.1401  0.5081
  172DOPC   C3620999   3.462   4.499  13.505 -0.3742 -0.0383 -0.1165
  172DOPC   H6X21000   3.362   4.451  13.518 -0.7968  0.1944 -2.1292
  172DOPC   H6Y21001   3.533   4.425  13.548 -1.6025 -1.8986 -1.1450
  172DOPC   C3721002   3.465   4.618  13.610 -0.0208 -0.6295  0.4551
  172DOPC   H7X21003   3.410   4.699  13.557 -0.7876  0.1964  2.4137
  172DOPC   H7Y21004   3.421   4.586  13.707  0.7913  2.0939  1.8421
  172DOPC   C3821005   3.608   4.665  13.641 -0.5893 -0.1930  0.1069
  172DOPC   H8X21006   3.598   4.763  13.692 -2.3691 -0.3992  0.2247
  172DOPC   H8Y21007   3.658   4.671  13.541 -0.3284 -0.0504  0.2444
  172DOPC   C3921008   3.676   4.555  13.724 -0.8176  0.5745  0.2393
  172DOPC   H9X21009   3.743   4.484  13.672  0.9626  1.4407  1.2562
  172DOPC  C31021010   3.691   4.563  13.859  0.1604  0.5299  0.3506
  172DOPC  H10X21011   3.736   4.477  13.911 -2.3118 -0.0309  1.7278
  172DOPC  C31121012   3.636   4.671  13.941  0.5466  0.6713 -0.1743
  172DOPC  H11X21013   3.627   4.634  14.045 -0.5037  0.9041 -0.1736
  172DOPC  H11Y21014   3.527   4.684  13.928  0.0054 -1.0721  2.0674
  172DOPC  C31221015   3.709   4.800  13.943  0.3492  0.4578  0.6195
  172DOPC  H12X21016   3.698   4.836  13.838 -1.7346  1.6915  1.1944
  172DOPC  H12Y21017   3.817   4.782  13.962  0.1339  0.4890  1.9073
  172DOPC  C31321018   3.643   4.893  14.040  0.2945  0.6256 -0.5015
  172DOPC  H13X21019   3.646   4.997  14.001 -0.3248  0.7058 -0.3494
  172DOPC  H13Y21020   3.536   4.866  14.052  1.0467 -2.0855  0.9532
  172DOPC  C31421021   3.709   4.892  14.182  0.4955  0.1853  0.0032
  172DOPC  H14X21022   3.723   4.789  14.219 -0.9888  0.4986  1.5404
  172DOPC  H14Y21023   3.805   4.948  14.181  0.6338  0.2314  3.7700
  172DOPC  C31521024   3.622   4.954  14.293 -0.1762 -0.2978 -0.4878
  172DOPC  H15X21025   3.518   4.923  14.271 -1.2798  1.8906  1.2253
  172DOPC  H15Y21026   3.627   5.065  14.285 -0.1538 -0.2291  0.3856
  172DOPC  C31621027   3.660   4.904  14.435 -0.2033  0.3905 -0.5095
  172DOPC  H16X21028   3.620   4.800  14.440 -2.3172  1.1699 -0.1704
  172DOPC  H16Y21029   3.770   4.906  14.451 -0.3662 -0.1247  0.7117
  172DOPC  C31721030   3.598   4.979  14.546  0.4688 -0.0840 -0.1386
  172DOPC  H17X21031   3.610   5.089  14.536 -0.1778 -0.0299 -0.3755
  172DOPC  H17Y21032   3.490   4.952  14.548  0.4424  0.0330  0.1047
  172DOPC  C31821033   3.662   4.950  14.682  0.1525  0.4537  0.4573
  172DOPC  H18X21034   3.653   4.841  14.704 -0.6893  0.5126  0.4096
  172DOPC  H18Y21035   3.771   4.967  14.671  0.7791 -3.0644 -0.0333
  172DOPC  H18Z21036   3.617   5.013  14.761  0.1073 -0.8809  1.5364
  173DOPC     N21037   1.032   2.708  12.010 -0.3312 -0.0280 -0.2751
  173DOPC   C1221038   1.128   2.796  12.092  0.0469 -1.1297  0.1016
  173DOPC  H12A21039   1.161   2.880  12.033  0.6736 -2.3462 -1.3606
  173DOPC  H12B21040   1.220   2.742  12.106 -0.5892 -1.8637  1.6171
  173DOPC   C1321041   1.028   2.566  12.068 -0.5292  0.2632 -0.0045
  173DOPC  H13A21042   1.124   2.517  12.058 -0.0572  1.1545  0.0624
  173DOPC  H13B21043   1.011   2.576  12.174  1.5629  0.5880  0.3330
  173DOPC  H13C21044   0.951   2.508  12.020 -0.4000 -0.5906  0.7854
  173DOPC   C1421045   1.074   2.685  11.867  0.0794 -0.9545  0.2666
  173DOPC  H14A21046   1.042   2.768  11.806 -2.0341 -2.2245 -0.4986
  173DOPC  H14B21047   1.178   2.671  11.844 -0.2751 -4.4206  0.1849
  173DOPC  H14C21048   1.010   2.607  11.828 -1.3479 -0.4183  1.4229
  173DOPC   C1521049   0.900   2.765  12.012  0.2474 -0.4501 -0.3735
  173DOPC  H15A21050   0.903   2.863  11.967 -1.8299 -0.5056 -0.7209
  173DOPC  H15B21051   0.861   2.762  12.113  0.5197 -3.3412 -0.2789
  173DOPC  H15C21052   0.839   2.707  11.945  0.1953 -0.1811 -0.5609
  173DOPC   C1121053   1.091   2.852  12.235 -0.4774  0.3355  0.6005
  173DOPC  H11A21054   1.033   2.768  12.279  2.1078 -1.5446  0.6606
  173DOPC  H11B21055   1.179   2.870  12.301  1.9083  1.9206 -2.7366
  173DOPC     P21056   1.084   3.109  12.202  0.3385  0.0460 -0.2151
  173DOPC   O1321057   0.980   3.209  12.215 -0.8675 -0.6101 -0.2517
  173DOPC   O1421058   1.151   3.100  12.069 -0.1059 -0.3831  0.2043
  173DOPC   O1221059   1.010   2.970  12.234 -0.5009 -0.0755  0.6244
  173DOPC   O1121060   1.189   3.133  12.317 -0.1711 -0.3988 -0.1950
  173DOPC    C121061   1.135   3.117  12.449  0.7046  0.0005  0.2964
  173DOPC    HA21062   1.215   3.075  12.512  0.4913 -0.0130  0.5621
  173DOPC    HB21063   1.044   3.054  12.462  0.0223  1.2296  2.0345
  173DOPC    C221064   1.090   3.259  12.508  0.7681  0.6222 -0.0092
  173DOPC    HS21065   1.029   3.309  12.429  0.0163 -0.7823 -0.3731
  173DOPC   O2121066   1.204   3.332  12.559 -0.1776 -0.0241  0.0846
  173DOPC   C2121067   1.235   3.440  12.484  1.0115 -0.0982 -0.5663
  173DOPC   O2221068   1.163   3.482  12.392 -0.4826  0.1106 -0.4333
  173DOPC   C2221069   1.358   3.514  12.543  0.6207 -0.1852 -0.1773
  173DOPC   H2R21070   1.425   3.528  12.455  2.0268  1.7479  1.1081
  173DOPC   H2S21071   1.413   3.448  12.613  0.0188 -1.4700 -0.8778
  173DOPC    C321072   0.976   3.239  12.616 -0.0190 -0.0032  0.5439
  173DOPC    HX21073   0.910   3.156  12.585  1.2783 -0.8247 -0.0789
  173DOPC    HY21074   0.911   3.330  12.609  0.7390  0.5347  0.4359
  173DOPC   O3121075   1.028   3.208  12.749 -0.2110 -0.3747 -0.1872
  173DOPC   C3121076   1.040   3.305  12.834  0.2843 -0.0863 -0.2468
  173DOPC   O3221077   1.012   3.421  12.804  0.0106 -0.3607 -0.5059
  173DOPC   C3221078   1.145   3.267  12.942  0.1826  0.5573 -0.0288
  173DOPC   H2X21079   1.203   3.179  12.906 -2.5214 -1.3195 -0.1347
  173DOPC   H2Y21080   1.206   3.357  12.962 -0.8998  0.7430  2.9285
  173DOPC   C2321081   1.333   3.656  12.606  0.3233  0.6528  0.2797
  173DOPC   H3R21082   1.256   3.712  12.550 -0.9253 -0.1147  1.1592
  173DOPC   H3S21083   1.430   3.710  12.617 -1.1358  2.9926  2.9138
  173DOPC   C2421084   1.275   3.632  12.748 -0.4437  0.2290  0.8006
  173DOPC   H4R21085   1.354   3.581  12.807  2.3461  1.3103 -1.6903
  173DOPC   H4S21086   1.185   3.567  12.736 -0.2198  0.2941 -2.0001
  173DOPC   C2521087   1.232   3.750  12.834 -0.7715  0.5601  0.1469
  173DOPC   H5R21088   1.160   3.802  12.767 -1.2761 -1.8552 -1.2842
  173DOPC   H5S21089   1.325   3.810  12.843  0.1893 -0.5097 -2.0710
  173DOPC   C2621090   1.158   3.723  12.963 -0.3428 -0.1948  0.5711
  173DOPC   H6R21091   1.233   3.671  13.027 -2.1375 -3.5563  0.1941
  173DOPC   H6S21092   1.082   3.645  12.938 -2.1573  1.5587  0.3021
  173DOPC   C2721093   1.084   3.845  13.029 -0.3844 -0.6464 -0.3180
  173DOPC   H7R21094   1.012   3.893  12.960 -1.0365 -2.6760 -1.1415
  173DOPC   H7S21095   1.154   3.928  13.049  1.1718 -1.5453 -1.7547
  173DOPC   C2821096   1.011   3.807  13.155 -0.1147  0.0032  0.3069
  173DOPC   H8R21097   1.084   3.777  13.233  0.5511  1.2107  0.1944
  173DOPC   H8S21098   0.960   3.714  13.123  1.4239 -0.9089  0.3859
  173DOPC   C2921099   0.919   3.919  13.205 -0.5707  0.3823  0.4508
  173DOPC   H9R21100   0.968   4.016  13.185 -1.4698  0.9973  1.1458
  173DOPC  C21021101   0.790   3.906  13.244  0.2427  0.6078 -0.2966
  173DOPC  H10R21102   0.740   3.995  13.285 -2.0678 -0.8818  0.3248
  173DOPC  C21121103   0.704   3.783  13.254 -0.5908  0.5924 -0.1819
  173DOPC  H11R21104   0.776   3.699  13.244  1.0814  2.1615 -2.8706
  173DOPC  H11S21105   0.626   3.786  13.175 -2.4045 -1.3378  1.4387
  173DOPC  C21221106   0.633   3.764  13.387 -0.8306  0.1406 -0.1377
  173DOPC  H12R21107   0.577   3.668  13.381  0.2725 -0.4125 -2.0845
  173DOPC  H12S21108   0.563   3.848  13.411  0.5764  0.7793  2.0265
  173DOPC  C21321109   0.737   3.754  13.502 -0.3422 -0.9396 -0.2182
  173DOPC  H13R21110   0.803   3.843  13.509 -1.5683  0.3949 -3.6445
  173DOPC  H13S21111   0.813   3.680  13.469  0.0830 -0.0505 -1.2978
  173DOPC  C21421112   0.672   3.720  13.640 -0.2324  0.2988 -0.4585
  173DOPC  H14R21113   0.616   3.624  13.629  2.3037 -1.7600  2.7245
  173DOPC  H14S21114   0.594   3.797  13.658  1.8169  2.2218  0.6474
  173DOPC  C21521115   0.767   3.732  13.760 -0.7607  0.0071  0.1339
  173DOPC  H15R21116   0.809   3.834  13.764  0.2042 -0.4048  1.5195
  173DOPC  H15S21117   0.867   3.684  13.753  2.5734  5.7911  1.9125
  173DOPC  C21621118   0.711   3.709  13.899 -0.1450  0.1039 -0.5182
  173DOPC  H16R21119   0.640   3.793  13.918 -0.1564 -0.1599  0.6876
  173DOPC  H16S21120   0.783   3.735  13.979 -2.0115  1.8179  0.7213
  173DOPC  C21721121   0.640   3.575  13.915  0.3138 -0.4018 -0.4752
  173DOPC  H17R21122   0.549   3.564  13.852 -0.1970  1.8601 -0.2035
  173DOPC  H17S21123   0.607   3.563  14.020  1.3494 -1.2074 -0.2296
  173DOPC  C21821124   0.742   3.465  13.880 -0.5343 -0.7750 -0.3118
  173DOPC  H18R21125   0.713   3.366  13.919  0.2787 -0.5811  0.8473
  173DOPC  H18S21126   0.835   3.496  13.934 -0.8193 -0.9163  0.2693
  173DOPC  H18T21127   0.770   3.451  13.774  0.2231 -2.2753  0.0694
  173DOPC   C3321128   1.078   3.231  13.077 -0.8602 -0.2906  0.6077
  173DOPC   H3X21129   0.993   3.162  13.063 -1.0120 -0.2191  1.1673
  173DOPC   H3Y21130   1.039   3.322  13.127  0.1672  0.8557 -0.5825
  173DOPC   C3421131   1.180   3.162  13.167  0.2808 -0.1737  0.3140
  173DOPC   H4X21132   1.270   3.222  13.194 -0.5076  1.1406  0.1309
  173DOPC   H4Y21133   1.220   3.076  13.108  0.0096  1.0609 -1.7637
  173DOPC   C3521134   1.118   3.098  13.290 -0.5967  0.6751 -0.8725
  173DOPC   H5X21135   1.198   3.061  13.357  0.1672  2.5736 -0.6633
  173DOPC   H5Y21136   1.059   3.009  13.259 -1.1255  0.7849 -0.2147
  173DOPC   C3621137   1.035   3.192  13.370 -0.1804 -0.2982 -0.1241
  173DOPC   H6X21138   1.070   3.297  13.371  0.9575 -0.6564  1.6959
  173DOPC   H6Y21139   0.928   3.189  13.338 -0.3378 -0.8971  0.4318
  173DOPC   C3721140   1.035   3.161  13.521  0.3583  0.0056  0.4683
  173DOPC   H7X21141   1.018   3.052  13.531  0.5285 -0.0121  0.5699
  173DOPC   H7Y21142   1.132   3.188  13.569  1.4762 -2.6647 -0.1106
  173DOPC   C3821143   0.927   3.244  13.592  0.5892 -0.8601  0.0992
  173DOPC   H8X21144   0.935   3.342  13.541  0.9117 -1.6648 -1.4686
  173DOPC   H8Y21145   0.957   3.263  13.697  0.1247 -1.4964  0.3495
  173DOPC   C3921146   0.794   3.179  13.575  0.1732 -0.0861 -0.4047
  173DOPC   H9X21147   0.789   3.079  13.622  2.2959 -0.4738 -0.9387
  173DOPC  C31021148   0.697   3.208  13.485 -0.9191  0.6020 -0.7777
  173DOPC  H10X21149   0.611   3.141  13.490 -0.5302  0.1850  2.1918
  173DOPC  C31121150   0.698   3.327  13.387 -0.1376  0.1072  0.2778
  173DOPC  H11X21151   0.794   3.382  13.378 -0.2922  0.5010  1.0217
  173DOPC  H11Y21152   0.618   3.390  13.429 -0.0193 -0.2087  0.9894
  173DOPC  C31221153   0.656   3.279  13.253 -0.0182 -0.4697  0.3900
  173DOPC  H12X21154   0.557   3.230  13.249 -0.2220 -0.1331  1.2925
  173DOPC  H12Y21155   0.733   3.210  13.211  0.4142  0.2671 -0.0692
  173DOPC  C31321156   0.653   3.407  13.169 -0.0937 -0.5917  0.4462
  173DOPC  H13X21157   0.594   3.490  13.214 -0.7965  0.2164 -1.8666
  173DOPC  H13Y21158   0.754   3.451  13.155 -0.8498  1.4220  0.9334
  173DOPC  C31421159   0.613   3.383  13.025 -0.0741 -0.4710 -0.6282
  173DOPC  H14X21160   0.673   3.309  12.968 -0.3337 -1.1818  0.0031
  173DOPC  H14Y21161   0.515   3.330  13.029  0.7292 -1.9285  2.1246
  173DOPC  C31521162   0.608   3.511  12.942 -0.5554 -0.4965  0.6140
  173DOPC  H15X21163   0.594   3.481  12.836  0.6877 -2.2510  0.9090
  173DOPC  H15Y21164   0.708   3.559  12.943 -2.3707  3.7252 -0.2175
  173DOPC  C31621165   0.486   3.598  12.975 -0.3135 -0.1750  0.0582
  173DOPC  H16X21166   0.394   3.541  12.948  0.5863 -1.1265 -1.1404
  173DOPC  H16Y21167   0.466   3.626  13.080 -1.6805 -1.2986  0.1375
  173DOPC  C31721168   0.477   3.730  12.892 -0.0932  0.0099 -0.2781
  173DOPC  H17X21169   0.569   3.790  12.905  0.0816 -0.5844  1.5188
  173DOPC  H17Y21170   0.460   3.714  12.783  0.7714  3.0494 -0.9450
  173DOPC  C31821171   0.355   3.805  12.952 -0.0314 -0.0435 -0.1449
  173DOPC  H18X21172   0.348   3.902  12.897 -0.1662 -0.2760 -0.5404
  173DOPC  H18Y21173   0.261   3.747  12.939 -0.6296  0.7842  0.3254
  173DOPC  H18Z21174   0.351   3.818  13.062  0.2077 -1.0739 -0.0062
  174DOPC     N21175   4.946   2.461  11.721 -0.0641  0.0841  0.5274
  174DOPC   C1221176   5.094   2.425  11.703  0.1770 -0.4107 -0.3342
  174DOPC  H12A21177   5.096   2.364  11.614 -0.2878 -0.2985 -0.4257
  174DOPC  H12B21178   5.119   2.362  11.787 -2.1197  0.6005  1.2193
  174DOPC   C1321179   4.902   2.532  11.594  0.1900 -0.2067 -0.6906
  174DOPC  H13A21180   4.961   2.618  11.568  1.5818 -1.1720 -0.8072
  174DOPC  H13B21181   4.909   2.463  11.512  0.1679 -0.1487 -0.7417
  174DOPC  H13C21182   4.796   2.552  11.606  0.4248  0.0381  1.4791
  174DOPC   C1421183   4.923   2.539  11.845 -0.3557 -0.4483  0.3404
  174DOPC  H14A21184   4.965   2.481  11.927 -1.1282 -0.3489  0.8164
  174DOPC  H14B21185   4.978   2.632  11.843 -1.0522 -0.0400 -1.5414
  174DOPC  H14C21186   4.816   2.553  11.851 -0.1203  2.4760 -0.6040
  174DOPC   C1521187   4.877   2.333  11.740  0.5439  1.0622  0.1577
  174DOPC  H15A21188   4.774   2.354  11.762  0.4955  1.1596 -0.1498
  174DOPC  H15B21189   4.925   2.279  11.820 -1.4580 -1.6563 -0.3410
  174DOPC  H15C21190   4.880   2.273  11.650  0.9766  0.6622  0.4335
  174DOPC   C1121191   5.195   2.550  11.683 -0.3232  1.0476 -0.2568
  174DOPC  H11A21192   5.299   2.513  11.665 -0.5647  1.0256 -1.7641
  174DOPC  H11B21193   5.171   2.605  11.590  1.3342  0.1515 -1.2674
  174DOPC     P21194   5.286   2.629  11.913  0.1576  0.2720  0.2990
  174DOPC   O1321195   5.422   2.661  11.880  0.6679  0.3466  0.1532
  174DOPC   O1421196   5.258   2.500  11.972  0.3335 -0.1086 -0.0037
  174DOPC   O1221197   5.193   2.650  11.787 -0.1856 -0.0154  0.4409
  174DOPC   O1121198   5.236   2.740  12.013 -0.0505 -0.1086 -0.3381
  174DOPC    C121199   5.108   2.769  12.064  0.4651  0.1021 -0.0427
  174DOPC    HA21200   5.044   2.686  12.030 -1.1383  1.7864 -1.3391
  174DOPC    HB21201   5.059   2.863  12.031  1.6501  0.5547 -0.5670
  174DOPC    C221202   5.110   2.779  12.213  0.3247 -0.1271 -0.7381
  174DOPC    HS21203   5.003   2.774  12.243 -0.0381 -1.0254 -2.0629
  174DOPC   O2121204   5.184   2.889  12.262 -0.1045 -0.6640  0.1720
  174DOPC   C2121205   5.123   3.004  12.258 -0.3592 -0.5717 -0.0451
  174DOPC   O2221206   5.007   3.028  12.222  0.3287 -0.1221 -0.7022
  174DOPC   C2221207   5.218   3.121  12.313  0.8386  0.2904  0.6662
  174DOPC   H2R21208   5.156   3.213  12.322 -0.5478 -0.1698 -2.5727
  174DOPC   H2S21209   5.298   3.140  12.238 -0.9892  1.0811 -1.1721
  174DOPC    C321210   5.175   2.649  12.262  0.6016 -1.4968  0.4949
  174DOPC    HX21211   5.283   2.638  12.238  1.0424  1.5387  0.6751
  174DOPC    HY21212   5.134   2.564  12.204  0.2877  0.6001 -2.5933
  174DOPC   O3121213   5.144   2.625  12.404 -0.3937  0.1996 -0.3535
  174DOPC   C3121214   5.250   2.641  12.488 -0.1653 -0.1247  0.4629
  174DOPC   O3221215   5.362   2.650  12.449 -0.3535  0.4804  0.7251
  174DOPC   C3221216   5.211   2.622  12.632  0.3207 -0.1908  0.5375
  174DOPC   H2X21217   5.237   2.721  12.676 -0.7463 -0.2436  1.3149
  174DOPC   H2Y21218   5.101   2.610  12.639  0.4424 -1.7061  0.2964
  174DOPC   C2321219   5.285   3.084  12.454  0.9577  0.3670 -0.0570
  174DOPC   H3R21220   5.357   3.166  12.475  1.9139 -1.1339  3.1861
  174DOPC   H3S21221   5.326   2.981  12.447 -0.9787 -0.9240  4.4427
  174DOPC   C2421222   5.186   3.073  12.572 -0.7572 -0.5023 -0.2455
  174DOPC   H4R21223   5.108   2.995  12.561  0.2313 -1.5770  0.2356
  174DOPC   H4S21224   5.143   3.175  12.581 -0.8532 -0.5056 -0.6558
  174DOPC   C2521225   5.266   3.032  12.706  0.5301 -0.1279 -0.3302
  174DOPC   H5R21226   5.333   3.112  12.746 -0.1815  0.2375  0.1490
  174DOPC   H5S21227   5.324   2.941  12.680  0.2961  0.0779 -1.6323
  174DOPC   C2621228   5.160   2.996  12.816 -0.0820  0.4500 -0.5613
  174DOPC   H6R21229   5.221   2.957  12.899 -1.4789 -2.3234 -0.6989
  174DOPC   H6S21230   5.094   2.912  12.784 -0.4240  0.5332 -0.0836
  174DOPC   C2721231   5.069   3.105  12.880  0.4966  0.4738  0.7673
  174DOPC   H7R21232   4.993   3.132  12.804  0.5586 -1.4929 -0.0551
  174DOPC   H7S21233   5.130   3.196  12.894  1.5941  0.3827 -2.5257
  174DOPC   C2821234   4.992   3.068  13.005  0.1322 -0.4843  0.7627
  174DOPC   H8R21235   4.953   3.162  13.049  1.2210  0.2421  0.2254
  174DOPC   H8S21236   5.065   3.021  13.074 -0.8327 -0.2223  1.9867
  174DOPC   C2921237   4.879   2.978  12.966 -0.1282  0.4216 -0.4875
  174DOPC   H9R21238   4.817   3.000  12.879  1.2691 -0.2548 -1.7094
  174DOPC  C21021239   4.883   2.846  12.992  0.5374 -0.3530 -0.4740
  174DOPC  H10R21240   4.802   2.784  12.952  0.3660  0.1526 -0.9096
  174DOPC  C21121241   4.998   2.774  13.058 -0.3366  0.8048 -0.6256
  174DOPC  H11R21242   5.094   2.811  13.017  0.2780 -2.2241 -2.2058
  174DOPC  H11S21243   4.996   2.666  13.031  0.7338  0.1172  1.7940
  174DOPC  C21221244   4.989   2.773  13.211 -0.3915  0.2690 -0.9876
  174DOPC  H12R21245   4.988   2.876  13.253  2.4446  0.4598 -1.2133
  174DOPC  H12S21246   5.076   2.724  13.260  0.2932  2.4348  0.1194
  174DOPC  C21321247   4.863   2.707  13.265  0.1463  0.6084 -0.0731
  174DOPC  H13R21248   4.850   2.597  13.260 -1.5210  0.8143 -1.1060
  174DOPC  H13S21249   4.773   2.742  13.211 -2.1040 -1.5006  2.0706
  174DOPC  C21421250   4.843   2.745  13.412  0.2490  0.8310  0.5331
  174DOPC  H14R21251   4.855   2.854  13.430  0.8317  0.7027  0.9510
  174DOPC  H14S21252   4.932   2.708  13.467  0.0266 -0.8264 -0.1721
  174DOPC  C21521253   4.721   2.681  13.480  0.0186 -0.4769 -0.3895
  174DOPC  H15R21254   4.709   2.575  13.449 -1.1899 -0.7801  0.9613
  174DOPC  H15S21255   4.632   2.741  13.449  1.5490  1.9671 -0.3178
  174DOPC  C21621256   4.724   2.686  13.634  0.2241 -0.4231  0.4737
  174DOPC  H16R21257   4.727   2.794  13.660 -0.4845 -0.8791  2.7451
  174DOPC  H16S21258   4.821   2.647  13.670  1.7170  2.5063 -0.0367
  174DOPC  C21721259   4.612   2.616  13.711  0.7749 -0.4816  0.1544
  174DOPC  H17R21260   4.600   2.508  13.688 -0.8127 -0.6589  1.5507
  174DOPC  H17S21261   4.520   2.673  13.687  0.9698 -0.9352 -1.9023
  174DOPC  C21821262   4.640   2.627  13.861  0.3087 -0.5085  0.4767
  174DOPC  H18R21263   4.554   2.597  13.924 -0.5828 -1.0265 -0.9401
  174DOPC  H18S21264   4.675   2.730  13.881  0.5046 -0.2621 -1.0199
  174DOPC  H18T21265   4.724   2.558  13.886 -0.8486 -1.4749  1.8580
  174DOPC   C3321266   5.285   2.503  12.696 -0.0228 -0.2947 -0.1008
  174DOPC   H3X21267   5.395   2.515  12.691  0.1864 -1.7141  0.6792
  174DOPC   H3Y21268   5.249   2.411  12.644  1.2790 -1.9592  1.8140
  174DOPC   C3421269   5.237   2.481  12.839 -0.5898 -0.3495 -0.1824
  174DOPC   H4X21270   5.153   2.409  12.852 -0.1827 -0.3701  3.2578
  174DOPC   H4Y21271   5.198   2.570  12.893  0.6923  0.0862  0.0514
  174DOPC   C3521272   5.358   2.420  12.920  0.1618  0.3834  0.4178
  174DOPC   H5X21273   5.434   2.501  12.922 -0.0995  0.6282  0.6418
  174DOPC   H5Y21274   5.403   2.329  12.874 -1.4068 -0.4325  0.4319
  174DOPC   C3621275   5.297   2.384  13.059  0.2725  0.1295  0.4010
  174DOPC   H6X21276   5.257   2.483  13.092 -0.0050 -0.4394  1.8410
  174DOPC   H6Y21277   5.214   2.311  13.059  0.5046 -0.1826  1.9546
  174DOPC   C3721278   5.403   2.340  13.161  0.8376  0.3480  0.8502
  174DOPC   H7X21279   5.442   2.238  13.142 -0.9840 -0.1797 -0.2936
  174DOPC   H7Y21280   5.491   2.408  13.159  1.9219 -0.9671  1.7729
  174DOPC   C3821281   5.349   2.359  13.303  0.0407  0.6176  0.6703
  174DOPC   H8X21282   5.262   2.290  13.311  0.7580 -0.2922  0.7415
  174DOPC   H8Y21283   5.301   2.459  13.296 -0.7966  0.2847  1.3784
  174DOPC   C3921284   5.444   2.335  13.424  0.8953  0.6097 -0.4907
  174DOPC   H9X21285   5.509   2.247  13.418  1.7412  1.1495  0.5632
  174DOPC  C31021286   5.452   2.412  13.528  0.3848 -0.2486  0.1180
  174DOPC  H10X21287   5.535   2.400  13.599  0.0072  0.1596  0.6400
  174DOPC  C31121288   5.376   2.544  13.555  0.1011  0.4135  0.8265
  174DOPC  H11X21289   5.364   2.563  13.664 -1.5126 -0.1908  0.7842
  174DOPC  H11Y21290   5.272   2.547  13.516  0.1506  2.9065  0.7320
  174DOPC  C31221291   5.437   2.670  13.492 -0.5858  0.1131 -0.2026
  174DOPC  H12X21292   5.379   2.757  13.528 -0.0513 -0.1013  1.2548
  174DOPC  H12Y21293   5.429   2.657  13.382  1.1564 -1.8146 -0.1731
  174DOPC  C31321294   5.585   2.702  13.543  0.5876 -0.1913 -0.3966
  174DOPC  H13X21295   5.586   2.712  13.654  0.5321  1.9417 -0.5445
  174DOPC  H13Y21296   5.648   2.615  13.515  0.9944  0.1636 -0.5968
  174DOPC  C31421297   5.653   2.818  13.472 -0.7317  0.0614 -0.1364
  174DOPC  H14X21298   5.691   2.786  13.372 -1.7933  1.4888 -1.0289
  174DOPC  H14Y21299   5.578   2.895  13.447 -1.3603 -0.7199 -0.7134
  174DOPC  C31521300   5.767   2.883  13.546 -0.4723  0.8199 -0.2170
  174DOPC  H15X21301   5.712   2.920  13.635 -2.4641 -1.2028 -0.5035
  174DOPC  H15Y21302   5.806   2.978  13.504  1.2258  0.3985  0.3108
  174DOPC  C31621303   5.889   2.790  13.577  0.8798  0.6444 -0.1066
  174DOPC  H16X21304   5.844   2.707  13.636 -2.0277  2.4606  0.4198
  174DOPC  H16Y21305   5.934   2.751  13.483 -0.0584 -0.5825 -0.0760
  174DOPC  C31721306   5.999   2.859  13.652 -0.0916 -0.0869 -0.1519
  174DOPC  H17X21307   5.963   2.931  13.728 -0.0434  0.1920 -0.3905
  174DOPC  H17Y21308   6.065   2.786  13.704 -0.2286  0.1092  0.2955
  174DOPC  C31821309   6.080   2.941  13.553 -0.1430  0.5514 -0.4330
  174DOPC  H18X21310   6.153   2.877  13.498  1.1622  1.8509 -0.2700
  174DOPC  H18Y21311   6.011   2.987  13.480  0.7901 -0.5521 -2.0863
  174DOPC  H18Z21312   6.141   3.024  13.595  1.7147 -0.9602  0.0185
  175DOPC     N21313   3.286   5.720  12.286 -0.2601 -0.1841 -0.0987
  175DOPC   C1221314   3.313   5.842  12.373 -0.0944  0.4317 -0.2986
  175DOPC  H12A21315   3.222   5.897  12.386  1.1825  2.4883  0.5047
  175DOPC  H12B21316   3.383   5.908  12.322  0.7237 -1.4023 -1.7134
  175DOPC   C1321317   3.236   5.756  12.149 -0.2195  0.0476 -0.1116
  175DOPC  H13A21318   3.211   5.670  12.088  0.2047  0.0378 -0.2722
  175DOPC  H13B21319   3.147   5.817  12.161  0.7486  1.3980  0.4344
  175DOPC  H13C21320   3.308   5.820  12.100  1.0475  1.0472  2.8626
  175DOPC   C1421321   3.178   5.636  12.345  0.8836 -0.1562  0.3496
  175DOPC  H14A21322   3.203   5.618  12.449  3.3178 -2.1190 -0.4658
  175DOPC  H14B21323   3.087   5.693  12.336  2.0436  1.4823 -2.9979
  175DOPC  H14C21324   3.168   5.537  12.303  0.6685 -0.3435  0.8323
  175DOPC   C1521325   3.407   5.627  12.282  1.0868 -0.0713 -0.3029
  175DOPC  H15A21326   3.488   5.675  12.230  0.6410 -0.4079 -1.3198
  175DOPC  H15B21327   3.398   5.541  12.217 -0.3035  0.1505 -0.4247
  175DOPC  H15C21328   3.430   5.598  12.384 -1.8262 -3.0957 -0.3118
  175DOPC   C1121329   3.366   5.827  12.517 -0.3548  0.3633 -0.6863
  175DOPC  H11A21330   3.452   5.756  12.516 -1.0490 -0.5751  0.9950
  175DOPC  H11B21331   3.401   5.920  12.567  2.3140 -1.5757  1.3865
  175DOPC     P21332   3.126   5.847  12.628 -0.3997 -0.0680  0.1359
  175DOPC   O1321333   3.017   5.750  12.643  0.0521  0.2038 -0.5474
  175DOPC   O1421334   3.109   5.957  12.531  0.6356  0.5369 -0.3879
  175DOPC   O1221335   3.260   5.770  12.594  0.4029  0.5663 -0.3659
  175DOPC   O1121336   3.157   5.899  12.776 -0.2403  0.0171 -0.3507
  175DOPC    C121337   3.223   5.817  12.876  0.1206  0.1631 -0.1000
  175DOPC    HA21338   3.255   5.885  12.958 -0.6868  3.1132 -2.0847
  175DOPC    HB21339   3.318   5.774  12.837  1.4346  3.2059 -0.5169
  175DOPC    C221340   3.123   5.705  12.933  0.1774 -0.1891  0.6188
  175DOPC    HS21341   3.107   5.630  12.853 -0.5836 -1.1978  1.6771
  175DOPC   O2121342   3.006   5.784  12.950 -0.1266  0.5490 -0.4575
  175DOPC   C2121343   2.901   5.703  12.953  0.3174 -0.0711 -0.1829
  175DOPC   O2221344   2.899   5.580  12.933 -0.0273  0.4494  0.1820
  175DOPC   C2221345   2.776   5.781  12.966  0.2804 -0.6117  0.9186
  175DOPC   H2R21346   2.724   5.761  12.870  1.8497 -2.2690  0.3716
  175DOPC   H2S21347   2.804   5.888  12.969 -3.7458  0.6999 -0.9564
  175DOPC    C321348   3.164   5.633  13.065  0.6130  0.5626  0.6573
  175DOPC    HX21349   3.090   5.558  13.099  1.1289 -2.1034 -3.4388
  175DOPC    HY21350   3.164   5.719  13.135 -1.9403  1.1819 -0.0065
  175DOPC   O3121351   3.298   5.576  13.045 -0.0554  0.0043  0.4588
  175DOPC   C3121352   3.290   5.447  13.018  0.8602 -0.2253 -0.5343
  175DOPC   O3221353   3.189   5.378  13.008  0.0345  0.3448  0.6243
  175DOPC   C3221354   3.427   5.402  12.993  0.1157 -0.1659  0.4776
  175DOPC   H2X21355   3.420   5.292  12.979 -2.2902 -0.2817  2.1417
  175DOPC   H2Y21356   3.472   5.454  12.905 -1.3734  0.1352 -0.1254
  175DOPC   C2321357   2.696   5.733  13.092 -0.2145 -0.0800  0.7051
  175DOPC   H3R21358   2.690   5.622  13.087 -0.7978 -0.1755  2.5509
  175DOPC   H3S21359   2.590   5.766  13.098 -0.3838 -0.6451  0.8497
  175DOPC   C2421360   2.769   5.768  13.222  0.7092  0.3815  0.0498
  175DOPC   H4R21361   2.777   5.879  13.223 -4.4835  1.0136 -0.9874
  175DOPC   H4S21362   2.869   5.720  13.226 -0.0904 -1.4343 -0.6863
  175DOPC   C2521363   2.690   5.726  13.355 -0.4956 -0.4137  0.2125
  175DOPC   H5R21364   2.680   5.616  13.360 -0.0628 -0.4792 -0.2589
  175DOPC   H5S21365   2.596   5.785  13.358 -0.4204 -0.3416  2.1545
  175DOPC   C2621366   2.779   5.770  13.473  0.3450 -0.1676 -0.2993
  175DOPC   H6R21367   2.774   5.880  13.485  2.2562 -0.0565 -0.2730
  175DOPC   H6S21368   2.888   5.760  13.454  0.5354 -0.0234  0.6554
  175DOPC   C2721369   2.739   5.687  13.599  0.0589  0.6399  0.5530
  175DOPC   H7R21370   2.772   5.581  13.596  0.6259  0.8362 -0.4016
  175DOPC   H7S21371   2.629   5.670  13.606  0.4138 -2.5439 -0.2279
  175DOPC   C2821372   2.792   5.749  13.727 -0.4272 -0.9424  0.3201
  175DOPC   H8R21373   2.760   5.677  13.806 -3.7082  0.1410  0.1415
  175DOPC   H8S21374   2.736   5.844  13.741 -0.8878 -1.1796  0.1139
  175DOPC   C2921375   2.944   5.781  13.729  0.4642  0.2265  1.2245
  175DOPC   H9R21376   2.976   5.815  13.629  1.8349  0.1890  1.6347
  175DOPC  C21021377   3.033   5.754  13.823 -0.8345  0.8384 -0.1566
  175DOPC  H10R21378   3.137   5.786  13.809 -0.3545  0.7562  2.5653
  175DOPC  C21121379   3.002   5.689  13.957  0.0061  0.2231 -0.3424
  175DOPC  H11R21380   2.925   5.608  13.952 -0.9830  1.0134  1.3297
  175DOPC  H11S21381   2.963   5.764  14.028 -0.1774 -1.5050  1.4845
  175DOPC  C21221382   3.126   5.626  14.020  0.1857 -0.8970 -0.2962
  175DOPC  H12R21383   3.217   5.689  14.022 -0.4660  0.0337  0.8496
  175DOPC  H12S21384   3.146   5.537  13.956 -0.0688 -1.4446  0.3777
  175DOPC  C21321385   3.098   5.580  14.161  0.1058  0.7175 -0.4875
  175DOPC  H13R21386   3.018   5.503  14.162  1.2747 -0.5324 -0.6766
  175DOPC  H13S21387   3.063   5.663  14.226 -1.2029 -0.3653  0.2288
  175DOPC  C21421388   3.227   5.534  14.233 -0.6233  0.0363  0.0222
  175DOPC  H14R21389   3.307   5.611  14.239 -1.5301  0.9655  0.5171
  175DOPC  H14S21390   3.269   5.449  14.174  0.9011 -0.4716  1.7533
  175DOPC  C21521391   3.205   5.482  14.376  0.4638 -0.1383  0.7507
  175DOPC  H15R21392   3.138   5.394  14.383 -0.6829  0.6409 -0.0629
  175DOPC  H15S21393   3.168   5.568  14.437  1.1482  1.5620 -1.0868
  175DOPC  C21621394   3.343   5.442  14.433  0.1709 -0.0937 -0.1687
  175DOPC  H16R21395   3.425   5.515  14.416 -1.5777  1.9183 -0.4888
  175DOPC  H16S21396   3.384   5.345  14.397  3.0565  0.3769  1.5125
  175DOPC  C21721397   3.339   5.435  14.590  0.2455 -0.6169 -0.0172
  175DOPC  H17R21398   3.269   5.360  14.633  0.1758  0.7308  2.4216
  175DOPC  H17S21399   3.309   5.535  14.629  2.9546  0.7652 -1.2151
  175DOPC  C21821400   3.484   5.411  14.646  0.3830 -0.3030  0.1523
  175DOPC  H18R21401   3.490   5.374  14.750 -0.0539 -1.7720 -0.3197
  175DOPC  H18S21402   3.550   5.499  14.633 -0.8415  0.2915 -2.9444
  175DOPC  H18T21403   3.528   5.342  14.571 -2.1086  0.2755 -2.0364
  175DOPC   C3321404   3.531   5.426  13.115  0.4088  0.0209 -0.5265
  175DOPC   H3X21405   3.498   5.358  13.196 -1.1636  0.7625 -0.5134
  175DOPC   H3Y21406   3.527   5.532  13.149  1.7056  0.1523 -0.7321
  175DOPC   C3421407   3.678   5.386  13.082  0.4024 -0.7876  0.3255
  175DOPC   H4X21408   3.717   5.463  13.012  1.3854 -1.8535 -0.3358
  175DOPC   H4Y21409   3.676   5.288  13.030 -0.2731 -0.6492  0.0844
  175DOPC   C3521410   3.763   5.354  13.206 -0.0682 -1.0184 -0.0106
  175DOPC   H5X21411   3.867   5.362  13.168 -0.1179 -2.0112 -0.3892
  175DOPC   H5Y21412   3.731   5.254  13.244 -0.7807 -0.6642  0.3442
  175DOPC   C3621413   3.758   5.458  13.325  0.2164  0.1320  0.6774
  175DOPC   H6X21414   3.782   5.559  13.285 -0.9688 -0.0459 -0.5421
  175DOPC   H6Y21415   3.656   5.455  13.368  0.5093 -0.0640  1.3747
  175DOPC   C3721416   3.845   5.411  13.439  0.5648  0.4437  0.2003
  175DOPC   H7X21417   3.815   5.307  13.465  0.8613  0.0815 -0.8719
  175DOPC   H7Y21418   3.954   5.408  13.417  0.4675 -3.0638 -0.3750
  175DOPC   C3821419   3.829   5.495  13.564 -0.9578 -0.8096  0.2353
  175DOPC   H8X21420   3.889   5.449  13.645  1.4154  0.3105 -0.8132
  175DOPC   H8Y21421   3.726   5.482  13.606 -0.7730 -1.1613  0.5874
  175DOPC   C3921422   3.868   5.639  13.550  0.0240 -0.5411  0.4141
  175DOPC   H9X21423   3.938   5.663  13.468 -1.0536  0.4494 -0.2554
  175DOPC  C31021424   3.820   5.739  13.631  0.4646 -0.3618 -0.8091
  175DOPC  H10X21425   3.892   5.820  13.650 -0.6341  0.4020  0.2838
  175DOPC  C31121426   3.724   5.720  13.744  0.5467 -0.7358  0.3154
  175DOPC  H11X21427   3.685   5.616  13.747  0.1720 -0.6092 -0.0494
  175DOPC  H11Y21428   3.642   5.791  13.717  3.1999  2.6353  0.3774
  175DOPC  C31221429   3.773   5.768  13.883 -0.0392 -0.0231  0.2829
  175DOPC  H12X21430   3.684   5.774  13.950  1.3514 -2.5007  2.5252
  175DOPC  H12Y21431   3.837   5.859  13.875  0.7219 -0.3172  2.3506
  175DOPC  C31321432   3.873   5.668  13.939 -0.0465  0.2753  0.3457
  175DOPC  H13X21433   3.816   5.574  13.957 -0.5081  0.8869  2.2550
  175DOPC  H13Y21434   3.962   5.658  13.873 -0.7774  0.5625 -0.7084
  175DOPC  C31421435   3.926   5.707  14.077  0.4781  0.0864  0.4178
  175DOPC  H14X21436   3.967   5.810  14.090 -0.6741  0.6340 -0.1397
  175DOPC  H14Y21437   3.831   5.709  14.135 -0.8532 -0.7660 -1.6422
  175DOPC  C31521438   4.022   5.608  14.139  0.2061 -0.1369  0.1793
  175DOPC  H15X21439   4.112   5.601  14.075 -0.9779  0.4660 -1.6306
  175DOPC  H15Y21440   3.975   5.507  14.132  1.7064 -0.7941 -0.7516
  175DOPC  C31621441   4.058   5.651  14.279 -1.0885 -0.1046  0.1943
  175DOPC  H16X21442   4.145   5.595  14.318 -2.8410 -3.2750 -0.0999
  175DOPC  H16Y21443   4.083   5.759  14.288  0.9428 -0.4659 -0.5813
  175DOPC  C31721444   3.938   5.615  14.373  0.3051  0.3614  0.6199
  175DOPC  H17X21445   3.969   5.630  14.479  0.8829  2.6837  0.1798
  175DOPC  H17Y21446   3.848   5.679  14.363  0.6012  0.5700 -0.9898
  175DOPC  C31821447   3.904   5.467  14.373 -0.0748 -0.1078 -0.2550
  175DOPC  H18X21448   3.984   5.400  14.411  1.1660 -0.1509 -2.7042
  175DOPC  H18Y21449   3.814   5.451  14.436 -0.2461 -1.6910 -0.8522
  175DOPC  H18Z21450   3.873   5.416  14.279  2.2482 -1.9461 -0.1202
  176DOPC     N21451   3.189   2.004  12.061 -0.3375 -0.0043  0.2282
  176DOPC   C1221452   3.043   2.033  12.020 -0.2338 -0.5490  0.3164
  176DOPC  H12A21453   3.023   1.981  11.927  1.7609  1.2064 -1.1910
  176DOPC  H12B21454   3.018   2.136  11.998 -1.3177 -0.6543  0.9806
  176DOPC   C1321455   3.279   1.968  11.941 -0.2207 -1.0677 -0.1468
  176DOPC  H13A21456   3.379   1.932  11.960 -0.9101 -3.6182 -0.9519
  176DOPC  H13B21457   3.242   1.877  11.896 -0.0405 -1.6848  0.9248
  176DOPC  H13C21458   3.284   2.049  11.870 -0.5230 -0.6511  0.2970
  176DOPC   C1421459   3.202   1.902  12.170 -0.1901 -0.5299  0.1978
  176DOPC  H14A21460   3.299   1.891  12.216 -0.4511 -1.9037  0.4674
  176DOPC  H14B21461   3.145   1.939  12.255  1.7977  1.0512  0.9456
  176DOPC  H14C21462   3.159   1.806  12.148  0.6361 -1.2220  1.4563
  176DOPC   C1521463   3.261   2.130  12.117  0.2333 -0.0974 -0.6530
  176DOPC  H15A21464   3.362   2.116  12.150 -0.5573 -0.0957  1.9722
  176DOPC  H15B21465   3.199   2.171  12.196  0.4686 -0.7329 -0.1280
  176DOPC  H15C21466   3.270   2.211  12.046  1.4670  0.8911  0.5741
  176DOPC   C1121467   2.922   1.994  12.114 -0.3462  0.3181  0.0972
  176DOPC  H11A21468   2.822   2.016  12.071 -1.8105 -4.3810  0.5449
  176DOPC  H11B21469   2.930   1.884  12.118  1.6882  0.4686  1.1448
  176DOPC     P21470   2.944   2.185  12.284  0.0773  0.1009 -0.3071
  176DOPC   O1321471   2.980   2.265  12.164 -0.0994 -0.1471 -0.6635
  176DOPC   O1421472   3.033   2.200  12.405 -0.1340  0.3665 -0.0308
  176DOPC   O1221473   2.931   2.035  12.252  0.1057  0.2340  0.2643
  176DOPC   O1121474   2.799   2.235  12.328  0.1953 -0.2854  0.6290
  176DOPC    C121475   2.694   2.147  12.361  0.2832  0.2432  0.2768
  176DOPC    HA21476   2.736   2.081  12.439 -0.3853  1.9641  2.2090
  176DOPC    HB21477   2.670   2.080  12.276  0.5315  2.0867 -1.3374
  176DOPC    C221478   2.565   2.225  12.407 -0.7179 -0.5003 -0.2427
  176DOPC    HS21479   2.529   2.245  12.304 -1.2555 -0.1868  0.0056
  176DOPC   O2121480   2.606   2.345  12.480  0.0937 -0.2553  0.0929
  176DOPC   C2121481   2.508   2.424  12.516  0.4000 -0.5392 -0.3082
  176DOPC   O2221482   2.397   2.420  12.464  1.2719 -0.6355 -0.2036
  176DOPC   C2221483   2.542   2.521  12.633  0.3677 -0.8777 -0.1941
  176DOPC   H2R21484   2.475   2.609  12.625 -0.1300 -0.9850  2.1165
  176DOPC   H2S21485   2.648   2.545  12.612  0.1685  0.2218  0.0131
  176DOPC    C321486   2.472   2.126  12.481 -0.2849  0.1794 -0.4239
  176DOPC    HX21487   2.444   2.049  12.406  0.2248 -0.3565 -0.0703
  176DOPC    HY21488   2.383   2.185  12.510 -0.8585 -0.5769 -0.6236
  176DOPC   O3121489   2.528   2.064  12.597  0.0541  0.4908  0.2466
  176DOPC   C3121490   2.451   2.045  12.706 -0.1177 -0.1834  0.6943
  176DOPC   O3221491   2.335   2.080  12.720 -0.2758 -0.0688 -0.5300
  176DOPC   C3221492   2.537   2.000  12.822 -0.0250 -0.2579 -0.6587
  176DOPC   H2X21493   2.645   2.007  12.796  0.3436  0.8936  1.0302
  176DOPC   H2Y21494   2.521   2.064  12.912  1.6306 -0.2766 -0.3244
  176DOPC   C2321495   2.541   2.471  12.781 -0.4263 -0.0521 -0.3243
  176DOPC   H3R21496   2.624   2.521  12.835 -0.3983 -0.0080 -0.4073
  176DOPC   H3S21497   2.556   2.362  12.794 -0.8486 -0.1120 -0.3402
  176DOPC   C2421498   2.413   2.509  12.856  0.3954 -0.6158  0.6929
  176DOPC   H4R21499   2.329   2.480  12.789 -0.0582 -0.7701  1.3283
  176DOPC   H4S21500   2.399   2.619  12.864 -3.2135 -0.9268  0.5609
  176DOPC   C2521501   2.413   2.435  12.988 -0.2578  0.9277  0.1731
  176DOPC   H5R21502   2.505   2.469  13.041  0.4475  0.7900 -0.9427
  176DOPC   H5S21503   2.411   2.325  12.975 -1.3637  1.0498 -0.9193
  176DOPC   C2621504   2.297   2.488  13.076  0.5605  0.0415  0.4776
  176DOPC   H6R21505   2.221   2.522  13.004  1.0642 -0.3847 -0.2774
  176DOPC   H6S21506   2.331   2.580  13.127  0.6490  0.6498 -0.6460
  176DOPC   C2721507   2.246   2.387  13.186 -0.2086 -0.2893 -0.4983
  176DOPC   H7R21508   2.336   2.327  13.213  1.7723  2.6829 -0.0190
  176DOPC   H7S21509   2.162   2.330  13.139 -0.2777 -1.1302  0.6081
  176DOPC   C2821510   2.210   2.462  13.316 -0.4460  0.7184 -0.1951
  176DOPC   H8R21511   2.122   2.526  13.292 -2.2881 -0.6285  2.3119
  176DOPC   H8S21512   2.295   2.522  13.356  2.5476 -0.9971 -3.4997
  176DOPC   C2921513   2.136   2.370  13.422  0.5524 -0.5425  0.1630
  176DOPC   H9R21514   2.048   2.323  13.378 -1.4061  0.8185  2.3984
  176DOPC  C21021515   2.170   2.345  13.546 -0.8135 -0.1323 -0.4097
  176DOPC  H10R21516   2.103   2.276  13.599  0.6503  0.4027  2.3431
  176DOPC  C21121517   2.293   2.390  13.619 -0.3373  0.2876  0.2607
  176DOPC  H11R21518   2.362   2.448  13.554  0.0133 -0.6760 -0.2510
  176DOPC  H11S21519   2.344   2.302  13.663  0.2058 -0.2651 -1.3876
  176DOPC  C21221520   2.268   2.495  13.731  0.0932 -0.0298 -0.7140
  176DOPC  H12R21521   2.285   2.598  13.693  0.3248 -0.0026 -0.5427
  176DOPC  H12S21522   2.347   2.482  13.808 -0.6927 -0.6207  0.0080
  176DOPC  C21321523   2.132   2.477  13.800  0.1374 -0.0664  0.3923
  176DOPC  H13R21524   2.131   2.371  13.833 -1.6842 -0.2863 -0.2515
  176DOPC  H13S21525   2.055   2.507  13.726  0.6903  2.6702  0.8356
  176DOPC  C21421526   2.110   2.574  13.918  0.4605  0.3361 -0.5556
  176DOPC  H14R21527   2.193   2.553  13.989 -0.0381 -2.9424 -0.7959
  176DOPC  H14S21528   2.014   2.545  13.965  0.9144 -0.1143  0.1108
  176DOPC  C21521529   2.091   2.720  13.867 -0.4718 -1.0503 -0.9387
  176DOPC  H15R21530   2.004   2.718  13.799 -0.6843 -0.0576 -0.7218
  176DOPC  H15S21531   2.178   2.741  13.801  0.4461  0.2208  0.5891
  176DOPC  C21621532   2.083   2.820  13.982 -0.3758  0.0743 -0.0544
  176DOPC  H16R21533   2.181   2.822  14.034 -0.1624  2.4121 -0.4389
  176DOPC  H16S21534   2.009   2.782  14.056  1.6859 -0.2894  1.9342
  176DOPC  C21721535   2.043   2.959  13.928  0.2889 -0.4576  0.5506
  176DOPC  H17R21536   1.950   2.948  13.869  1.5803 -0.4180 -1.6222
  176DOPC  H17S21537   2.126   2.991  13.861 -0.8471  2.3648  0.3776
  176DOPC  C21821538   2.016   3.069  14.029  0.7138 -0.9271 -0.9255
  176DOPC  H18R21539   1.974   3.155  13.973  0.6475  0.4624  1.1384
  176DOPC  H18S21540   2.103   3.093  14.094 -0.3701  1.6046 -0.2833
  176DOPC  H18T21541   1.933   3.034  14.094  2.0942 -0.7897  1.0173
  176DOPC   C3321542   2.513   1.846  12.842  0.9396 -0.5081  0.2035
  176DOPC   H3X21543   2.502   1.782  12.752 -1.0782 -1.0165  0.7535
  176DOPC   H3Y21544   2.413   1.829  12.887  1.5085 -0.6770  1.4434
  176DOPC   C3421545   2.599   1.779  12.947  0.0271 -0.0992 -0.0401
  176DOPC   H4X21546   2.704   1.784  12.912 -0.7428  1.1190 -2.4930
  176DOPC   H4Y21547   2.581   1.670  12.962 -1.4211 -0.0894 -1.4196
  176DOPC   C3521548   2.582   1.849  13.080 -0.2890 -0.4710  0.6944
  176DOPC   H5X21549   2.476   1.831  13.111  0.4056 -3.0707  1.8297
  176DOPC   H5Y21550   2.600   1.958  13.070 -0.0608 -0.4712  1.0787
  176DOPC   C3621551   2.673   1.793  13.194  0.3408  0.7288  0.3084
  176DOPC   H6X21552   2.780   1.822  13.183  0.5746 -0.8105 -2.4593
  176DOPC   H6Y21553   2.629   1.842  13.283 -2.2792 -1.3736  0.3052
  176DOPC   C3721554   2.646   1.639  13.223  0.4912 -0.2543  0.0710
  176DOPC   H7X21555   2.536   1.628  13.212  0.3361 -0.1304  1.3647
  176DOPC   H7Y21556   2.698   1.571  13.152 -1.3060 -1.8563  0.1987
  176DOPC   C3821557   2.689   1.608  13.369  0.5215 -1.3202  0.1472
  176DOPC   H8X21558   2.666   1.502  13.391  0.4141 -1.1556  0.8831
  176DOPC   H8Y21559   2.620   1.669  13.432 -3.0623 -1.8349 -2.9577
  176DOPC   C3921560   2.831   1.641  13.405 -0.0978  0.8633  0.4431
  176DOPC   H9X21561   2.867   1.743  13.386  0.2419  0.7168  0.2893
  176DOPC  C31021562   2.913   1.564  13.473  0.5980  0.4450 -0.9849
  176DOPC  H10X21563   3.014   1.605  13.486  0.2775  0.9034  0.1828
  176DOPC  C31121564   2.897   1.427  13.531 -0.0406  0.2271 -0.2660
  176DOPC  H11X21565   2.802   1.373  13.511  0.1925  0.4367 -2.0631
  176DOPC  H11Y21566   2.901   1.443  13.641  0.9093 -2.0276  0.0984
  176DOPC  C31221567   3.014   1.336  13.491 -0.2179 -0.2046  0.0249
  176DOPC  H12X21568   3.031   1.248  13.558  1.7628 -0.5264 -0.8365
  176DOPC  H12Y21569   3.111   1.389  13.501 -0.1827 -0.2631 -0.0008
  176DOPC  C31321570   2.991   1.285  13.350  1.0023 -0.4361 -0.2024
  176DOPC  H13X21571   2.892   1.235  13.348  0.9676 -0.4417  1.0084
  176DOPC  H13Y21572   2.989   1.384  13.300  1.9597 -0.5818 -0.5495
  176DOPC  C31421573   3.102   1.196  13.305  0.3966 -0.2273 -0.4211
  176DOPC  H14X21574   3.201   1.244  13.321 -0.2359  0.5499  1.5129
  176DOPC  H14Y21575   3.099   1.094  13.349 -2.2585 -1.3078 -2.8036
  176DOPC  C31521576   3.077   1.172  13.157  0.1335 -0.1009  0.0672
  176DOPC  H15X21577   3.166   1.119  13.118 -0.3813 -0.3089 -0.8525
  176DOPC  H15Y21578   3.073   1.265  13.097  0.4307 -0.1914 -0.0953
  176DOPC  C31621579   2.962   1.075  13.127  0.9477  0.0576  0.4093
  176DOPC  H16X21580   2.966   0.989  13.196  2.9581 -0.4436 -0.2715
  176DOPC  H16Y21581   2.868   1.131  13.149 -0.1721  0.6166 -4.4905
  176DOPC  C31721582   2.969   1.024  12.986  0.9213 -0.0506  0.0115
  176DOPC  H17X21583   2.986   1.106  12.914  0.6439  0.3772  0.4264
  176DOPC  H17Y21584   3.058   0.958  12.979  1.7236  0.6668  2.4270
  176DOPC  C31821585   2.847   0.944  12.929 -0.2285  0.3187 -0.2336
  176DOPC  H18X21586   2.816   0.881  13.015 -0.5237  1.5799  0.6129
  176DOPC  H18Y21587   2.769   1.018  12.899 -0.5523  0.8779  1.8258
  176DOPC  H18Z21588   2.880   0.886  12.841  1.5848  2.1642 -0.8365
  177DOPC     N21589   4.572   5.742  12.037  0.7781 -0.5851 -0.1396
  177DOPC   C1221590   4.692   5.761  11.945  0.0112  0.0392 -0.1016
  177DOPC  H12A21591   4.648   5.748  11.847  0.0982 -0.2687 -0.0977
  177DOPC  H12B21592   4.758   5.677  11.958  0.1826 -0.0448 -1.4016
  177DOPC   C1321593   4.604   5.766  12.180 -0.2040 -0.3832 -0.3818
  177DOPC  H13A21594   4.660   5.857  12.196  0.5819 -0.6839 -1.3058
  177DOPC  H13B21595   4.514   5.769  12.238  0.3073 -1.2962  0.4901
  177DOPC  H13C21596   4.665   5.687  12.222  1.7109  0.7824 -0.8341
  177DOPC   C1421597   4.503   5.605  12.025 -0.6897  0.2330 -0.3053
  177DOPC  H14A21598   4.482   5.588  11.920 -0.2143  2.6568 -0.8524
  177DOPC  H14B21599   4.571   5.531  12.065 -3.4516 -2.7384 -0.6545
  177DOPC  H14C21600   4.416   5.609  12.088  0.0237  1.9310  0.6316
  177DOPC   C1521601   4.476   5.852  11.994  0.0057  0.1697 -0.2972
  177DOPC  H15A21602   4.377   5.835  12.034 -0.1242  1.0120 -0.2563
  177DOPC  H15B21603   4.476   5.859  11.886 -0.9413 -0.6869 -0.3727
  177DOPC  H15C21604   4.526   5.935  12.041  1.5658 -0.7458 -0.2714
  177DOPC   C1121605   4.781   5.886  11.963  0.0457 -0.1149 -0.1402
  177DOPC  H11A21606   4.838   5.880  12.058  1.2557  0.1588 -0.8205
  177DOPC  H11B21607   4.858   5.881  11.883  0.1271  1.2144 -0.1713
  177DOPC     P21608   4.725   6.117  12.066  0.0361  0.0207 -0.2909
  177DOPC   O1321609   4.658   6.069  12.191  0.1892 -0.3433 -0.3864
  177DOPC   O1421610   4.689   6.247  12.015 -0.4352  0.3150  0.2654
  177DOPC   O1221611   4.708   6.007  11.954 -0.6590 -0.1154 -0.4182
  177DOPC   O1121612   4.875   6.126  12.089  0.5295  0.2210 -0.3348
  177DOPC    C121613   4.927   6.207  12.198  0.2682  0.9147  0.6615
  177DOPC    HA21614   4.851   6.281  12.232 -3.6666 -1.9806 -1.0336
  177DOPC    HB21615   5.020   6.264  12.178 -0.1738  1.6183  0.5634
  177DOPC    C221616   4.963   6.107  12.319 -1.3003 -0.0638 -0.0260
  177DOPC    HS21617   4.874   6.045  12.341 -0.8608 -0.1349  1.6300
  177DOPC   O2121618   5.001   6.181  12.434  1.0584  0.2748  0.1081
  177DOPC   C2121619   4.992   6.122  12.553  0.1429 -0.1633 -0.3294
  177DOPC   O2221620   4.953   6.010  12.573 -0.1074 -0.8771  0.0862
  177DOPC   C2221621   5.021   6.213  12.672 -0.2928  0.1818  0.0436
  177DOPC   H2R21622   4.928   6.269  12.692 -1.0869 -1.5017  1.3348
  177DOPC   H2S21623   5.106   6.279  12.642  1.5078 -2.2624 -0.6094
  177DOPC    C321624   5.080   6.016  12.278  0.4066 -0.0505  0.2196
  177DOPC    HX21625   5.168   6.078  12.254  1.2824 -1.2732  0.2135
  177DOPC    HY21626   5.053   5.963  12.184 -2.9573  0.8552  0.5203
  177DOPC   O3121627   5.118   5.928  12.384  0.3724  0.3269  0.6728
  177DOPC   C3121628   5.080   5.797  12.372 -0.6855 -0.7765  0.4224
  177DOPC   O3221629   4.984   5.755  12.309 -0.4554 -0.1316  0.1218
  177DOPC   C3221630   5.174   5.714  12.462 -0.4907  0.8081 -0.0764
  177DOPC   H2X21631   5.250   5.775  12.516 -0.0073 -0.6809  0.9963
  177DOPC   H2Y21632   5.106   5.677  12.541  0.0998  1.9647  1.0141
  177DOPC   C2321633   5.054   6.138  12.806 -0.8559  0.3057  0.6990
  177DOPC   H3R21634   5.143   6.073  12.796 -0.2238  0.7134  3.1200
  177DOPC   H3S21635   4.964   6.075  12.823 -1.1422  0.3507 -0.5516
  177DOPC   C2421636   5.066   6.233  12.924 -0.1018 -0.0549 -0.0867
  177DOPC   H4R21637   4.976   6.296  12.940 -0.5501 -0.3163 -1.4510
  177DOPC   H4S21638   5.142   6.304  12.885 -0.4080 -0.3251 -1.2223
  177DOPC   C2521639   5.106   6.162  13.055 -0.2041 -0.3932 -0.1706
  177DOPC   H5R21640   5.182   6.226  13.104 -0.8204  2.5158 -2.6814
  177DOPC   H5S21641   5.162   6.068  13.037  0.1864  0.0029 -1.0765
  177DOPC   C2621642   4.993   6.133  13.152  0.7362  0.6976 -0.1398
  177DOPC   H6R21643   4.911   6.078  13.101  0.1406  0.8142  0.6789
  177DOPC   H6S21644   4.932   6.213  13.197  0.6871  0.3697  0.3842
  177DOPC   C2721645   5.044   6.043  13.266  0.1268 -0.5968 -0.3887
  177DOPC   H7R21646   5.117   6.111  13.315  0.2689 -0.2542 -1.0681
  177DOPC   H7S21647   5.107   5.968  13.214 -0.2441  0.0378 -1.8019
  177DOPC   C2821648   4.937   5.982  13.355 -0.0208 -1.0177 -0.4699
  177DOPC   H8R21649   4.883   6.065  13.406 -1.0508 -1.8778 -0.1286
  177DOPC   H8S21650   4.984   5.929  13.441  0.5513  0.6267  0.2813
  177DOPC   C2921651   4.835   5.898  13.281  0.2982 -0.7947 -0.3050
  177DOPC   H9R21652   4.867   5.858  13.184  2.9081  1.4762 -0.5195
  177DOPC  C21021653   4.716   5.860  13.331  0.5468  0.0797  0.2151
  177DOPC  H10R21654   4.662   5.780  13.277  1.2904 -1.0066  1.0333
  177DOPC  C21121655   4.660   5.897  13.466  0.1751 -0.0345  0.3446
  177DOPC  H11R21656   4.735   5.907  13.546 -0.1624  1.5126  0.4907
  177DOPC  H11S21657   4.600   5.814  13.510  0.8613  0.3236  2.0087
  177DOPC  C21221658   4.596   6.036  13.470  0.5441 -0.0628  0.0497
  177DOPC  H12R21659   4.649   6.106  13.402  2.9658  0.9917  2.8162
  177DOPC  H12S21660   4.612   6.070  13.575 -0.6651  1.2782 -0.1685
  177DOPC  C21321661   4.452   6.030  13.426  0.4012 -1.4513 -0.8812
  177DOPC  H13R21662   4.386   5.965  13.487 -0.2628  1.4605  1.7719
  177DOPC  H13S21663   4.448   5.994  13.321  2.2468 -0.3211 -1.3983
  177DOPC  C21421664   4.381   6.168  13.436 -0.5738  0.2807 -0.3064
  177DOPC  H14R21665   4.279   6.154  13.395 -0.5045 -0.5511 -0.2085
  177DOPC  H14S21666   4.426   6.243  13.368  0.4577 -0.0713 -0.0314
  177DOPC  C21521667   4.363   6.231  13.575 -0.0698 -0.3222 -0.9899
  177DOPC  H15R21668   4.465   6.225  13.618 -0.2760 -0.9990 -0.5649
  177DOPC  H15S21669   4.303   6.162  13.639  0.9188  0.4541  0.8326
  177DOPC  C21621670   4.319   6.375  13.570  0.0399  0.4026  0.6872
  177DOPC  H16R21671   4.217   6.385  13.527  1.0602  0.0366 -1.9719
  177DOPC  H16S21672   4.389   6.430  13.503 -1.1322  1.2012  0.0902
  177DOPC  C21721673   4.310   6.426  13.714 -0.2130  0.1505 -0.3143
  177DOPC  H17R21674   4.413   6.438  13.753 -0.5883  2.8107  0.0554
  177DOPC  H17S21675   4.259   6.346  13.772 -0.2988 -2.9919 -4.2998
  177DOPC  C21821676   4.238   6.562  13.730  0.0140 -0.2493 -1.1911
  177DOPC  H18R21677   4.216   6.581  13.837 -2.4364 -0.3059 -1.6294
  177DOPC  H18S21678   4.140   6.552  13.679 -0.6075 -2.1396  0.2444
  177DOPC  H18T21679   4.299   6.644  13.687  0.3067 -0.0793 -0.4533
  177DOPC   C3321680   5.226   5.598  12.387 -0.7737  0.3286  1.0287
  177DOPC   H3X21681   5.266   5.625  12.286 -2.1180  0.7232  0.5838
  177DOPC   H3Y21682   5.141   5.530  12.368 -0.4837  0.8159 -2.9846
  177DOPC   C3421683   5.332   5.511  12.464 -0.2760  0.1919  0.2446
  177DOPC   H4X21684   5.398   5.598  12.486  1.8756 -0.9811 -1.2226
  177DOPC   H4Y21685   5.388   5.437  12.403 -0.0045  1.6905 -1.4215
  177DOPC   C3521686   5.270   5.444  12.589  0.7641 -0.0880 -0.4832
  177DOPC   H5X21687   5.205   5.367  12.544  1.2388 -0.1497 -1.0813
  177DOPC   H5Y21688   5.201   5.517  12.636  0.5113 -1.1621  0.8517
  177DOPC   C3621689   5.375   5.401  12.688 -0.0660 -0.1190 -1.2489
  177DOPC   H6X21690   5.437   5.330  12.630 -0.3876 -0.4445 -1.1995
  177DOPC   H6Y21691   5.441   5.485  12.715  1.1882 -1.2527 -0.6748
  177DOPC   C3721692   5.307   5.333  12.810 -0.4168 -0.5716 -0.3193
  177DOPC   H7X21693   5.249   5.417  12.854 -3.6445 -1.9031 -1.7704
  177DOPC   H7Y21694   5.230   5.260  12.778 -0.4341 -1.0412  0.7457
  177DOPC   C3821695   5.405   5.264  12.906  0.4487  0.2854  0.8825
  177DOPC   H8X21696   5.493   5.330  12.918 -0.1975  1.6978 -1.3892
  177DOPC   H8Y21697   5.438   5.170  12.856  1.6097  1.4652 -0.6785
  177DOPC   C3921698   5.341   5.218  13.030 -0.1688  0.1655 -0.3037
  177DOPC   H9X21699   5.300   5.116  13.032 -0.7726  0.4079  1.3025
  177DOPC  C31021700   5.333   5.280  13.149  1.2553  0.2584  0.6479
  177DOPC  H10X21701   5.276   5.236  13.231  1.3999  2.7347  2.1961
  177DOPC  C31121702   5.392   5.416  13.178 -0.8565 -0.7440  0.2054
  177DOPC  H11X21703   5.464   5.450  13.101 -0.3520  0.5524  1.2097
  177DOPC  H11Y21704   5.447   5.402  13.273  3.6702 -4.1338 -2.4892
  177DOPC  C31221705   5.282   5.523  13.204 -0.0072  0.0761  1.0719
  177DOPC  H12X21706   5.201   5.526  13.128  0.4525  2.0713  0.6170
  177DOPC  H12Y21707   5.331   5.622  13.207  0.1163  0.0423  0.3661
  177DOPC  C31321708   5.217   5.496  13.339 -0.0214 -0.0568 -0.3259
  177DOPC  H13X21709   5.156   5.403  13.336 -0.1618  0.0060  0.3893
  177DOPC  H13Y21710   5.297   5.485  13.415  0.6396 -0.2799 -1.0418
  177DOPC  C31421711   5.138   5.617  13.390 -0.2829 -0.2020 -0.1673
  177DOPC  H14X21712   5.209   5.701  13.408 -1.0484  0.7496 -1.4194
  177DOPC  H14Y21713   5.059   5.647  13.318 -0.7669  0.4665  0.6220
  177DOPC  C31521714   5.055   5.566  13.508 -0.2808 -0.6431  0.5332
  177DOPC  H15X21715   5.118   5.507  13.578  0.4372 -0.4520  0.0586
  177DOPC  H15Y21716   4.977   5.500  13.465 -2.0305  0.5704  1.6424
  177DOPC  C31621717   4.981   5.680  13.580  0.2166 -0.3471 -0.3862
  177DOPC  H16X21718   5.062   5.751  13.608 -0.4622  0.9889 -1.6606
  177DOPC  H16Y21719   4.923   5.736  13.503 -1.8922 -1.3567  0.4087
  177DOPC  C31721720   4.910   5.641  13.703 -0.2531 -0.1289  0.0923
  177DOPC  H17X21721   4.845   5.556  13.674  0.2624 -0.0342 -1.3865
  177DOPC  H17Y21722   4.988   5.602  13.773 -0.1612 -0.2864 -0.0979
  177DOPC  C31821723   4.823   5.749  13.761 -0.5012 -0.8589  0.1022
  177DOPC  H18X21724   4.790   5.717  13.862  0.4427  0.4839  0.8595
  177DOPC  H18Y21725   4.873   5.846  13.777 -1.0825 -0.4087 -0.7412
  177DOPC  H18Z21726   4.732   5.771  13.702 -1.1003  1.4633  1.7784
  178DOPC     N21727   2.985   4.849  12.274  0.1664  0.2941  0.1219
  178DOPC   C1221728   2.836   4.844  12.308 -0.5758 -0.0082 -0.0496
  178DOPC  H12A21729   2.817   4.742  12.340  1.1320 -0.0398  1.0075
  178DOPC  H12B21730   2.789   4.858  12.212  1.1797  1.2699 -0.7757
  178DOPC   C1321731   3.013   4.972  12.191  0.8976  0.3011  0.2596
  178DOPC  H13A21732   2.978   5.061  12.241  1.0911  0.3261  0.3500
  178DOPC  H13B21733   3.118   4.974  12.167  0.5683 -0.2715 -1.3571
  178DOPC  H13C21734   2.952   4.975  12.102 -1.8721  0.4369  2.0467
  178DOPC   C1421735   3.021   4.735  12.187  0.6133  0.8157 -0.3838
  178DOPC  H14A21736   2.968   4.741  12.094 -2.9854 -1.3516  1.2966
  178DOPC  H14B21737   3.125   4.732  12.160  1.5508  1.8456  2.7103
  178DOPC  H14C21738   3.010   4.642  12.241  0.1822  1.1175  0.0674
  178DOPC   C1521739   3.070   4.859  12.397 -0.0628 -0.6913 -0.0494
  178DOPC  H15A21740   3.177   4.871  12.386 -0.3110  1.6443 -0.3777
  178DOPC  H15B21741   3.039   4.781  12.465 -3.5970  0.1761 -0.5063
  178DOPC  H15C21742   3.039   4.951  12.444 -0.8611 -0.2241 -1.4483
  178DOPC   C1121743   2.769   4.951  12.403 -0.3660  0.3965 -0.0935
  178DOPC  H11A21744   2.671   4.904  12.427  0.1579 -0.8284 -0.2900
  178DOPC  H11B21745   2.817   4.960  12.502 -0.4067 -1.5260  0.1340
  178DOPC     P21746   2.643   5.114  12.241  0.2426 -0.2661  0.2969
  178DOPC   O1321747   2.643   5.013  12.136  0.5868  0.0294 -0.1938
  178DOPC   O1421748   2.650   5.254  12.201 -0.1444 -0.6132 -0.0052
  178DOPC   O1221749   2.757   5.081  12.344  0.0248 -0.6322 -0.4219
  178DOPC   O1121750   2.529   5.099  12.344  0.4189 -0.3111  0.2861
  178DOPC    C121751   2.503   5.205  12.441  0.8764 -0.2294  0.2777
  178DOPC    HA21752   2.394   5.224  12.448  0.9085  0.5160 -0.9448
  178DOPC    HB21753   2.544   5.301  12.403  0.3990 -0.8869 -2.0687
  178DOPC    C221754   2.554   5.173  12.584 -0.2373  0.4231  0.7019
  178DOPC    HS21755   2.665   5.179  12.585 -0.2537  1.2495 -0.3982
  178DOPC   O2121756   2.511   5.039  12.628 -0.3943 -0.1952  0.4536
  178DOPC   C2121757   2.573   4.976  12.725 -0.3819 -0.1447  0.4563
  178DOPC   O2221758   2.695   4.995  12.761  0.8607  0.1626 -0.4140
  178DOPC   C2221759   2.485   4.857  12.771 -0.0196 -0.1150  0.1297
  178DOPC   H2R21760   2.435   4.808  12.685 -2.4539  1.3077  0.6197
  178DOPC   H2S21761   2.394   4.881  12.830 -0.2806 -1.2406  0.2001
  178DOPC    C321762   2.498   5.280  12.679 -0.1374 -0.5151 -0.1821
  178DOPC    HX21763   2.388   5.271  12.698 -0.5083 -0.7079 -2.1656
  178DOPC    HY21764   2.527   5.375  12.631 -1.3742 -0.2880 -0.5172
  178DOPC   O3121765   2.565   5.269  12.807  0.2834 -0.2364  0.2509
  178DOPC   C3121766   2.497   5.239  12.911  0.6618  0.8636  0.5385
  178DOPC   O3221767   2.379   5.203  12.915 -0.2068  0.4092 -0.3440
  178DOPC   C3221768   2.586   5.249  13.035 -0.6195 -0.0099 -0.4173
  178DOPC   H2X21769   2.625   5.148  13.060  0.4810  0.1445 -1.4304
  178DOPC   H2Y21770   2.671   5.313  13.003 -1.9711  2.1529  0.0699
  178DOPC   C2321771   2.560   4.761  12.867 -0.1666 -0.3033 -0.5640
  178DOPC   H3R21772   2.659   4.740  12.821  1.1968  1.5854  1.3193
  178DOPC   H3S21773   2.494   4.671  12.864  0.8039 -1.0404 -0.4892
  178DOPC   C2421774   2.568   4.822  13.008 -0.3242  0.3373 -1.0851
  178DOPC   H4R21775   2.469   4.828  13.058  0.0912  0.3935 -0.2390
  178DOPC   H4S21776   2.604   4.927  13.002 -1.1008  0.7462  0.5736
  178DOPC   C2521777   2.654   4.725  13.101 -0.7415  0.3285  0.8101
  178DOPC   H5R21778   2.696   4.792  13.179  0.6537  1.5587 -0.9282
  178DOPC   H5S21779   2.738   4.669  13.056 -1.7316 -2.1467  1.8528
  178DOPC   C2621780   2.559   4.617  13.153 -0.2304 -0.3360 -0.1011
  178DOPC   H6R21781   2.515   4.561  13.068 -1.0588  0.2019 -0.0411
  178DOPC   H6S21782   2.481   4.672  13.210  1.9964 -0.3484  3.2364
  178DOPC   C2721783   2.632   4.527  13.253  0.5104  0.3683 -0.2294
  178DOPC   H7R21784   2.660   4.594  13.338 -1.1524  1.4944 -0.5190
  178DOPC   H7S21785   2.723   4.499  13.197 -2.3517 -2.1882 -4.0728
  178DOPC   C2821786   2.561   4.401  13.292  0.3814 -0.3582 -0.7532
  178DOPC   H8R21787   2.633   4.339  13.349  1.6363  1.5953 -0.1267
  178DOPC   H8S21788   2.536   4.347  13.198  0.0071  1.8124 -1.9760
  178DOPC   C2921789   2.440   4.421  13.374  0.2971  0.7408  0.1326
  178DOPC   H9R21790   2.353   4.443  13.311 -0.1344  0.2208  0.5451
  178DOPC  C21021791   2.419   4.391  13.504  0.3360  0.1334  0.2564
  178DOPC  H10R21792   2.319   4.413  13.544  0.3780  0.5519  0.1399
  178DOPC  C21121793   2.511   4.340  13.612  0.3313 -0.0599  0.2900
  178DOPC  H11R21794   2.516   4.402  13.704  0.7226 -0.1311  0.3205
  178DOPC  H11S21795   2.617   4.326  13.581  0.4529  1.3882 -0.0176
  178DOPC  C21221796   2.479   4.202  13.662  0.0857  0.3928 -0.8720
  178DOPC  H12R21797   2.562   4.171  13.729 -1.5812  0.3915  1.2817
  178DOPC  H12S21798   2.483   4.134  13.574  1.1013  0.3988 -0.8455
  178DOPC  C21321799   2.341   4.180  13.718 -0.1368  0.3065  0.1701
  178DOPC  H13R21800   2.260   4.195  13.643 -2.3777 -0.7838  2.2151
  178DOPC  H13S21801   2.310   4.257  13.792  0.8168  0.1774  0.7201
  178DOPC  C21421802   2.312   4.034  13.763  0.4546 -0.4346  0.2923
  178DOPC  H14R21803   2.392   4.000  13.833  1.9203 -0.7602 -1.4575
  178DOPC  H14S21804   2.316   3.969  13.673 -2.5004 -0.0426 -0.2275
  178DOPC  C21521805   2.176   4.008  13.823  0.6559  0.6437 -0.0640
  178DOPC  H15R21806   2.097   4.017  13.745  0.4915 -0.9520 -0.1224
  178DOPC  H15S21807   2.152   4.086  13.897  0.0979  2.4736 -2.0655
  178DOPC  C21621808   2.162   3.869  13.889 -0.2588 -0.6067  0.5850
  178DOPC  H16R21809   2.240   3.860  13.968  1.8754 -0.7843 -1.4211
  178DOPC  H16S21810   2.182   3.793  13.811  1.0034 -0.5651  0.8470
  178DOPC  C21721811   2.021   3.846  13.946  0.1558  0.6158 -0.0313
  178DOPC  H17R21812   2.026   3.744  13.990 -0.9856  0.7366  0.4337
  178DOPC  H17S21813   1.959   3.832  13.855  1.1747 -1.1858 -0.4837
  178DOPC  C21821814   1.969   3.955  14.040 -0.8589 -0.2725 -0.2734
  178DOPC  H18R21815   2.047   3.986  14.113  0.2745 -1.5615 -0.8786
  178DOPC  H18S21816   1.882   3.918  14.099  0.3645 -0.6738  1.3801
  178DOPC  H18T21817   1.938   4.040  13.977 -2.4674  1.2064  2.3178
  178DOPC   C3321818   2.521   5.328  13.148 -0.2667 -0.5957  0.3275
  178DOPC   H3X21819   2.435   5.268  13.183 -0.5162  0.5511  1.7753
  178DOPC   H3Y21820   2.477   5.423  13.110 -1.2251  1.8483  6.4470
  178DOPC   C3421821   2.625   5.371  13.254 -0.0648  1.1847  0.1396
  178DOPC   H4X21822   2.580   5.428  13.337  2.2438 -0.2734  2.5386
  178DOPC   H4Y21823   2.698   5.424  13.188 -2.0267  1.3550 -2.0481
  178DOPC   C3521824   2.698   5.254  13.325 -0.4538  0.3218  0.6947
  178DOPC   H5X21825   2.747   5.178  13.259  1.2937  0.3655  1.8694
  178DOPC   H5Y21826   2.615   5.203  13.377 -0.1315 -0.3934  0.5306
  178DOPC   C3621827   2.800   5.302  13.424  0.3822  0.7136 -0.4159
  178DOPC   H6X21828   2.756   5.379  13.491  0.4822 -1.6233  2.6019
  178DOPC   H6Y21829   2.825   5.218  13.493  0.4924  0.0935 -1.2003
  178DOPC   C3721830   2.921   5.362  13.355 -0.4649  0.3771 -0.1347
  178DOPC   H7X21831   2.947   5.295  13.270  0.9602 -1.7216  1.8342
  178DOPC   H7Y21832   2.890   5.456  13.305 -1.5640  0.0696 -0.0559
  178DOPC   C3821833   3.043   5.371  13.447  0.0579 -0.7283 -0.1632
  178DOPC   H8X21834   3.058   5.265  13.475  0.6492 -0.3915  0.8210
  178DOPC   H8Y21835   3.029   5.438  13.534  2.5538  2.2194 -1.8222
  178DOPC   C3921836   3.175   5.412  13.373  0.1199  0.8310  0.5254
  178DOPC   H9X21837   3.197   5.340  13.293  1.3820 -0.0130  1.5909
  178DOPC  C31021838   3.246   5.525  13.395 -0.3899  0.1535  0.1878
  178DOPC  H10X21839   3.344   5.529  13.346  0.0082  1.3429  1.0370
  178DOPC  C31121840   3.219   5.638  13.498  0.1387  0.4472  0.6346
  178DOPC  H11X21841   3.128   5.612  13.555  1.1071 -0.2679  1.9196
  178DOPC  H11Y21842   3.196   5.726  13.435  1.8290 -0.9913 -2.1941
  178DOPC  C31221843   3.334   5.681  13.588  0.1046  0.1669  0.2138
  178DOPC  H12X21844   3.318   5.782  13.632 -0.1584 -0.1357  0.8377
  178DOPC  H12Y21845   3.426   5.686  13.526 -0.7873 -1.1038 -1.2724
  178DOPC  C31321846   3.367   5.592  13.708  0.0912  0.6930  0.1254
  178DOPC  H13X21847   3.438   5.652  13.768  0.2954  1.5028 -0.8955
  178DOPC  H13Y21848   3.278   5.571  13.772  0.9061  0.1917  1.1078
  178DOPC  C31421849   3.427   5.457  13.666  0.6876 -0.5907  0.4958
  178DOPC  H14X21850   3.359   5.399  13.599  0.7927 -1.3369  1.0165
  178DOPC  H14Y21851   3.523   5.470  13.612 -0.1194 -2.1002 -1.4737
  178DOPC  C31521852   3.455   5.360  13.787  0.3445 -0.5154 -0.1828
  178DOPC  H15X21853   3.526   5.282  13.751 -0.1329 -0.5168 -1.1244
  178DOPC  H15Y21854   3.360   5.306  13.808  0.6334 -1.1083 -0.3794
  178DOPC  C31621855   3.516   5.425  13.914  0.5284  0.1641 -0.1188
  178DOPC  H16X21856   3.606   5.484  13.886 -0.4498  1.0141 -1.6372
  178DOPC  H16Y21857   3.445   5.501  13.954  0.3508 -0.3963  0.6597
  178DOPC  C31721858   3.522   5.328  14.026  0.1509 -0.1499 -0.2091
  178DOPC  H17X21859   3.425   5.275  14.038 -0.1840 -0.1293 -2.3502
  178DOPC  H17Y21860   3.585   5.241  13.997 -1.4850 -2.4879  2.6960
  178DOPC  C31821861   3.592   5.361  14.164  0.7319  0.1285  0.2977
  178DOPC  H18X21862   3.564   5.285  14.240 -0.3324 -0.6748 -0.8680
  178DOPC  H18Y21863   3.699   5.386  14.146  0.0956  2.4923 -0.6761
  178DOPC  H18Z21864   3.545   5.461  14.181 -0.2085 -0.2929  0.2515
  179DOPC     N21865   6.608   5.983  12.018  0.4860  0.4179 -0.6912
  179DOPC   C1221866   6.594   5.889  12.132  0.8592  0.7773  0.3281
  179DOPC  H12A21867   6.569   5.944  12.222 -0.9245 -0.9113  0.9534
  179DOPC  H12B21868   6.693   5.866  12.167  1.8590  1.8947 -1.6465
  179DOPC   C1321869   6.704   6.089  12.062 -0.4306  0.2515  1.1828
  179DOPC  H13A21870   6.726   6.152  11.977  0.7274 -1.6573 -0.0145
  179DOPC  H13B21871   6.665   6.154  12.139 -1.4104 -1.4956  2.2398
  179DOPC  H13C21872   6.793   6.037  12.093  2.0647  1.6564 -2.8331
  179DOPC   C1421873   6.476   6.049  11.981  0.2171  0.3313  0.2938
  179DOPC  H14A21874   6.488   6.127  11.908  0.2439  0.2462  0.2075
  179DOPC  H14B21875   6.417   5.969  11.939  0.5193  0.5251 -0.5081
  179DOPC  H14C21876   6.419   6.083  12.067 -0.7729  0.3358 -0.3489
  179DOPC   C1521877   6.659   5.921  11.894 -0.1289  0.5241  0.0296
  179DOPC  H15A21878   6.694   5.999  11.828  0.0368 -1.4379 -2.3014
  179DOPC  H15B21879   6.596   5.852  11.840 -1.7805  2.1924 -0.3098
  179DOPC  H15C21880   6.750   5.866  11.910 -1.1132 -1.1403  0.0702
  179DOPC   C1121881   6.503   5.772  12.122 -0.2447  0.3113 -0.2447
  179DOPC  H11A21882   6.549   5.702  12.049 -0.8342  0.5000 -0.8048
  179DOPC  H11B21883   6.495   5.722  12.221  2.2089  0.8488  0.2956
  179DOPC     P21884   6.251   5.714  12.070  0.2727  0.2697  0.1846
  179DOPC   O1321885   6.266   5.642  11.943  0.2472  0.0011 -0.1050
  179DOPC   O1421886   6.124   5.790  12.075 -0.8991 -0.5563 -0.5271
  179DOPC   O1221887   6.372   5.810  12.076 -0.1586 -0.8524 -0.1838
  179DOPC   O1121888   6.264   5.610  12.189  0.4656 -0.0987  0.0481
  179DOPC    C121889   6.150   5.548  12.251  0.2553 -0.4849 -0.4876
  179DOPC    HA21890   6.177   5.442  12.271 -1.6046 -1.0174 -0.5884
  179DOPC    HB21891   6.061   5.546  12.184  0.8017  2.2172 -1.4079
  179DOPC    C221892   6.104   5.609  12.387  0.3808 -0.9675 -0.3548
  179DOPC    HS21893   6.044   5.698  12.359 -1.1642 -2.6265 -2.7333
  179DOPC   O2121894   6.225   5.638  12.458  0.3464  0.1434  0.1081
  179DOPC   C2121895   6.261   5.766  12.475  0.2540  0.2115  0.6813
  179DOPC   O2221896   6.197   5.865  12.442  0.0842  0.0964  0.2124
  179DOPC   C2221897   6.399   5.773  12.540 -0.4050 -0.5031  0.2015
  179DOPC   H2R21898   6.435   5.877  12.525 -2.9140  0.4720  0.4839
  179DOPC   H2S21899   6.462   5.717  12.468 -1.2071 -0.8463 -0.2502
  179DOPC    C321900   6.007   5.512  12.469 -0.1768  0.7194 -0.2749
  179DOPC    HX21901   6.059   5.414  12.477  2.2307  1.9392 -0.1496
  179DOPC    HY21902   5.915   5.487  12.412  0.3953 -0.9065 -0.5442
  179DOPC   O3121903   5.981   5.561  12.601 -0.3335  0.1711  0.1290
  179DOPC   C3121904   5.857   5.604  12.615 -0.0287  0.2720 -0.7115
  179DOPC   O3221905   5.778   5.615  12.526  0.7490 -0.2246 -0.2497
  179DOPC   C3221906   5.825   5.633  12.764 -0.3316  0.5756 -0.5892
  179DOPC   H2X21907   5.824   5.741  12.788 -0.8439  0.2329  1.0311
  179DOPC   H2Y21908   5.723   5.595  12.788 -0.6954  2.5475  1.2472
  179DOPC   C2321909   6.413   5.713  12.681  0.0877 -0.7240 -0.1392
  179DOPC   H3R21910   6.339   5.767  12.743 -1.6140 -2.2934 -0.7290
  179DOPC   H3S21911   6.513   5.742  12.721  1.0618 -1.8210 -1.6382
  179DOPC   C2421912   6.377   5.560  12.695 -0.9977 -0.2303  0.4539
  179DOPC   H4R21913   6.425   5.506  12.610 -0.5734 -1.2156  1.2977
  179DOPC   H4S21914   6.268   5.541  12.699 -1.0997  0.4912  1.3384
  179DOPC   C2521915   6.420   5.509  12.824 -0.1951  0.1518 -0.7369
  179DOPC   H5R21916   6.531   5.509  12.828 -0.2205  0.5450  2.3329
  179DOPC   H5S21917   6.401   5.399  12.822 -1.8810  0.3763  0.4173
  179DOPC   C2621918   6.339   5.559  12.941 -0.1040  0.2597 -0.8346
  179DOPC   H6R21919   6.233   5.564  12.910  0.5420  0.7603 -3.1690
  179DOPC   H6S21920   6.373   5.660  12.972  1.1019 -0.5056  0.4841
  179DOPC   C2721921   6.358   5.460  13.060 -0.0892 -0.4792 -1.1008
  179DOPC   H7R21922   6.445   5.492  13.122 -2.1897  1.6958  0.9536
  179DOPC   H7S21923   6.388   5.359  13.027  2.8766  0.0605 -0.3361
  179DOPC   C2821924   6.239   5.448  13.156  0.0045 -0.0680  0.3066
  179DOPC   H8R21925   6.208   5.342  13.142 -0.5391  0.0537  0.5880
  179DOPC   H8S21926   6.148   5.508  13.137  1.5251  2.5637  0.8142
  179DOPC   C2921927   6.287   5.483  13.298  0.7508  0.2452  0.6339
  179DOPC   H9R21928   6.350   5.572  13.312 -0.9817  1.1851  3.0032
  179DOPC  C21021929   6.257   5.405  13.408 -0.5389 -0.1102  0.2821
  179DOPC  H10R21930   6.301   5.437  13.504 -1.2758  0.6205  0.3881
  179DOPC  C21121931   6.175   5.279  13.398 -0.5101 -0.2313 -0.3677
  179DOPC  H11R21932   6.246   5.194  13.396  1.1641  1.0215 -4.0438
  179DOPC  H11S21933   6.116   5.266  13.305  0.3715 -2.0370 -0.7164
  179DOPC  C21221934   6.070   5.285  13.515 -1.1697 -0.0181 -0.6360
  179DOPC  H12R21935   6.133   5.296  13.606 -1.2476  1.7340 -0.7535
  179DOPC  H12S21936   6.016   5.189  13.528  1.8048 -1.6040  1.0150
  179DOPC  C21321937   5.964   5.404  13.516 -0.4147  0.1887 -1.0428
  179DOPC  H13R21938   6.021   5.494  13.548  0.9724 -0.4984 -1.5110
  179DOPC  H13S21939   5.879   5.383  13.584 -0.3560  1.1270 -0.6704
  179DOPC  C21421940   5.915   5.444  13.376 -0.5559  0.7239  0.1250
  179DOPC  H14R21941   5.904   5.359  13.305  2.3357 -1.5284  2.1173
  179DOPC  H14S21942   5.997   5.501  13.325  0.3619 -0.9731 -0.3758
  179DOPC  C21521943   5.795   5.536  13.378  0.0082 -0.0442 -0.5271
  179DOPC  H15R21944   5.805   5.609  13.461 -2.0655 -1.1492  0.7889
  179DOPC  H15S21945   5.709   5.471  13.406  0.4105  0.1708  1.3954
  179DOPC  C21621946   5.763   5.600  13.246  0.8500 -0.2404  0.0538
  179DOPC  H16R21947   5.718   5.520  13.183 -0.2453 -0.5185  1.1306
  179DOPC  H16S21948   5.854   5.627  13.189  0.8390 -1.6427 -0.6902
  179DOPC  C21721949   5.663   5.711  13.242 -0.1263 -0.0722 -0.1114
  179DOPC  H17R21950   5.698   5.798  13.301  1.7517 -1.0895  0.3594
  179DOPC  H17S21951   5.565   5.678  13.282  0.7837 -0.7668  1.6966
  179DOPC  C21821952   5.625   5.745  13.098 -0.2664 -0.0789  0.7698
  179DOPC  H18R21953   5.718   5.793  13.059  1.0206 -0.9755  2.6132
  179DOPC  H18S21954   5.542   5.818  13.100  0.5155  0.8634  0.2395
  179DOPC  H18T21955   5.593   5.664  13.029 -2.0750  0.5519  0.8191
  179DOPC   C3321956   5.933   5.575  12.858  0.2748  0.6804  0.3816
  179DOPC   H3X21957   5.926   5.615  12.962  1.3176 -1.8959  1.5545
  179DOPC   H3Y21958   6.030   5.621  12.830  0.3938  0.0016 -0.3693
  179DOPC   C3421959   5.936   5.427  12.869  0.3797 -0.5042 -0.1490
  179DOPC   H4X21960   6.036   5.399  12.910 -1.1677 -1.6931  3.2912
  179DOPC   H4Y21961   5.933   5.381  12.768 -1.0385 -2.8798  0.8809
  179DOPC   C3521962   5.827   5.365  12.963  0.2526 -0.2926 -0.0065
  179DOPC   H5X21963   5.725   5.396  12.934  1.0860  1.8636 -0.8649
  179DOPC   H5Y21964   5.850   5.401  13.066  3.3743 -0.2514 -0.6115
  179DOPC   C3621965   5.860   5.214  12.961 -0.5374 -0.3301  0.2445
  179DOPC   H6X21966   5.871   5.173  12.859  2.3612 -1.4756  0.9299
  179DOPC   H6Y21967   5.960   5.190  13.003  0.4803 -0.6704 -2.1755
  179DOPC   C3721968   5.764   5.126  13.043 -0.0081  0.5400 -0.9877
  179DOPC   H7X21969   5.670   5.122  12.984 -1.4717  0.2873  1.2322
  179DOPC   H7Y21970   5.791   5.018  13.043 -0.2157  0.4279  1.4566
  179DOPC   C3821971   5.748   5.171  13.194 -0.6943 -0.3796 -0.1087
  179DOPC   H8X21972   5.709   5.275  13.186  1.3873  0.3743 -0.9257
  179DOPC   H8Y21973   5.847   5.161  13.243 -0.5626 -0.4458 -0.3830
  179DOPC   C3921974   5.653   5.076  13.261 -0.2742 -0.7927  0.2723
  179DOPC   H9X21975   5.573   5.043  13.193 -0.1193  0.0605 -0.3385
  179DOPC  C31021976   5.652   5.045  13.390  0.5270 -0.3107 -0.6736
  179DOPC  H10X21977   5.572   4.981  13.430  1.2231  0.4647  2.2458
  179DOPC  C31121978   5.743   5.098  13.499  0.5038 -0.2129 -0.1208
  179DOPC  H11X21979   5.791   5.192  13.464  0.1523  0.1581  0.3656
  179DOPC  H11Y21980   5.819   5.024  13.532 -1.2396 -2.0994 -0.1404
  179DOPC  C31221981   5.648   5.136  13.616  0.7217 -0.2349  0.3611
  179DOPC  H12X21982   5.713   5.176  13.697  0.3231 -2.4762  1.8569
  179DOPC  H12Y21983   5.588   5.051  13.653 -0.7598  0.0956 -1.1558
  179DOPC  C31321984   5.560   5.260  13.577 -0.2719 -0.3248  0.5430
  179DOPC  H13X21985   5.603   5.323  13.496  0.3208  0.8145  1.7011
  179DOPC  H13Y21986   5.463   5.219  13.541 -0.1267 -0.3364  0.1686
  179DOPC  C31421987   5.541   5.355  13.702  0.2297  0.2311  0.4619
  179DOPC  H14X21988   5.489   5.303  13.785  1.0861 -1.6871 -0.1375
  179DOPC  H14Y21989   5.638   5.388  13.745 -1.0568  4.3333  0.5885
  179DOPC  C31521990   5.458   5.479  13.662 -0.0666  0.1430  0.7444
  179DOPC  H15X21991   5.359   5.444  13.625  0.0856 -0.1760  0.6378
  179DOPC  H15Y21992   5.516   5.532  13.584  1.4971 -0.1232  1.6710
  179DOPC  C31621993   5.433   5.596  13.763  0.2604  0.3244 -0.5269
  179DOPC  H16X21994   5.530   5.646  13.783  2.2318 -3.0466 -0.9252
  179DOPC  H16Y21995   5.365   5.670  13.715  0.1524 -0.5388 -1.7442
  179DOPC  C31721996   5.357   5.545  13.887  0.7790 -0.3810  0.1583
  179DOPC  H17X21997   5.249   5.529  13.869 -0.3691  3.5858  2.4086
  179DOPC  H17Y21998   5.398   5.449  13.923 -1.4769 -1.0987  0.9679
  179DOPC  C31821999   5.364   5.638  14.013  0.2479  0.3139 -0.1861
  179DOPC  H18X22000   5.289   5.623  14.094 -0.9949  1.2218 -1.1080
  179DOPC  H18Y22001   5.465   5.643  14.058 -0.4695  1.0543  1.4228
  179DOPC  H18Z22002   5.340   5.742  13.982 -0.8966 -0.2283 -1.2096
  180DOPC     N22003   6.061   3.227  11.693  1.2048  0.2662  0.3269
  180DOPC   C1222004   5.994   3.330  11.786  0.2587 -0.3608  1.0459
  180DOPC  H12A22005   5.929   3.274  11.851 -0.8931 -0.1322  0.1145
  180DOPC  H12B22006   5.934   3.382  11.713 -0.1312 -3.4811 -1.0637
  180DOPC   C1322007   6.160   3.146  11.775 -0.2159 -0.2429  0.6356
  180DOPC  H13A22008   6.194   3.058  11.723  0.8068  0.3143  0.3350
  180DOPC  H13B22009   6.249   3.203  11.797 -1.3586  1.4298  1.1693
  180DOPC  H13C22010   6.113   3.113  11.867 -1.5117 -2.7616 -0.8238
  180DOPC   C1422011   6.129   3.283  11.566  0.5493 -0.5924 -1.2822
  180DOPC  H14A22012   6.057   3.348  11.519 -0.2664 -0.8617 -0.4242
  180DOPC  H14B22013   6.214   3.344  11.594 -1.0997  1.8957 -1.4389
  180DOPC  H14C22014   6.158   3.206  11.496  0.9335 -1.0356 -0.6517
  180DOPC   C1522015   5.960   3.124  11.646  0.4648  0.3694 -0.3622
  180DOPC  H15A22016   6.005   3.061  11.569 -0.6870  0.5463 -1.2095
  180DOPC  H15B22017   5.872   3.167  11.601  1.3375  1.9612 -0.6143
  180DOPC  H15C22018   5.920   3.068  11.729  0.0302  1.0203 -0.1282
  180DOPC   C1122019   6.076   3.436  11.859 -0.8781  0.1745 -0.1437
  180DOPC  H11A22020   6.135   3.498  11.788 -0.5851  0.3970  0.2890
  180DOPC  H11B22021   5.995   3.497  11.905 -1.8411 -1.0646 -0.1336
  180DOPC     P22022   6.281   3.432  12.025 -0.3371 -0.0043  0.0615
  180DOPC   O1322023   6.248   3.576  12.057 -0.8628 -0.4507 -0.1057
  180DOPC   O1422024   6.394   3.417  11.929  0.0605  0.0646 -0.4755
  180DOPC   O1222025   6.142   3.382  11.970  0.0685  0.1287 -0.1059
  180DOPC   O1122026   6.317   3.356  12.154 -0.0032  0.0209 -0.3041
  180DOPC    C122027   6.239   3.242  12.196  0.3394 -0.2850 -0.1850
  180DOPC    HA22028   6.308   3.156  12.211  0.7784  0.0881 -0.0568
  180DOPC    HB22029   6.153   3.213  12.132  1.0553 -2.9567 -0.0663
  180DOPC    C222030   6.177   3.283  12.336 -0.3937  0.1943  0.1330
  180DOPC    HS22031   6.082   3.335  12.311 -0.8891 -0.4001  0.7256
  180DOPC   O2122032   6.269   3.370  12.415 -0.2083  0.4086  0.3516
  180DOPC   C2122033   6.221   3.471  12.465  0.0271  0.2943  0.1915
  180DOPC   O2222034   6.106   3.508  12.449  0.6912 -0.6491 -0.1385
  180DOPC   C2222035   6.325   3.549  12.539 -0.2874 -0.7818 -0.5973
  180DOPC   H2R22036   6.419   3.563  12.482  1.0360  0.0435  1.6616
  180DOPC   H2S22037   6.361   3.500  12.631  2.5686  1.1739 -0.5178
  180DOPC    C322038   6.124   3.161  12.416 -0.4267 -0.8044  0.1160
  180DOPC    HX22039   6.206   3.115  12.474 -3.0235 -2.1605  3.0416
  180DOPC    HY22040   6.107   3.077  12.345 -0.2985  0.7212 -1.8087
  180DOPC   O3122041   6.015   3.193  12.504 -0.0378  0.1207  0.3609
  180DOPC   C3122042   6.049   3.246  12.621  0.3748 -1.0380  0.6679
  180DOPC   O3222043   6.164   3.265  12.653  0.2331 -0.1546 -0.6257
  180DOPC   C3222044   5.926   3.268  12.708  0.2245  0.1760  0.1326
  180DOPC   H2X22045   5.841   3.255  12.638  0.6199 -0.3610 -0.2572
  180DOPC   H2Y22046   5.911   3.185  12.779  0.3441  1.5312  1.8065
  180DOPC   C2322047   6.286   3.701  12.556 -0.0839 -0.0768 -0.1880
  180DOPC   H3R22048   6.259   3.736  12.455 -1.3887  0.3809  0.2980
  180DOPC   H3S22049   6.371   3.762  12.592 -0.3947 -0.1577  0.7123
  180DOPC   C2422050   6.167   3.727  12.656 -0.1427 -0.1145  0.1577
  180DOPC   H4R22051   6.075   3.671  12.628 -0.5434  0.7092 -0.2181
  180DOPC   H4S22052   6.145   3.836  12.651 -1.8928 -0.4736 -1.3869
  180DOPC   C2522053   6.213   3.700  12.799  0.2841 -0.7231  0.5535
  180DOPC   H5R22054   6.298   3.766  12.828 -1.7466  2.2218  0.3138
  180DOPC   H5S22055   6.239   3.593  12.812  2.0200 -0.3435  0.4878
  180DOPC   C2622056   6.095   3.731  12.897 -0.3225  0.2023  0.3903
  180DOPC   H6R22057   6.005   3.672  12.869 -1.1727  0.4093  2.5439
  180DOPC   H6S22058   6.067   3.838  12.886 -1.2171 -0.0402  0.2814
  180DOPC   C2722059   6.125   3.700  13.044 -0.1903  0.0106  1.0623
  180DOPC   H7R22060   6.218   3.754  13.072 -0.9335  1.5358  0.7055
  180DOPC   H7S22061   6.137   3.593  13.070  0.0902 -0.4550 -0.8453
  180DOPC   C2822062   6.008   3.758  13.127 -0.0294 -0.1636 -0.5173
  180DOPC   H8R22063   5.918   3.698  13.102  0.2626 -0.7618 -0.1671
  180DOPC   H8S22064   5.980   3.856  13.082 -0.5077  0.0984  0.3294
  180DOPC   C2922065   6.028   3.792  13.274 -0.6594 -0.4971 -0.5212
  180DOPC   H9R22066   6.120   3.848  13.295 -0.9360 -0.3465  0.3671
  180DOPC  C21022067   5.943   3.770  13.378 -0.0950 -0.2762 -0.5579
  180DOPC  H10R22068   5.966   3.824  13.471  1.0436  2.5734 -2.3479
  180DOPC  C21122069   5.803   3.716  13.360  0.1895  0.6696 -0.3540
  180DOPC  H11R22070   5.815   3.624  13.300  3.6259  0.7690 -0.0252
  180DOPC  H11S22071   5.740   3.788  13.304  0.8085  1.4699 -0.0466
  180DOPC  C21222072   5.747   3.696  13.500 -0.1876 -0.1092  0.3965
  180DOPC  H12R22073   5.815   3.640  13.569  0.7848  0.8718  0.2643
  180DOPC  H12S22074   5.661   3.629  13.478  0.0496 -0.7405  1.3074
  180DOPC  C21322075   5.690   3.824  13.564  0.1749 -0.1427  0.2116
  180DOPC  H13R22076   5.614   3.850  13.487  0.7178  0.9697  0.0348
  180DOPC  H13S22077   5.770   3.900  13.562  0.7911 -0.7863 -1.0359
  180DOPC  C21422078   5.628   3.806  13.704  0.0568  0.2645  0.5963
  180DOPC  H14R22079   5.700   3.751  13.769  0.1458 -2.3640 -1.5566
  180DOPC  H14S22080   5.553   3.725  13.691 -0.3736  0.4287  1.9740
  180DOPC  C21522081   5.573   3.935  13.768 -0.9063 -0.3067  0.0317
  180DOPC  H15R22082   5.515   3.984  13.687  0.9362  0.6814 -0.7435
  180DOPC  H15S22083   5.665   3.994  13.792  0.1632 -1.3660 -1.3164
  180DOPC  C21622084   5.498   3.910  13.900 -0.0118  0.3437 -0.2399
  180DOPC  H16R22085   5.481   4.006  13.953 -0.9906  1.8519 -3.0567
  180DOPC  H16S22086   5.555   3.852  13.975 -1.0651  1.1665  1.2407
  180DOPC  C21722087   5.364   3.837  13.884 -0.3307  0.0425 -0.2915
  180DOPC  H17R22088   5.375   3.746  13.821 -1.1141 -0.2648  0.0123
  180DOPC  H17S22089   5.298   3.909  13.830 -0.9681  0.2620  0.7534
  180DOPC  C21822090   5.315   3.802  14.023 -0.1653 -0.5332 -0.1431
  180DOPC  H18R22091   5.256   3.708  14.026 -1.0599  0.0159  0.0159
  180DOPC  H18S22092   5.251   3.882  14.067 -0.0979 -1.9362  2.7861
  180DOPC  H18T22093   5.397   3.790  14.096 -0.6320  0.8351  0.6547
  180DOPC   C3322094   5.910   3.401  12.778 -0.7739  0.1670  0.3928
  180DOPC   H3X22095   5.882   3.479  12.704  1.0048  1.5984  1.1528
  180DOPC   H3Y22096   6.000   3.434  12.835 -0.0482  0.4039 -0.8626
  180DOPC   C3422097   5.794   3.416  12.878 -0.4019  0.2567 -0.1755
  180DOPC   H4X22098   5.805   3.518  12.920  0.3537  0.3763 -0.6412
  180DOPC   H4Y22099   5.814   3.349  12.964  1.3272  1.4616  0.4130
  180DOPC   C3522100   5.650   3.390  12.825 -0.7384  0.7398  0.0558
  180DOPC   H5X22101   5.643   3.288  12.783 -0.3323  0.3292  0.9596
  180DOPC   H5Y22102   5.621   3.454  12.739  0.2276 -0.4772 -1.2189
  180DOPC   C3622103   5.534   3.395  12.931  0.2985  0.7812 -0.1220
  180DOPC   H6X22104   5.493   3.498  12.930 -1.0368  0.2587 -0.6439
  180DOPC   H6Y22105   5.451   3.331  12.897  0.3996 -0.0073  1.0548
  180DOPC   C3722106   5.565   3.341  13.068  0.0580 -0.3477  0.1694
  180DOPC   H7X22107   5.604   3.237  13.071  2.2121  0.4019  0.4510
  180DOPC   H7Y22108   5.647   3.397  13.118 -0.3440  1.2026 -0.8274
  180DOPC   C3822109   5.451   3.350  13.181  0.4154  0.1876 -0.9189
  180DOPC   H8X22110   5.412   3.454  13.183  1.1532  0.4759 -1.2034
  180DOPC   H8Y22111   5.506   3.320  13.273  1.3578  1.7406 -0.9330
  180DOPC   C3922112   5.337   3.252  13.151 -0.0951  0.4917 -0.5964
  180DOPC   H9X22113   5.243   3.288  13.106  0.4862  1.4168 -1.0853
  180DOPC  C31022114   5.345   3.115  13.179  0.0888  0.2760 -0.0521
  180DOPC  H10X22115   5.271   3.053  13.127  2.2446 -1.4373 -1.2198
  180DOPC  C31122116   5.450   3.032  13.248 -0.3469 -0.0980 -0.2370
  180DOPC  H11X22117   5.412   2.981  13.340  1.1905 -1.3556 -0.2675
  180DOPC  H11Y22118   5.543   3.090  13.263  0.3830 -1.0943 -0.7590
  180DOPC  C31222119   5.484   2.910  13.152 -0.2353 -0.0959 -0.2534
  180DOPC  H12X22120   5.389   2.854  13.143 -0.1793 -0.1329 -0.6322
  180DOPC  H12Y22121   5.551   2.832  13.195  1.6983  1.8638  0.4921
  180DOPC  C31322122   5.556   2.946  13.020  0.3383 -0.5036  0.0196
  180DOPC  H13X22123   5.487   3.009  12.960 -0.9468 -1.0251  0.8890
  180DOPC  H13Y22124   5.635   3.022  13.038 -1.4889  1.2242  1.1141
  180DOPC  C31422125   5.599   2.816  12.951 -0.0019  0.4454 -0.1627
  180DOPC  H14X22126   5.709   2.814  12.967  0.0651  1.9012 -0.3669
  180DOPC  H14Y22127   5.569   2.721  13.002  0.8441 -0.0769 -0.6179
  180DOPC  C31522128   5.551   2.811  12.808  0.0181  0.1934  0.5628
  180DOPC  H15X22129   5.441   2.813  12.798  0.1508 -1.9091 -3.7116
  180DOPC  H15Y22130   5.583   2.714  12.764 -1.8275  0.3676 -1.3444
  180DOPC  C31622131   5.624   2.927  12.736  0.5885  0.7420  0.5095
  180DOPC  H16X22132   5.578   3.026  12.756  1.3267  0.9021  1.5003
  180DOPC  H16Y22133   5.722   2.924  12.787  0.1648 -1.6215  1.3427
  180DOPC  C31722134   5.616   2.925  12.581 -0.1984  0.9661  0.5857
  180DOPC  H17X22135   5.664   2.830  12.548  0.3554  1.8633 -1.3589
  180DOPC  H17Y22136   5.513   2.932  12.539  0.3516  3.0415 -0.5340
  180DOPC  C31822137   5.689   3.042  12.522  0.4527 -0.3047 -0.2162
  180DOPC  H18X22138   5.799   3.033  12.533  0.3674  0.1640  1.1847
  180DOPC  H18Y22139   5.663   3.056  12.415 -1.1146  0.3963  0.2249
  180DOPC  H18Z22140   5.655   3.141  12.560  0.5000 -0.0604 -0.7973
  181DOPC     N22141   0.107   3.566  12.084  0.3195  1.1923  0.2485
  181DOPC   C1222142   0.008   3.673  12.129  0.0640 -0.0484 -1.0349
  181DOPC  H12A22143  -0.029   3.711  12.035 -0.3101  2.2527 -0.0292
  181DOPC  H12B22144   0.069   3.748  12.178 -1.0157  1.6402 -2.1550
  181DOPC   C1322145   0.030   3.447  12.022  0.1230  0.0913 -0.4885
  181DOPC  H13A22146  -0.011   3.476  11.927  0.4223 -1.3792 -1.0972
  181DOPC  H13B22147   0.109   3.372  12.014 -0.5147 -0.7416  0.6425
  181DOPC  H13C22148  -0.055   3.412  12.078  0.6315 -2.1096 -0.9706
  181DOPC   C1422149   0.184   3.510  12.200 -0.3625 -0.4091  0.3290
  181DOPC  H14A22150   0.217   3.583  12.273 -1.7842  0.1971  0.3968
  181DOPC  H14B22151   0.117   3.446  12.258 -0.7139 -0.0853  0.2849
  181DOPC  H14C22152   0.264   3.445  12.168 -0.5181  0.3430 -1.6716
  181DOPC   C1522153   0.204   3.628  11.991  0.5510  0.0344 -0.2318
  181DOPC  H15A22154   0.157   3.672  11.904 -1.4657 -0.6258  0.4490
  181DOPC  H15B22155   0.273   3.550  11.964 -0.6956 -1.6839  1.2517
  181DOPC  H15C22156   0.261   3.709  12.035  0.6869 -0.1002 -0.1599
  181DOPC   C1122157  -0.111   3.632  12.219 -0.4974  0.1708  0.2905
  181DOPC  H11A22158  -0.179   3.717  12.237 -0.3136  0.2893  0.4257
  181DOPC  H11B22159  -0.171   3.565  12.153 -0.9987 -0.9231  1.8088
  181DOPC     P22160  -0.028   3.644  12.470 -0.1984 -0.2438  0.2358
  181DOPC   O1322161   0.052   3.766  12.432  0.3860  0.2548 -1.0588
  181DOPC   O1422162   0.046   3.540  12.553 -0.1451  0.0590  1.0056
  181DOPC   O1222163  -0.068   3.568  12.342  0.5804 -0.3000  0.5190
  181DOPC   O1122164  -0.166   3.681  12.533 -0.4055  0.4490  0.2512
  181DOPC    C122165  -0.224   3.813  12.558  0.0239  0.4514  1.0231
  181DOPC    HA22166  -0.330   3.800  12.589 -0.4191  0.3082 -0.4726
  181DOPC    HB22167  -0.212   3.872  12.464 -0.4106 -1.2601 -0.1541
  181DOPC    C222168  -0.158   3.886  12.680  0.4666  0.9331  0.6109
  181DOPC    HS22169  -0.052   3.905  12.651  0.2400 -0.3207 -1.1959
  181DOPC   O2122170  -0.159   3.788  12.789 -0.3892 -0.1322 -0.6829
  181DOPC   C2122171  -0.060   3.797  12.877  0.4950 -0.4349  0.3085
  181DOPC   O2222172   0.045   3.855  12.861 -0.7582 -0.0696  0.1179
  181DOPC   C2222173  -0.114   3.748  13.013 -0.4491  1.0180 -0.2764
  181DOPC   H2R22174  -0.192   3.672  12.992  0.0701  0.3733  0.1228
  181DOPC   H2S22175  -0.158   3.841  13.056  0.2678  0.5128  1.6437
  181DOPC    C322176  -0.222   4.024  12.726  0.3882 -0.0918 -0.3164
  181DOPC    HX22177  -0.329   4.009  12.753  0.0673 -0.3256 -1.6309
  181DOPC    HY22178  -0.231   4.084  12.633 -1.3334 -0.5700 -0.4924
  181DOPC   O3122179  -0.161   4.087  12.840  0.3465  0.4016 -0.0403
  181DOPC   C3122180  -0.049   4.152  12.813  0.0822  0.3374  0.7303
  181DOPC   O3222181   0.003   4.155  12.702  0.1508 -0.0103 -0.0642
  181DOPC   C3222182   0.006   4.230  12.930 -0.6469 -0.8122  0.5909
  181DOPC   H2X22183   0.100   4.277  12.895  0.7132 -2.7250  1.5012
  181DOPC   H2Y22184  -0.073   4.304  12.958  0.1700  0.4434 -0.3261
  181DOPC   C2322185  -0.011   3.698  13.118  0.1274 -0.2887  0.8218
  181DOPC   H3R22186  -0.057   3.667  13.214 -0.8754  2.8427  1.4718
  181DOPC   H3S22187   0.065   3.777  13.137  0.4465 -0.4380  0.1668
  181DOPC   C2422188   0.063   3.575  13.070 -0.0526 -0.2867  0.3473
  181DOPC   H4R22189   0.115   3.596  12.974  0.8594  1.0169  1.1023
  181DOPC   H4S22190  -0.006   3.489  13.053 -0.8689  0.1733  1.2095
  181DOPC   C2522191   0.175   3.531  13.165 -0.5744 -0.1154  0.3017
  181DOPC   H5R22192   0.234   3.621  13.191 -0.9708 -0.2106  1.6034
  181DOPC   H5S22193   0.243   3.472  13.100 -1.1731 -1.4409  0.8249
  181DOPC   C2622194   0.132   3.448  13.283  0.7734  0.4014 -0.0672
  181DOPC   H6R22195   0.117   3.345  13.244 -2.2729  0.3160  1.0852
  181DOPC   H6S22196   0.037   3.484  13.328 -0.9458 -1.0031 -2.3590
  181DOPC   C2722197   0.247   3.455  13.391 -0.1774 -1.1022  0.9576
  181DOPC   H7R22198   0.278   3.560  13.409 -1.3226 -0.7002  0.6914
  181DOPC   H7S22199   0.324   3.396  13.336  1.2723  0.4759  1.2404
  181DOPC   C2822200   0.218   3.374  13.517  0.1249  0.7677 -0.1409
  181DOPC   H8R22201   0.185   3.275  13.479  1.8955  0.0244  0.1271
  181DOPC   H8S22202   0.137   3.417  13.579 -0.3180 -0.6945  0.3497
  181DOPC   C2922203   0.344   3.343  13.599  0.0157 -0.1562  0.5566
  181DOPC   H9R22204   0.431   3.310  13.540 -0.1766  0.1177  0.1123
  181DOPC  C21022205   0.347   3.350  13.729  0.1801  0.3548  0.1634
  181DOPC  H10R22206   0.448   3.332  13.768  0.2823  1.0807  0.2624
  181DOPC  C21122207   0.242   3.387  13.831  0.5165 -0.3754 -0.5068
  181DOPC  H11R22208   0.159   3.439  13.778  1.2846  0.6830 -0.7069
  181DOPC  H11S22209   0.293   3.449  13.907 -0.4709 -1.5049  1.1373
  181DOPC  C21222210   0.162   3.279  13.906  0.2220 -0.2749  0.1684
  181DOPC  H12R22211   0.131   3.199  13.836 -0.9398 -0.4896  0.9026
  181DOPC  H12S22212   0.072   3.333  13.941  2.0753  2.7504  0.6497
  181DOPC  C21322213   0.238   3.222  14.031 -0.6453  0.4756 -0.5471
  181DOPC  H13R22214   0.235   3.300  14.110  0.5737  0.4329 -0.4513
  181DOPC  H13S22215   0.343   3.206  14.001  0.0083  2.7201  0.3370
  181DOPC  C21422216   0.187   3.094  14.094 -0.3164  0.8022  0.6604
  181DOPC  H14R22217   0.235   3.014  14.034  1.7457  2.1839  0.3464
  181DOPC  H14S22218   0.077   3.079  14.091 -0.1995 -0.0898 -2.1717
  181DOPC  C21522219   0.244   3.068  14.230 -0.7376  0.4683  0.2210
  181DOPC  H15R22220   0.193   3.142  14.296 -0.0638  1.2324 -0.0950
  181DOPC  H15S22221   0.353   3.086  14.215 -0.8855 -0.2034 -1.9077
  181DOPC  C21622222   0.223   2.921  14.276  0.6290 -0.0324  0.4016
  181DOPC  H16R22223   0.237   2.842  14.199 -0.7681  0.1629 -0.0942
  181DOPC  H16S22224   0.113   2.912  14.293  0.4866 -1.2747 -0.9927
  181DOPC  C21722225   0.312   2.882  14.399  0.6370  0.4652 -0.1878
  181DOPC  H17R22226   0.264   2.928  14.488  0.3729  0.2203 -0.2012
  181DOPC  H17S22227   0.408   2.937  14.391  0.9791 -0.0117  0.4743
  181DOPC  C21822228   0.322   2.731  14.407 -0.1511 -0.0340 -0.1375
  181DOPC  H18R22229   0.221   2.695  14.378 -0.6219  3.2241 -3.2681
  181DOPC  H18S22230   0.352   2.689  14.505 -1.0454 -0.6294 -0.1034
  181DOPC  H18T22231   0.393   2.685  14.335 -0.0651 -1.9948  1.1242
  181DOPC   C3322232   0.037   4.136  13.046 -0.0587  0.3749 -0.0863
  181DOPC   H3X22233   0.097   4.051  13.007 -1.0247 -1.4559  2.1418
  181DOPC   H3Y22234  -0.056   4.100  13.097  0.3793 -1.6345 -0.6105
  181DOPC   C3422235   0.113   4.201  13.166 -0.0617 -0.0418  0.4769
  181DOPC   H4X22236   0.047   4.265  13.228  0.8389  0.2162  1.1785
  181DOPC   H4Y22237   0.191   4.264  13.119  0.8184  0.2560  2.2401
  181DOPC   C3522238   0.173   4.098  13.259 -0.9189 -0.1450 -0.0785
  181DOPC   H5X22239   0.230   4.146  13.341 -1.0157 -1.9925  1.1153
  181DOPC   H5Y22240   0.258   4.052  13.205 -1.3959  0.7033 -1.6218
  181DOPC   C3622241   0.077   3.998  13.311  0.7311 -0.0270  0.6738
  181DOPC   H6X22242   0.002   4.054  13.371  0.8232  0.6019  0.2173
  181DOPC   H6Y22243   0.014   3.939  13.241  1.6151  0.5118 -0.6139
  181DOPC   C3722244   0.145   3.885  13.387 -0.4254  0.1530  0.2023
  181DOPC   H7X22245   0.066   3.819  13.429 -0.2991  0.3658  0.7764
  181DOPC   H7Y22246   0.201   3.827  13.311  0.4785 -1.0451  1.7338
  181DOPC   C3822247   0.244   3.936  13.502 -0.1466  0.1117  0.4883
  181DOPC   H8X22248   0.191   4.005  13.571  0.2070  0.3815  0.4943
  181DOPC   H8Y22249   0.325   3.999  13.460  0.6875 -1.5614 -0.5006
  181DOPC   C3922250   0.307   3.813  13.559 -0.3629  0.9826  0.1513
  181DOPC   H9X22251   0.384   3.771  13.493 -1.1710  0.7689 -0.6658
  181DOPC  C31022252   0.283   3.755  13.675  0.2247  0.0670  0.2574
  181DOPC  H10X22253   0.332   3.659  13.697  1.7607  0.3000 -1.9019
  181DOPC  C31122254   0.177   3.812  13.767 -0.0377  0.0086 -0.4266
  181DOPC  H11X22255   0.106   3.733  13.800 -1.2349  0.7961 -1.0721
  181DOPC  H11Y22256   0.117   3.894  13.723 -0.2109  1.9254  3.0627
  181DOPC  C31222257   0.233   3.867  13.900  0.1365  0.0681 -0.1168
  181DOPC  H12X22258   0.145   3.905  13.957 -0.6147 -2.2139  0.3341
  181DOPC  H12Y22259   0.308   3.949  13.892 -0.2943  0.7656  2.1361
  181DOPC  C31322260   0.303   3.760  13.984 -0.0573  0.5811 -0.7232
  181DOPC  H13X22261   0.240   3.671  14.004 -1.5982  1.5323 -1.1574
  181DOPC  H13Y22262   0.394   3.721  13.934  0.0010 -1.6099  0.9370
  181DOPC  C31422263   0.339   3.807  14.124  0.5005  0.2995  0.3294
  181DOPC  H14X22264   0.429   3.872  14.117  0.5447  0.1275 -0.8955
  181DOPC  H14Y22265   0.250   3.853  14.173 -2.9436 -0.5224 -4.3834
  181DOPC  C31522266   0.392   3.691  14.215 -0.2003 -0.1060  0.8138
  181DOPC  H15X22267   0.472   3.639  14.158  0.6240  0.6133  1.2920
  181DOPC  H15Y22268   0.315   3.612  14.231  0.6596 -1.3995 -1.0638
  181DOPC  C31622269   0.432   3.747  14.349  0.3281  0.0130 -0.0782
  181DOPC  H16X22270   0.490   3.836  14.317 -0.2684 -0.3378 -2.2936
  181DOPC  H16Y22271   0.336   3.764  14.402  0.4512 -1.1625  0.5630
  181DOPC  C31722272   0.528   3.667  14.427 -0.1323  0.6044  0.0172
  181DOPC  H17X22273   0.480   3.573  14.461  0.4713  0.1109 -0.4796
  181DOPC  H17Y22274   0.614   3.635  14.365  1.7668  0.6255  2.4672
  181DOPC  C31822275   0.579   3.742  14.556  0.3019  0.8547 -0.0289
  181DOPC  H18X22276   0.604   3.846  14.527 -1.5033  1.1052 -0.8052
  181DOPC  H18Y22277   0.511   3.753  14.644  1.5432  0.6807  0.9738
  181DOPC  H18Z22278   0.672   3.696  14.595  1.3465  2.2168 -0.8204
  182DOPC     N22279   1.720   0.912  12.022  0.2066  0.4327  0.2903
  182DOPC   C1222280   1.776   0.822  12.131  0.0214  0.3438 -0.1364
  182DOPC  H12A22281   1.871   0.789  12.092 -0.0598  0.2077 -0.2214
  182DOPC  H12B22282   1.713   0.736  12.150 -1.6014  1.8589  1.7011
  182DOPC   C1322283   1.806   1.019  11.983  0.7458  0.5965 -0.4226
  182DOPC  H13A22284   1.759   1.107  11.942 -1.2051  0.5836  1.5774
  182DOPC  H13B22285   1.846   1.055  12.077  1.0473  0.2391 -0.4160
  182DOPC  H13C22286   1.890   0.985  11.924  0.4665 -0.3354 -0.3019
  182DOPC   C1422287   1.580   0.962  12.070  0.4668 -0.3326 -0.5959
  182DOPC  H14A22288   1.514   0.878  12.085 -0.4052  0.7896  2.7210
  182DOPC  H14B22289   1.577   1.024  12.158 -0.2647 -1.0885 -0.0769
  182DOPC  H14C22290   1.541   1.032  11.998 -1.2336  0.4754  1.0345
  182DOPC   C1522291   1.696   0.829  11.898 -0.2703 -0.4685 -0.3556
  182DOPC  H15A22292   1.787   0.786  11.861 -1.1789 -0.7952 -2.3450
  182DOPC  H15B22293   1.654   0.882  11.814  0.4353  1.2250  0.3286
  182DOPC  H15C22294   1.612   0.764  11.922  0.2364 -1.1679 -0.4488
  182DOPC   C1122295   1.795   0.887  12.274  0.3326  0.5658  0.0174
  182DOPC  H11A22296   1.694   0.922  12.303 -0.2446  0.3876 -1.6324
  182DOPC  H11B22297   1.830   0.811  12.346 -0.0568  1.7917  1.5608
  182DOPC     P22298   2.039   0.973  12.309 -0.0610  0.7667 -0.0944
  182DOPC   O1322299   2.097   1.108  12.302  0.2264  0.2115 -0.1943
  182DOPC   O1422300   2.099   0.868  12.228 -0.2038 -0.2435 -0.4846
  182DOPC   O1222301   1.890   0.989  12.260 -0.0052 -0.3387  0.1652
  182DOPC   O1122302   2.024   0.935  12.464 -0.4651  0.7375 -0.0384
  182DOPC    C122303   1.972   1.018  12.563  0.4552 -0.3427 -0.0844
  182DOPC    HA22304   1.933   0.961  12.651  0.2044 -2.3695 -1.4470
  182DOPC    HB22305   1.881   1.077  12.536  0.6478  0.8558  1.6810
  182DOPC    C222306   2.069   1.118  12.611  0.0137  0.4572 -0.2559
  182DOPC    HS22307   2.105   1.167  12.518 -1.0231  2.4921  0.3270
  182DOPC   O2122308   2.169   1.051  12.690  0.1338  0.2837 -0.6180
  182DOPC   C2122309   2.286   1.110  12.689 -0.0372  0.0176  0.2706
  182DOPC   O2222310   2.310   1.219  12.640 -0.0945 -0.2590 -0.0460
  182DOPC   C2222311   2.391   1.016  12.765  0.0909 -0.5025 -0.9080
  182DOPC   H2R22312   2.442   0.955  12.687  1.3348 -1.3592  0.5303
  182DOPC   H2S22313   2.329   0.947  12.826 -1.8466  0.6923 -1.4574
  182DOPC    C322314   2.015   1.245  12.688  0.1073  0.2441  0.1919
  182DOPC    HX22315   1.934   1.292  12.628 -1.3704  1.6531  3.1085
  182DOPC    HY22316   2.095   1.320  12.698  0.8846 -0.6581  0.8821
  182DOPC   O3122317   1.952   1.206  12.816  0.1064  0.1150 -0.2320
  182DOPC   C3122318   2.028   1.223  12.927  0.1153 -0.7232 -0.3519
  182DOPC   O3222319   2.138   1.272  12.926  0.0415  0.1995 -0.0100
  182DOPC   C3222320   1.951   1.159  13.047 -0.3562 -0.0499 -0.0474
  182DOPC   H2X22321   1.848   1.194  13.022  0.8972  4.3465  0.1417
  182DOPC   H2Y22322   1.953   1.048  13.039 -2.2310 -0.2096  1.0589
  182DOPC   C2322323   2.495   1.092  12.842 -0.1691  0.3668  0.3518
  182DOPC   H3R22324   2.561   1.153  12.777 -2.0597  1.9285 -0.2233
  182DOPC   H3S22325   2.560   1.012  12.884  1.5457  0.7261 -1.5331
  182DOPC   C2422326   2.440   1.188  12.955  0.2332  0.4273  0.1325
  182DOPC   H4R22327   2.351   1.150  13.009  0.1874  1.1267  0.5664
  182DOPC   H4S22328   2.411   1.284  12.907 -2.9452 -0.4912 -0.0156
  182DOPC   C2522329   2.548   1.210  13.060 -0.0435  0.1191 -0.6768
  182DOPC   H5R22330   2.647   1.232  13.014  0.4702 -0.9037 -0.1092
  182DOPC   H5S22331   2.561   1.113  13.113 -1.3264  0.4694  0.3380
  182DOPC   C2622332   2.523   1.310  13.168  0.2838 -0.0480  0.4309
  182DOPC   H6R22333   2.516   1.411  13.122  1.2515 -0.3472 -0.3932
  182DOPC   H6S22334   2.610   1.307  13.238 -0.0728  1.0933  0.9579
  182DOPC   C2722335   2.396   1.270  13.246  0.4218 -0.9843 -0.6235
  182DOPC   H7R22336   2.381   1.165  13.278 -2.2635  0.3452  3.2819
  182DOPC   H7S22337   2.311   1.302  13.183  0.5566  0.2547 -0.2051
  182DOPC   C2822338   2.389   1.351  13.385  0.1041  0.4814 -0.1798
  182DOPC   H8R22339   2.391   1.455  13.345  1.1317  0.2507 -0.7466
  182DOPC   H8S22340   2.478   1.334  13.449 -0.2684 -3.2093 -0.4261
  182DOPC   C2922341   2.265   1.337  13.465  0.3033  0.4051  0.2725
  182DOPC   H9R22342   2.193   1.416  13.442  1.0799  1.8681  2.6037
  182DOPC  C21022343   2.231   1.259  13.565 -0.2810  0.5001  0.2635
  182DOPC  H10R22344   2.134   1.272  13.615 -0.6318 -2.3777  0.4763
  182DOPC  C21122345   2.331   1.159  13.624  0.7491 -0.0063  0.2869
  182DOPC  H11R22346   2.438   1.184  13.606  0.4975  1.0809  0.2842
  182DOPC  H11S22347   2.308   1.057  13.584 -0.5547  1.0168 -1.7319
  182DOPC  C21222348   2.305   1.144  13.772  0.1656 -0.5421  1.0666
  182DOPC  H12R22349   2.196   1.132  13.790  0.0017  0.6894  0.9322
  182DOPC  H12S22350   2.342   1.235  13.823  4.0710 -1.8239  0.8127
  182DOPC  C21322351   2.372   1.029  13.844 -0.5714 -0.1489  0.1861
  182DOPC  H13R22352   2.375   1.055  13.952  1.8039  0.1122  0.1037
  182DOPC  H13S22353   2.480   1.027  13.817 -0.4707 -0.6651  0.6299
  182DOPC  C21422354   2.301   0.900  13.823  0.8071  0.2825 -0.6080
  182DOPC  H14R22355   2.295   0.871  13.716  0.1867  0.7335 -0.7015
  182DOPC  H14S22356   2.195   0.904  13.857  0.3654  2.7590 -2.0349
  182DOPC  C21522357   2.369   0.784  13.903 -0.0021 -0.5197  0.4600
  182DOPC  H15R22358   2.343   0.807  14.008 -1.1544 -0.0135  0.0923
  182DOPC  H15S22359   2.475   0.812  13.886 -0.2504 -0.0528 -0.4492
  182DOPC  C21622360   2.337   0.635  13.872 -0.2863  0.1791  0.0586
  182DOPC  H16R22361   2.370   0.610  13.769  0.0561 -0.8883  0.4118
  182DOPC  H16S22362   2.226   0.631  13.867 -0.2539  0.2552 -0.9159
  182DOPC  C21722363   2.400   0.544  13.974  0.2758 -0.0576 -0.2369
  182DOPC  H17R22364   2.365   0.575  14.075  1.4026 -1.1415  0.5256
  182DOPC  H17S22365   2.510   0.562  13.974  0.1887  0.8075 -2.6506
  182DOPC  C21822366   2.377   0.400  13.957  0.3256  0.4270  0.2413
  182DOPC  H18R22367   2.270   0.371  13.966  0.3971 -0.0434 -0.3131
  182DOPC  H18S22368   2.445   0.348  14.027  3.3656  1.8975 -1.3945
  182DOPC  H18T22369   2.413   0.371  13.856 -0.4933 -2.6350  0.7378
  182DOPC   C3322370   2.001   1.184  13.190 -0.5189 -0.3315  0.1729
  182DOPC   H3X22371   2.027   1.291  13.206  0.3526 -0.5019 -0.0569
  182DOPC   H3Y22372   2.093   1.123  13.199 -0.9789 -1.1863 -0.6107
  182DOPC   C3422373   1.895   1.126  13.292  0.1634 -0.5906  0.3339
  182DOPC   H4X22374   1.867   1.027  13.252  3.9012 -1.5544 -0.2624
  182DOPC   H4Y22375   1.808   1.194  13.308  0.5966 -0.0549  0.4705
  182DOPC   C3522376   1.968   1.104  13.434  0.0358  0.2643 -0.5337
  182DOPC   H5X22377   1.999   1.205  13.470  4.2812 -0.8174 -0.6539
  182DOPC   H5Y22378   2.062   1.045  13.429  0.3200  0.5334  1.1057
  182DOPC   C3622379   1.862   1.048  13.534  0.3968 -0.4139  0.5822
  182DOPC   H6X22380   1.760   1.084  13.510  0.4014  1.1266  2.6667
  182DOPC   H6Y22381   1.858   0.938  13.520  0.6289 -0.2064 -1.4539
  182DOPC   C3722382   1.877   1.099  13.679 -0.0289 -0.0177  0.6300
  182DOPC   H7X22383   1.974   1.059  13.716  1.9545  0.5154 -3.3521
  182DOPC   H7Y22384   1.884   1.209  13.697 -0.5358 -0.0654  1.1256
  182DOPC   C3822385   1.756   1.048  13.762 -0.0360  0.3922 -0.0447
  182DOPC   H8X22386   1.671   1.104  13.718  1.6487  3.6603  0.5516
  182DOPC   H8Y22387   1.767   1.089  13.865  0.4151 -0.9453  0.4690
  182DOPC   C3922388   1.740   0.901  13.759  0.8495  0.1146 -0.2445
  182DOPC   H9X22389   1.704   0.850  13.668 -0.8061  0.5187  0.1565
  182DOPC  C31022390   1.752   0.825  13.863  0.4360  0.2033 -0.4750
  182DOPC  H10X22391   1.733   0.717  13.852  3.0737 -0.1830 -1.8494
  182DOPC  C31122392   1.788   0.860  14.000 -0.2995 -0.1595  0.4957
  182DOPC  H11X22393   1.745   0.791  14.076 -0.4139 -0.5656  0.0659
  182DOPC  H11Y22394   1.752   0.959  14.034 -0.2625 -0.1354  0.4651
  182DOPC  C31222395   1.934   0.845  14.032 -0.7026  0.2622  0.0248
  182DOPC  H12X22396   1.996   0.907  13.964 -0.4745  0.1176  0.0980
  182DOPC  H12Y22397   1.968   0.743  14.006 -3.8260 -1.0086  0.5648
  182DOPC  C31322398   1.959   0.872  14.182 -0.2649  0.5157 -0.0457
  182DOPC  H13X22399   1.932   0.978  14.203 -1.5908  0.2565 -0.3598
  182DOPC  H13Y22400   1.880   0.817  14.237  0.2380 -1.3644 -1.1249
  182DOPC  C31422401   2.096   0.828  14.233 -0.4450 -0.1129  0.7109
  182DOPC  H14X22402   2.166   0.855  14.152 -0.0686 -1.0588  0.7116
  182DOPC  H14Y22403   2.103   0.888  14.327 -0.0665 -0.7595  1.0969
  182DOPC  C31522404   2.096   0.680  14.268 -0.1030 -0.4399  0.1674
  182DOPC  H15X22405   2.106   0.629  14.169 -3.9088 -0.0382 -0.5816
  182DOPC  H15Y22406   1.993   0.653  14.300 -1.4749  1.8817 -1.9341
  182DOPC  C31622407   2.195   0.637  14.375 -0.5089  0.0736 -0.3971
  182DOPC  H16X22408   2.295   0.665  14.336  0.4748 -0.2289  1.8014
  182DOPC  H16Y22409   2.177   0.691  14.470  1.3463 -0.3570  0.2259
  182DOPC  C31722410   2.204   0.480  14.388  0.6415 -0.3158 -0.8492
  182DOPC  H17X22411   2.255   0.452  14.483 -1.6758 -0.0824  0.5487
  182DOPC  H17Y22412   2.097   0.455  14.405  0.7784 -1.4348 -1.5582
  182DOPC  C31822413   2.258   0.406  14.270  0.4328  0.1528 -0.5531
  182DOPC  H18X22414   2.217   0.303  14.276  2.2715 -0.8457 -3.2364
  182DOPC  H18Y22415   2.226   0.452  14.173 -0.8367 -2.0735 -1.2594
  182DOPC  H18Z22416   2.368   0.391  14.275  0.3888 -0.4675 -1.2678
  183DOPC     N22417   7.137   6.683  12.211 -0.2537 -0.0988  0.3703
  183DOPC   C1222418   7.187   6.544  12.248  0.5966  0.4956  0.1391
  183DOPC  H12A22419   7.222   6.543  12.350  2.9006 -2.8345 -0.5209
  183DOPC  H12B22420   7.263   6.515  12.177 -0.2619  0.6880 -0.8649
  183DOPC   C1322421   7.039   6.736  12.308  0.3305 -0.0462 -0.6787
  183DOPC  H13A22422   6.945   6.682  12.312  0.9931 -1.3156 -1.5362
  183DOPC  H13B22423   7.082   6.738  12.407 -1.8256 -1.7289  0.4019
  183DOPC  H13C22424   7.005   6.831  12.270 -0.2265 -1.0417 -2.8294
  183DOPC   C1422425   7.073   6.670  12.087 -0.3901 -0.7076 -0.0768
  183DOPC  H14A22426   7.037   6.766  12.053 -1.8747 -0.9360  0.7698
  183DOPC  H14B22427   7.132   6.625  12.008  2.5519  1.5042  0.6967
  183DOPC  H14C22428   6.987   6.605  12.099 -0.9856 -0.1242 -1.0239
  183DOPC   C1522429   7.247   6.780  12.197  0.6464 -0.1317 -0.5774
  183DOPC  H15A22430   7.284   6.809  12.294  1.2331  2.0847 -1.3941
  183DOPC  H15B22431   7.223   6.875  12.151 -2.4219 -0.2135  0.6132
  183DOPC  H15C22432   7.331   6.735  12.146  1.9628 -0.2838  1.6198
  183DOPC   C1122433   7.083   6.432  12.237 -0.3730 -0.6982  0.0685
  183DOPC  H11A22434   7.054   6.424  12.130 -1.3755  0.5567  0.2237
  183DOPC  H11B22435   7.141   6.343  12.270 -1.1458 -1.1938  0.1245
  183DOPC     P22436   6.839   6.376  12.310 -0.0277  0.2802 -0.1686
  183DOPC   O1322437   6.874   6.233  12.311  0.3420  0.0286 -0.0860
  183DOPC   O1422438   6.757   6.428  12.195 -0.0262 -0.0172  0.1321
  183DOPC   O1222439   6.974   6.459  12.324 -0.5477 -0.0763  0.3807
  183DOPC   O1122440   6.763   6.416  12.444 -0.1213 -0.0593 -0.0398
  183DOPC    C122441   6.835   6.473  12.554  0.1878  0.0696 -0.3154
  183DOPC    HA22442   6.764   6.514  12.628 -1.6232  0.1440 -2.0164
  183DOPC    HB22443   6.909   6.551  12.528  1.9638 -1.7428 -0.9895
  183DOPC    C222444   6.918   6.372  12.638  0.8021  0.5548 -0.6475
  183DOPC    HS22445   6.976   6.314  12.563 -1.6193  0.6493 -2.7259
  183DOPC   O2122446   6.825   6.289  12.720  0.5396 -0.4121  0.6730
  183DOPC   C2122447   6.861   6.162  12.729  0.7348 -0.0767  0.4539
  183DOPC   O2222448   6.940   6.105  12.660  0.2515  0.5156  0.1171
  183DOPC   C2222449   6.797   6.108  12.856 -0.0420 -0.0559 -0.3218
  183DOPC   H2R22450   6.692   6.142  12.860 -0.5204 -1.4382 -0.6741
  183DOPC   H2S22451   6.841   6.157  12.945 -0.6144  0.9542 -0.5789
  183DOPC    C322452   7.016   6.442  12.734 -0.3161  0.6800  0.0565
  183DOPC    HX22453   6.955   6.493  12.812  1.1416 -1.1868  2.5561
  183DOPC    HY22454   7.075   6.513  12.674 -0.8985 -0.4029 -1.8945
  183DOPC   O3122455   7.098   6.350  12.811 -0.5180  0.4812  0.3674
  183DOPC   C3122456   7.190   6.284  12.742 -0.5901  0.2742  0.5421
  183DOPC   O3222457   7.206   6.298  12.620 -0.3568  0.0628 -0.1809
  183DOPC   C3222458   7.267   6.176  12.826  0.2876 -0.5021 -0.0307
  183DOPC   H2X22459   7.308   6.109  12.748 -1.7932 -0.5444 -1.1516
  183DOPC   H2Y22460   7.351   6.219  12.885  1.5607 -1.2637 -1.2160
  183DOPC   C2322461   6.798   5.952  12.864 -0.0412 -0.3927  0.3224
  183DOPC   H3R22462   6.904   5.920  12.857 -0.6198 -2.1062 -1.3370
  183DOPC   H3S22463   6.740   5.889  12.793  0.3909 -0.9190  0.4278
  183DOPC   C2422464   6.757   5.905  13.002 -0.1722 -0.5087  0.2120
  183DOPC   H4R22465   6.648   5.920  13.020 -0.2561 -0.4212 -0.3771
  183DOPC   H4S22466   6.801   5.963  13.086 -1.9164 -0.3022  1.0295
  183DOPC   C2522467   6.792   5.760  13.023  0.7173 -0.2439 -0.1940
  183DOPC   H5R22468   6.896   5.741  12.989  0.7578  1.8751 -1.3973
  183DOPC   H5S22469   6.721   5.702  12.960  0.9582 -1.7614  0.8759
  183DOPC   C2622470   6.768   5.718  13.173  0.0994  0.6286 -0.5905
  183DOPC   H6R22471   6.665   5.756  13.192 -0.7390 -1.3838 -0.8692
  183DOPC   H6S22472   6.848   5.779  13.220 -1.3342  1.3789  0.9974
  183DOPC   C2722473   6.783   5.560  13.195 -0.4104 -0.0120  0.0965
  183DOPC   H7R22474   6.875   5.540  13.136  1.1660  0.9696  2.1169
  183DOPC   H7S22475   6.705   5.496  13.148 -1.7416  0.9101  0.9800
  183DOPC   C2822476   6.808   5.524  13.344  0.1699 -0.2872 -0.2825
  183DOPC   H8R22477   6.891   5.591  13.373  1.4427 -0.9121 -2.2416
  183DOPC   H8S22478   6.861   5.426  13.345  0.2362 -0.2507 -0.1995
  183DOPC   C2922479   6.676   5.534  13.424 -0.0965 -0.0112 -0.6579
  183DOPC   H9R22480   6.654   5.637  13.456  2.0800  0.0885  0.7461
  183DOPC  C21022481   6.604   5.427  13.461  0.4386 -0.1032 -0.2878
  183DOPC  H10R22482   6.520   5.449  13.529 -1.6515 -1.1393 -2.3562
  183DOPC  C21122483   6.623   5.280  13.434  0.8088 -0.2939 -0.8446
  183DOPC  H11R22484   6.723   5.249  13.396  1.9320 -0.8254  2.2795
  183DOPC  H11S22485   6.542   5.241  13.369 -0.9432  0.5363  0.7502
  183DOPC  C21222486   6.602   5.197  13.559  0.0054  0.5631  0.6103
  183DOPC  H12R22487   6.654   5.241  13.646  0.5611 -3.1808  2.3284
  183DOPC  H12S22488   6.656   5.102  13.541  1.7056  1.2509  1.8259
  183DOPC  C21322489   6.458   5.166  13.598  0.2770  0.0305 -0.2364
  183DOPC  H13R22490   6.399   5.129  13.512  1.8405 -1.2400 -0.8240
  183DOPC  H13S22491   6.401   5.255  13.631 -0.6149 -0.9951  1.1143
  183DOPC  C21422492   6.441   5.063  13.708  0.3303 -0.5229  0.0722
  183DOPC  H14R22493   6.504   5.089  13.796 -1.4988  2.3688  0.6638
  183DOPC  H14S22494   6.469   4.960  13.676 -2.4049 -0.6358 -2.2676
  183DOPC  C21522495   6.294   5.058  13.758 -0.3665 -0.1678  0.6568
  183DOPC  H15R22496   6.231   5.059  13.666 -0.2573 -1.3734  0.5528
  183DOPC  H15S22497   6.268   5.146  13.822 -2.1693  0.1134 -0.4032
  183DOPC  C21622498   6.256   4.933  13.830 -0.0299  0.2967 -0.0509
  183DOPC  H16R22499   6.328   4.921  13.914  0.0908 -1.3840 -0.3574
  183DOPC  H16S22500   6.268   4.838  13.773  0.4485  0.0208  0.4974
  183DOPC  C21722501   6.111   4.939  13.889 -0.2348  0.4343  0.5193
  183DOPC  H17R22502   6.107   5.037  13.943  1.6590  0.8494 -0.0076
  183DOPC  H17S22503   6.112   4.862  13.969  0.3964  1.3485  1.4250
  183DOPC  C21822504   5.995   4.920  13.793 -0.0486  0.2798 -1.1242
  183DOPC  H18R22505   5.895   4.924  13.842  0.9621  0.0686  1.0445
  183DOPC  H18S22506   6.011   4.828  13.732 -3.2909 -0.4097 -1.1457
  183DOPC  H18T22507   6.004   5.006  13.723  0.0387  1.4894  0.3313
  183DOPC   C3322508   7.166   6.083  12.904 -0.3675 -0.8647  0.4658
  183DOPC   H3X22509   7.125   6.010  12.831 -0.6089 -1.5666  1.2842
  183DOPC   H3Y22510   7.079   6.140  12.944 -1.0287 -1.4127 -0.1556
  183DOPC   C3422511   7.244   6.018  13.014 -0.2498 -0.3584 -0.1922
  183DOPC   H4X22512   7.293   6.094  13.077 -1.1883 -0.8514  1.1680
  183DOPC   H4Y22513   7.319   5.946  12.974 -1.0296  0.4273 -3.4261
  183DOPC   C3522514   7.158   5.934  13.103  0.2473 -0.0243 -0.5214
  183DOPC   H5X22515   7.117   5.852  13.039 -0.5372 -0.1359  0.1084
  183DOPC   H5Y22516   7.071   5.992  13.140  1.4099  1.5875 -0.2425
  183DOPC   C3622517   7.233   5.874  13.223 -0.2856  0.0266  0.1769
  183DOPC   H6X22518   7.320   5.829  13.172 -1.0183 -0.8249 -0.3593
  183DOPC   H6Y22519   7.257   5.961  13.288  0.2166  0.5018 -0.6212
  183DOPC   C3722520   7.155   5.768  13.303 -0.2330 -1.0337  0.2315
  183DOPC   H7X22521   7.085   5.819  13.372  0.3767  0.7717 -0.4120
  183DOPC   H7Y22522   7.108   5.698  13.231  2.3890 -2.8407  0.1254
  183DOPC   C3822523   7.261   5.685  13.380 -0.0443 -0.5640 -0.2522
  183DOPC   H8X22524   7.331   5.654  13.300  0.5869  2.0343 -0.8206
  183DOPC   H8Y22525   7.207   5.596  13.418 -0.8105  0.9319  2.5090
  183DOPC   C3922526   7.342   5.757  13.486 -0.0833  0.0744  0.0148
  183DOPC   H9X22527   7.370   5.861  13.466  2.1470 -0.8908 -2.6123
  183DOPC  C31022528   7.381   5.706  13.605 -0.5387 -0.4287  0.3725
  183DOPC  H10X22529   7.448   5.769  13.666  0.8063 -2.4316  1.0813
  183DOPC  C31122530   7.358   5.568  13.653 -0.0501 -0.5117  0.3067
  183DOPC  H11X22531   7.434   5.499  13.610 -0.4843 -2.3430  2.2728
  183DOPC  H11Y22532   7.261   5.528  13.617 -0.9362  2.8341 -1.3829
  183DOPC  C31222533   7.360   5.568  13.804 -0.0579 -0.0641  0.1174
  183DOPC  H12X22534   7.449   5.623  13.842 -0.4944  1.5967 -1.1501
  183DOPC  H12Y22535   7.357   5.459  13.826  0.2177 -0.6829 -2.5665
  183DOPC  C31322536   7.232   5.616  13.873 -0.4814  0.1364 -0.2972
  183DOPC  H13X22537   7.229   5.726  13.857 -1.9429  0.2278  0.3905
  183DOPC  H13Y22538   7.136   5.581  13.828 -0.2390 -1.9568  0.6886
  183DOPC  C31422539   7.230   5.575  14.021 -0.3811 -0.4972 -0.7376
  183DOPC  H14X22540   7.135   5.616  14.061 -1.4085 -3.0731 -0.3780
  183DOPC  H14Y22541   7.233   5.466  14.039  0.3256 -0.2597  0.7259
  183DOPC  C31522542   7.354   5.636  14.090 -0.0074 -0.8910  0.3280
  183DOPC  H15X22543   7.363   5.741  14.053  0.4520 -0.2641  2.0988
  183DOPC  H15Y22544   7.453   5.592  14.067  1.6175  0.9911  3.0785
  183DOPC  C31622545   7.343   5.660  14.242  0.4653 -0.5359 -0.5801
  183DOPC  H16X22546   7.252   5.721  14.264  1.5839  0.5965  1.1658
  183DOPC  H16Y22547   7.343   5.558  14.285 -0.2275 -1.6305 -3.0138
  183DOPC  C31722548   7.466   5.746  14.284  0.0452 -1.0948  0.0329
  183DOPC  H17X22549   7.558   5.683  14.282  0.6345 -0.2323 -0.8582
  183DOPC  H17Y22550   7.479   5.832  14.215 -2.9245  0.0142  0.7156
  183DOPC  C31822551   7.458   5.818  14.421 -0.0492  0.5194  0.6156
  183DOPC  H18X22552   7.362   5.873  14.426  0.1941  1.1717 -1.2279
  183DOPC  H18Y22553   7.482   5.751  14.507  0.2872  0.3824  0.4210
  183DOPC  H18Z22554   7.526   5.905  14.435 -3.8156  3.2515  4.7436
  184DOPC     N22555   4.968   1.191  11.809 -0.1581  0.4489  0.3580
  184DOPC   C1222556   4.996   1.090  11.916 -0.6231  0.0574 -0.5760
  184DOPC  H12A22557   5.097   1.096  11.954  0.1695  0.0603 -2.5736
  184DOPC  H12B22558   4.989   0.991  11.875 -0.8862  0.4844 -1.6059
  184DOPC   C1322559   4.970   1.335  11.858 -0.2869  0.0395 -0.5697
  184DOPC  H13A22560   5.066   1.353  11.903 -0.1176  0.5341 -1.1151
  184DOPC  H13B22561   4.960   1.405  11.776  0.3617  0.8227  0.0149
  184DOPC  H13C22562   4.890   1.334  11.930 -0.2306  1.6734 -0.4440
  184DOPC   C1422563   4.840   1.159  11.745  0.4028 -0.2842 -0.4714
  184DOPC  H14A22564   4.839   1.083  11.668 -0.0687  0.3943 -1.1526
  184DOPC  H14B22565   4.764   1.136  11.818 -0.9712  2.0339 -1.0437
  184DOPC  H14C22566   4.812   1.249  11.692  1.7283  0.9558  0.8547
  184DOPC   C1522567   5.085   1.182  11.705 -0.5638  0.1400  0.1126
  184DOPC  H15A22568   5.063   1.235  11.613 -1.3599 -0.8995 -0.3137
  184DOPC  H15B22569   5.100   1.078  11.679 -0.9286  0.5904 -2.0846
  184DOPC  H15C22570   5.178   1.213  11.751 -0.7559 -2.2908  2.3872
  184DOPC   C1122571   4.905   1.085  12.040  0.3510 -0.0434  0.6993
  184DOPC  H11A22572   4.954   1.054  12.136 -2.0676  1.4872  2.5508
  184DOPC  H11B22573   4.875   1.190  12.054 -0.3585  0.2898 -2.5711
  184DOPC     P22574   4.790   0.850  12.044  0.1729  0.1653 -0.0774
  184DOPC   O1322575   4.905   0.779  11.976  0.2174 -0.0382  0.0266
  184DOPC   O1422576   4.654   0.796  12.027  0.0215 -0.5735  0.1758
  184DOPC   O1222577   4.786   1.004  12.006 -0.0795  0.0194  0.4885
  184DOPC   O1122578   4.817   0.861  12.204  0.3092 -0.2918 -0.0223
  184DOPC    C122579   4.727   0.937  12.287  0.0253  0.5829 -1.0490
  184DOPC    HA22580   4.623   0.899  12.286 -0.2273  1.1796  0.4671
  184DOPC    HB22581   4.719   1.044  12.259 -1.7003  0.5074 -0.9415
  184DOPC    C222582   4.772   0.917  12.440 -0.1548 -0.7120 -0.1907
  184DOPC    HS22583   4.686   0.950  12.502  1.3379  0.7587  1.1792
  184DOPC   O2122584   4.892   0.993  12.466  0.0345  0.0543 -0.2232
  184DOPC   C2122585   4.874   1.124  12.468  0.4924  0.1715  0.4637
  184DOPC   O2222586   4.764   1.181  12.464 -0.3192 -1.2110 -0.1189
  184DOPC   C2222587   5.007   1.194  12.488 -0.1343  0.0436  1.0277
  184DOPC   H2R22588   5.042   1.231  12.389 -0.1080  2.4676  1.8832
  184DOPC   H2S22589   5.086   1.133  12.537  0.9152 -0.2859 -0.9722
  184DOPC    C322590   4.796   0.762  12.462  0.0070 -0.2951 -0.1602
  184DOPC    HX22591   4.867   0.723  12.387 -1.6890 -3.3708 -0.3335
  184DOPC    HY22592   4.703   0.703  12.447  1.1374 -2.0123 -0.7643
  184DOPC   O3122593   4.848   0.731  12.594  0.0625 -0.2612  0.3202
  184DOPC   C3122594   4.949   0.642  12.605  0.6064  0.3694  0.7727
  184DOPC   O3222595   5.001   0.576  12.517  0.5065 -0.6816  0.3481
  184DOPC   C3222596   4.995   0.649  12.747 -0.2154  0.4157 -1.0132
  184DOPC   H2X22597   5.033   0.752  12.757 -1.9243  1.1129 -1.3915
  184DOPC   H2Y22598   4.905   0.632  12.810  0.8508 -0.3390  0.3587
  184DOPC   C2322599   4.995   1.317  12.580  0.5363  0.1801 -0.2406
  184DOPC   H3R22600   4.919   1.294  12.657  0.6654 -2.2165 -0.7425
  184DOPC   H3S22601   4.957   1.401  12.519  0.6669 -0.8452 -1.7954
  184DOPC   C2422602   5.134   1.344  12.640 -0.1689  0.1271  0.8070
  184DOPC   H4R22603   5.209   1.349  12.558 -0.3216 -2.7960  0.3996
  184DOPC   H4S22604   5.164   1.261  12.707 -1.9404 -1.0184  0.2679
  184DOPC   C2522605   5.137   1.478  12.721 -0.5042  0.6947 -0.3908
  184DOPC   H5R22606   5.078   1.551  12.662 -1.5050 -0.0522 -0.3183
  184DOPC   H5S22607   5.242   1.508  12.745 -0.2074 -1.2137  0.8812
  184DOPC   C2622608   5.067   1.470  12.855  0.1012  0.3102  0.2696
  184DOPC   H6R22609   4.963   1.434  12.839  1.3290 -4.3900  1.3988
  184DOPC   H6S22610   5.060   1.570  12.903 -0.3232 -0.5218  2.0549
  184DOPC   C2722611   5.116   1.365  12.954  1.4718  0.2024  0.2764
  184DOPC   H7R22612   5.225   1.376  12.975  1.4530  0.4447  0.2582
  184DOPC   H7S22613   5.115   1.260  12.918  0.2574 -0.7338  2.8043
  184DOPC   C2822614   5.032   1.374  13.085  0.6210 -0.1780 -0.1326
  184DOPC   H8R22615   4.977   1.278  13.090  0.2477  0.0351 -0.1005
  184DOPC   H8S22616   4.941   1.435  13.068 -0.8112 -1.9087  0.9768
  184DOPC   C2922617   5.101   1.413  13.217 -0.4516  0.4189 -0.9313
  184DOPC   H9R22618   5.133   1.518  13.222 -2.0253  0.8642  0.6635
  184DOPC  C21022619   5.136   1.337  13.324  0.6841 -0.4929  0.2638
  184DOPC  H10R22620   5.197   1.386  13.401  0.4478  0.4134 -0.1147
  184DOPC  C21122621   5.105   1.191  13.347  0.4143  0.4087 -0.2197
  184DOPC  H11R22622   5.005   1.172  13.391  0.5629 -2.4813 -0.9051
  184DOPC  H11S22623   5.166   1.142  13.426 -2.9145 -2.0773  1.0872
  184DOPC  C21222624   5.146   1.101  13.230 -0.0388  0.8761  0.2700
  184DOPC  H12R22625   5.083   1.110  13.140 -0.2520  1.4905  0.4793
  184DOPC  H12S22626   5.127   0.996  13.262 -1.9545  0.7640 -1.0997
  184DOPC  C21322627   5.284   1.125  13.169  0.2626  0.5124  0.9097
  184DOPC  H13R22628   5.355   1.118  13.254 -0.7609 -1.0624  1.6801
  184DOPC  H13S22629   5.296   1.226  13.126 -1.5999  1.8260  3.2824
  184DOPC  C21422630   5.321   1.013  13.066 -0.0583  0.1940 -0.5213
  184DOPC  H14R22631   5.303   0.912  13.108 -2.7001  0.5881 -0.4972
  184DOPC  H14S22632   5.431   1.004  13.058 -0.1223 -1.1873 -0.0344
  184DOPC  C21522633   5.263   1.030  12.926  0.8311  0.5383 -0.4886
  184DOPC  H15R22634   5.280   1.134  12.891  0.8356  1.1562  1.2351
  184DOPC  H15S22635   5.154   1.022  12.946  1.1290 -1.6044  0.5284
  184DOPC  C21622636   5.316   0.924  12.831  0.4561 -0.8978 -0.1163
  184DOPC  H16R22637   5.283   0.830  12.879  2.1976 -1.1395  0.6554
  184DOPC  H16S22638   5.426   0.934  12.832  0.5019 -1.0981  1.9801
  184DOPC  C21722639   5.262   0.947  12.689  0.3491  0.2627  0.6626
  184DOPC  H17R22640   5.259   1.053  12.656  0.5842 -0.1609 -0.7983
  184DOPC  H17S22641   5.167   0.891  12.681  0.7613 -1.5096  5.1604
  184DOPC  C21822642   5.359   0.883  12.583 -0.7223  0.0675 -0.3566
  184DOPC  H18R22643   5.456   0.937  12.583 -0.8918  0.3843 -1.1529
  184DOPC  H18S22644   5.313   0.880  12.482 -0.9881  2.6622 -0.3733
  184DOPC  H18T22645   5.378   0.778  12.617  1.6142  1.2441  2.4142
  184DOPC   C3322646   5.102   0.543  12.788  0.1748  0.0764  0.8483
  184DOPC   H3X22647   5.202   0.585  12.762 -0.9971  0.5332 -3.6235
  184DOPC   H3Y22648   5.087   0.446  12.736 -0.1959  0.8431 -0.5162
  184DOPC   C3422649   5.096   0.503  12.930  0.5572 -1.1776  0.4923
  184DOPC   H4X22650   5.177   0.430  12.952  1.5090  0.1935  1.8363
  184DOPC   H4Y22651   5.000   0.451  12.947  0.7214 -2.1216 -1.2649
  184DOPC   C3522652   5.108   0.628  13.021 -0.3045 -0.0525 -0.2497
  184DOPC   H5X22653   5.038   0.712  13.000  0.6423  0.6400 -0.7586
  184DOPC   H5Y22654   5.208   0.673  13.000 -0.1273 -0.4748 -0.3153
  184DOPC   C3622655   5.094   0.591  13.167  0.1822 -0.1943  0.6901
  184DOPC   H6X22656   4.983   0.584  13.177 -0.2872  1.3499 -2.2912
  184DOPC   H6Y22657   5.144   0.496  13.196 -0.1139 -0.2384  1.0644
  184DOPC   C3722658   5.134   0.707  13.263  0.2091 -0.3938 -0.6630
  184DOPC   H7X22659   5.245   0.706  13.255  0.2930 -2.1974  0.1118
  184DOPC   H7Y22660   5.114   0.808  13.220 -1.7477 -0.6037 -0.3504
  184DOPC   C3822661   5.095   0.696  13.410  0.1236 -0.6025  0.0207
  184DOPC   H8X22662   5.129   0.597  13.447 -0.2453 -0.0265  1.9835
  184DOPC   H8Y22663   4.986   0.700  13.426  0.4132 -0.0898  2.1489
  184DOPC   C3922664   5.162   0.799  13.495  0.2826  0.4609 -0.1757
  184DOPC   H9X22665   5.123   0.901  13.486 -2.0610 -0.3895 -0.3431
  184DOPC  C31022666   5.266   0.774  13.576  0.0012  0.1787 -0.1260
  184DOPC  H10X22667   5.306   0.855  13.638 -0.5196  0.1540  0.2504
  184DOPC  C31122668   5.345   0.643  13.591 -0.0278 -0.5949 -0.0898
  184DOPC  H11X22669   5.446   0.665  13.630  0.4395  0.7156 -1.9072
  184DOPC  H11Y22670   5.367   0.593  13.494  0.6969  1.3013 -0.9435
  184DOPC  C31222671   5.283   0.533  13.684  0.0625  0.2505  0.1797
  184DOPC  H12X22672   5.356   0.451  13.700 -1.3310 -0.9441  0.6016
  184DOPC  H12Y22673   5.189   0.504  13.634 -0.2594 -0.7394  1.3121
  184DOPC  C31322674   5.269   0.578  13.829  1.1231  0.6396 -0.6769
  184DOPC  H13X22675   5.181   0.646  13.833 -0.4533 -1.3513  2.0062
  184DOPC  H13Y22676   5.245   0.494  13.898  0.5992 -0.0347 -1.6471
  184DOPC  C31422677   5.390   0.640  13.888  0.0201 -0.1831  0.3909
  184DOPC  H14X22678   5.476   0.571  13.874 -1.7523 -2.6665  1.0129
  184DOPC  H14Y22679   5.397   0.740  13.839 -2.4240  0.1769  0.6810
  184DOPC  C31522680   5.387   0.674  14.040 -0.2705 -0.5699 -0.6696
  184DOPC  H15X22681   5.300   0.738  14.064 -0.7738 -0.4582 -2.5842
  184DOPC  H15Y22682   5.485   0.722  14.062 -0.3025 -1.7331  2.5770
  184DOPC  C31622683   5.399   0.552  14.133  0.0919  0.0511  0.3448
  184DOPC  H16X22684   5.301   0.499  14.128  0.2340 -0.2619  0.8016
  184DOPC  H16Y22685   5.474   0.486  14.085 -0.5980  0.4993 -1.4182
  184DOPC  C31722686   5.433   0.573  14.281  0.4162  0.6046 -0.0716
  184DOPC  H17X22687   5.455   0.476  14.331 -1.6272  1.1926  2.1963
  184DOPC  H17Y22688   5.528   0.628  14.296  1.8248 -1.6331 -0.2844
  184DOPC  C31822689   5.328   0.644  14.368 -0.2436 -0.0045 -0.2511
  184DOPC  H18X22690   5.340   0.631  14.478  1.2741  0.7367 -0.2954
  184DOPC  H18Y22691   5.341   0.753  14.352  3.0318  0.0238  1.5218
  184DOPC  H18Z22692   5.224   0.617  14.340  0.5710 -1.4475 -2.0615
  185DOPC     N22693   5.925   6.481  12.134  0.5997 -0.4307  0.0291
  185DOPC   C1222694   5.877   6.570  12.252  0.4698 -0.8957 -0.4471
  185DOPC  H12A22695   5.774   6.540  12.265  0.2684  0.7043  2.5451
  185DOPC  H12B22696   5.878   6.677  12.233  1.0908 -0.4779  1.6495
  185DOPC   C1322697   6.073   6.476  12.124 -0.4574 -0.4564  0.4861
  185DOPC  H13A22698   6.116   6.574  12.115  0.1544 -0.6099  1.5661
  185DOPC  H13B22699   6.116   6.431  12.213  0.7189 -0.2568  0.0454
  185DOPC  H13C22700   6.107   6.412  12.044 -0.0791 -1.7364  1.6209
  185DOPC   C1422701   5.863   6.529  12.016 -0.1910  0.1816  0.2969
  185DOPC  H14A22702   5.892   6.630  11.994  1.2965 -0.9365 -3.8518
  185DOPC  H14B22703   5.892   6.473  11.928 -1.1923 -1.7748  1.1477
  185DOPC  H14C22704   5.756   6.521  12.027 -0.1856  1.5854  1.5589
  185DOPC   C1522705   5.883   6.341  12.165  0.2382 -0.2468  0.7669
  185DOPC  H15A22706   5.776   6.331  12.168  0.2014 -1.5908 -1.9480
  185DOPC  H15B22707   5.922   6.315  12.263  1.9853  1.0793  0.4708
  185DOPC  H15C22708   5.928   6.266  12.101  0.7420  2.0038 -1.6749
  185DOPC   C1122709   5.957   6.553  12.383  0.8477 -0.2296  0.9617
  185DOPC  H11A22710   6.055   6.602  12.366 -0.5768  2.6221  0.4401
  185DOPC  H11B22711   5.896   6.614  12.453 -1.2423 -0.7225 -0.3746
  185DOPC     P22712   6.108   6.373  12.501  0.5188 -0.2060 -0.0135
  185DOPC   O1322713   6.213   6.387  12.398 -0.2602 -0.5858  0.4186
  185DOPC   O1422714   6.090   6.238  12.562 -0.0679 -0.3430 -0.3105
  185DOPC   O1222715   5.973   6.417  12.434  0.2843 -0.2884 -0.5041
  185DOPC   O1122716   6.118   6.486  12.608 -0.2248 -0.3421 -0.2772
  185DOPC    C122717   6.029   6.506  12.716 -0.2764 -0.3073 -0.0376
  185DOPC    HA22718   5.971   6.415  12.744 -0.1569 -0.6514 -0.8823
  185DOPC    HB22719   5.954   6.585  12.699  0.9291  0.9289  0.2196
  185DOPC    C222720   6.114   6.550  12.847 -0.0314  0.1490  0.2589
  185DOPC    HS22721   6.182   6.632  12.813 -1.0599  1.2095  0.6968
  185DOPC   O2122722   6.177   6.433  12.906  0.4755 -0.0701 -0.0056
  185DOPC   C2122723   6.277   6.457  12.983  0.2310  0.0291  0.1102
  185DOPC   O2222724   6.338   6.558  12.998 -0.2839 -0.0540  0.1910
  185DOPC   C2222725   6.305   6.322  13.057 -0.5399  0.1248  0.4500
  185DOPC   H2R22726   6.324   6.249  12.975 -0.0733  1.7168 -0.9047
  185DOPC   H2S22727   6.209   6.308  13.109  0.9716 -0.2200  3.3408
  185DOPC    C322728   6.017   6.612  12.951  0.1240 -0.0936  0.3404
  185DOPC    HX22729   5.944   6.530  12.970  2.0782 -1.9621  0.1664
  185DOPC    HY22730   5.958   6.696  12.909  1.5307  1.3413  1.1406
  185DOPC   O3122731   6.082   6.646  13.074 -0.4361  0.2335  0.2244
  185DOPC   C3122732   6.111   6.775  13.110  0.2254  0.2010 -0.0400
  185DOPC   O3222733   6.101   6.868  13.035  0.0568 -0.1234  0.0541
  185DOPC   C3222734   6.148   6.774  13.256 -0.1269 -0.3399  0.3288
  185DOPC   H2X22735   6.063   6.822  13.309 -0.6686  1.7129 -2.2158
  185DOPC   H2Y22736   6.156   6.670  13.294 -1.3127 -0.4774  0.2291
  185DOPC   C2322737   6.422   6.329  13.161  0.3067  0.5022  0.3932
  185DOPC   H3R22738   6.418   6.245  13.234 -0.4622  0.0108 -0.1992
  185DOPC   H3S22739   6.425   6.427  13.213 -0.7408  0.2492  0.9617
  185DOPC   C2422740   6.555   6.315  13.090  0.6289  0.0963 -0.2347
  185DOPC   H4R22741   6.564   6.403  13.024  1.6666  0.6428  0.6071
  185DOPC   H4S22742   6.560   6.216  13.040 -0.9176 -1.9412  3.2344
  185DOPC   C2522743   6.684   6.319  13.178  0.1005 -0.3514 -0.8533
  185DOPC   H5R22744   6.677   6.405  13.247 -0.6143  0.1627 -1.5467
  185DOPC   H5S22745   6.780   6.319  13.121  1.3794 -1.9163  1.1442
  185DOPC   C2622746   6.705   6.196  13.266  0.0620  0.8537 -0.0799
  185DOPC   H6R22747   6.702   6.103  13.205  1.2206  0.5142  0.3547
  185DOPC   H6S22748   6.619   6.189  13.337  1.4401 -0.3325  1.5332
  185DOPC   C2722749   6.835   6.202  13.349 -0.3135 -0.3186 -0.1661
  185DOPC   H7R22750   6.817   6.294  13.409  0.9124  0.0809 -0.3824
  185DOPC   H7S22751   6.925   6.228  13.290  0.0473 -0.1991  0.4351
  185DOPC   C2822752   6.847   6.085  13.442 -0.7582  0.5454 -0.1678
  185DOPC   H8R22753   6.865   5.993  13.381  0.2744  1.0544 -0.6457
  185DOPC   H8S22754   6.753   6.077  13.500 -0.7058 -1.6919 -0.2783
  185DOPC   C2922755   6.972   6.096  13.531 -0.1844  0.0386  0.5025
  185DOPC   H9R22756   7.022   6.193  13.517 -1.1317  0.2873 -1.5307
  185DOPC  C21022757   7.032   6.001  13.605  0.5522  0.5196  0.2120
  185DOPC  H10R22758   7.128   6.032  13.649  0.5954  2.1389 -0.9147
  185DOPC  C21122759   6.984   5.856  13.616 -0.1311 -0.1460  0.8166
  185DOPC  H11R22760   7.071   5.787  13.611 -0.3652 -0.5073  1.5523
  185DOPC  H11S22761   6.919   5.844  13.527  0.9083  0.7545 -0.0845
  185DOPC  C21222762   6.909   5.817  13.745 -0.6404 -0.1737 -0.0027
  185DOPC  H12R22763   6.828   5.888  13.770  0.2916  0.1583  2.3838
  185DOPC  H12S22764   6.980   5.826  13.830  0.3078 -1.8810 -0.5612
  185DOPC  C21322765   6.852   5.671  13.745  0.0327 -0.3748 -0.4586
  185DOPC  H13R22766   6.919   5.604  13.687  1.3830  0.9870 -0.5287
  185DOPC  H13S22767   6.752   5.668  13.697  0.1399  0.8085 -0.7905
  185DOPC  C21422768   6.827   5.609  13.887 -0.0541  0.1516  0.1872
  185DOPC  H14R22769   6.927   5.583  13.928 -0.2336  0.0701  0.5785
  185DOPC  H14S22770   6.763   5.519  13.875  0.6616 -0.2087 -1.1344
  185DOPC  C21522771   6.750   5.700  13.992 -0.1553  0.4955  0.4026
  185DOPC  H15R22772   6.644   5.702  13.958  0.4201  0.0236 -1.5821
  185DOPC  H15S22773   6.801   5.798  14.003  1.1010 -0.0998  0.1096
  185DOPC  C21622774   6.747   5.633  14.126  0.1704 -0.1329 -0.2562
  185DOPC  H16R22775   6.851   5.625  14.166 -0.2256 -0.2461  0.8015
  185DOPC  H16S22776   6.703   5.532  14.114 -1.6442  0.2021  2.6795
  185DOPC  C21722777   6.656   5.706  14.229 -0.3709  0.4236 -0.1613
  185DOPC  H17R22778   6.552   5.691  14.192 -0.5532 -0.9117  0.7933
  185DOPC  H17S22779   6.685   5.813  14.230  0.9875  0.0776  0.6321
  185DOPC  C21822780   6.676   5.650  14.373  0.4946 -0.2679 -0.5363
  185DOPC  H18R22781   6.669   5.540  14.376 -2.1419 -0.1558  2.5187
  185DOPC  H18S22782   6.598   5.687  14.442  1.9558  2.1940 -0.0768
  185DOPC  H18T22783   6.770   5.686  14.419 -0.7147  1.0796  0.9924
  185DOPC   C3322784   6.282   6.847  13.278 -0.0748  0.0170  0.1100
  185DOPC   H3X22785   6.311   6.815  13.381 -0.1102 -0.1852  0.0581
  185DOPC   H3Y22786   6.280   6.957  13.294  0.9215 -0.0724  1.0054
  185DOPC   C3422787   6.394   6.807  13.184 -0.7309 -0.0292  0.2193
  185DOPC   H4X22788   6.363   6.835  13.081 -2.2764 -0.1484  0.6160
  185DOPC   H4Y22789   6.418   6.700  13.196 -0.9483  0.0025  1.0480
  185DOPC   C3522790   6.529   6.877  13.212  0.0381 -0.0065 -0.4779
  185DOPC   H5X22791   6.562   6.835  13.310  3.0950  2.7449 -0.1624
  185DOPC   H5Y22792   6.515   6.986  13.221  0.1936 -0.0976  1.2282
  185DOPC   C3622793   6.636   6.846  13.101 -0.0370 -0.0429  0.5664
  185DOPC   H6X22794   6.589   6.871  13.004 -0.0771  1.3339  0.9262
  185DOPC   H6Y22795   6.725   6.912  13.106  1.4486 -1.5302 -3.1864
  185DOPC   C3722796   6.676   6.690  13.109 -0.5741 -0.9010  0.1992
  185DOPC   H7X22797   6.708   6.669  13.213  1.3370 -1.1499 -0.3882
  185DOPC   H7Y22798   6.594   6.621  13.080 -2.4648  0.7853  1.2624
  185DOPC   C3822799   6.795   6.660  13.008  0.4175  0.5378  0.5636
  185DOPC   H8X22800   6.746   6.654  12.909 -1.8569 -0.9656  1.6946
  185DOPC   H8Y22801   6.823   6.553  13.020 -1.0949  0.0391 -0.0444
  185DOPC   C3922802   6.920   6.746  13.013  0.2428  0.0392  0.4808
  185DOPC   H9X22803   6.911   6.841  12.958  0.6298  0.7476  1.6043
  185DOPC  C31022804   7.030   6.715  13.081  0.0204  0.6169  0.2307
  185DOPC  H10X22805   7.116   6.782  13.064  0.4147 -0.4542 -2.6265
  185DOPC  C31122806   7.055   6.594  13.167  0.6484  0.0170  0.0996
  185DOPC  H11X22807   6.962   6.535  13.183 -0.6111  1.9796  0.3279
  185DOPC  H11Y22808   7.085   6.621  13.270  0.1452  0.2968  0.1802
  185DOPC  C31222809   7.162   6.508  13.108 -0.8047 -0.2563 -0.2006
  185DOPC  H12X22810   7.262   6.556  13.097  0.3534 -2.3727  0.5126
  185DOPC  H12Y22811   7.128   6.490  13.004  0.8420  1.2140 -1.0304
  185DOPC  C31322812   7.189   6.370  13.179 -0.0074 -0.1935 -0.1061
  185DOPC  H13X22813   7.098   6.307  13.187  0.8599 -1.3974  0.6880
  185DOPC  H13Y22814   7.256   6.304  13.121  1.1087 -0.2993  1.2413
  185DOPC  C31422815   7.247   6.390  13.321 -0.4444  0.2516 -0.4372
  185DOPC  H14X22816   7.328   6.466  13.311  0.4826 -0.8791 -1.8747
  185DOPC  H14Y22817   7.168   6.430  13.388 -0.0672 -1.1119  0.8852
  185DOPC  C31522818   7.297   6.253  13.377  0.4931  0.4429  0.3832
  185DOPC  H15X22819   7.336   6.187  13.297  0.8542 -0.7603  1.5097
  185DOPC  H15Y22820   7.209   6.195  13.412  2.4658 -3.5625 -0.6748
  185DOPC  C31622821   7.388   6.270  13.495  0.5161  0.3082  0.3168
  185DOPC  H16X22822   7.472   6.335  13.465  1.0446 -0.0698  0.9638
  185DOPC  H16Y22823   7.333   6.324  13.575  0.0625 -1.5549  1.3239
  185DOPC  C31722824   7.443   6.148  13.559  0.3100  0.6216  0.3258
  185DOPC  H17X22825   7.474   6.162  13.665  0.7562 -3.0799  0.8229
  185DOPC  H17Y22826   7.361   6.074  13.566 -1.0864  1.8343 -2.0858
  185DOPC  C31822827   7.563   6.091  13.488 -0.0142 -0.2058 -0.6015
  185DOPC  H18X22828   7.624   6.017  13.546 -2.2658 -1.4927  0.2620
  185DOPC  H18Y22829   7.535   6.022  13.405 -1.4777 -2.1835  1.4007
  185DOPC  H18Z22830   7.631   6.167  13.445 -0.3703 -0.5449 -1.7919
  186DOPC     N22831   6.893   2.866  11.926 -0.0745  0.1123 -0.1567
  186DOPC   C1222832   7.036   2.883  11.947 -0.5791 -0.0291 -0.1994
  186DOPC  H12A22833   7.081   2.907  11.853 -0.9124 -0.9038 -0.5919
  186DOPC  H12B22834   7.088   2.792  11.974  1.1148  1.2720  1.1049
  186DOPC   C1322835   6.843   2.976  11.837  0.4927  0.4473  0.1334
  186DOPC  H13A22836   6.879   2.973  11.736  1.6785 -0.9396  0.5727
  186DOPC  H13B22837   6.735   2.968  11.831  0.5267 -0.0636  0.1953
  186DOPC  H13C22838   6.861   3.071  11.885 -2.7802  0.6254  1.2858
  186DOPC   C1422839   6.815   2.850  12.055 -0.1999 -0.3287  0.6070
  186DOPC  H14A22840   6.714   2.814  12.039  0.2526 -1.7036  0.6515
  186DOPC  H14B22841   6.856   2.767  12.112 -0.7029 -1.3681 -0.4918
  186DOPC  H14C22842   6.820   2.933  12.123  0.1199 -2.6618  3.6701
  186DOPC   C1522843   6.870   2.745  11.839  0.2415  0.7452 -0.1835
  186DOPC  H15A22844   6.894   2.656  11.897  1.1452  0.5103 -0.8934
  186DOPC  H15B22845   6.928   2.739  11.748 -0.0184  0.2819 -0.3258
  186DOPC  H15C22846   6.768   2.756  11.806  0.2203  5.1652  0.7753
  186DOPC   C1122847   7.074   3.002  12.042  0.7590 -0.5206 -0.3456
  186DOPC  H11A22848   7.068   3.098  11.987 -1.0660 -1.0412 -1.1397
  186DOPC  H11B22849   7.004   3.012  12.128  1.0729 -1.6599  0.0593
  186DOPC     P22850   7.222   2.935  12.242  0.4305  0.4074 -0.3397
  186DOPC   O1322851   7.360   2.900  12.267  0.3083 -0.3514 -0.4217
  186DOPC   O1422852   7.128   2.829  12.275  0.5498 -0.1430 -0.4173
  186DOPC   O1222853   7.209   2.993  12.096 -0.4975  0.5608 -0.3373
  186DOPC   O1122854   7.182   3.062  12.326  0.4558 -0.2205  0.0815
  186DOPC    C122855   7.053   3.075  12.396 -0.0185 -0.3216  0.3056
  186DOPC    HA22856   7.015   2.979  12.436 -1.5135  0.0233 -0.1902
  186DOPC    HB22857   6.976   3.110  12.324 -0.2260 -2.2734 -0.4786
  186DOPC    C222858   7.062   3.175  12.512 -0.3930 -0.4518  0.2716
  186DOPC    HS22859   6.966   3.183  12.568 -0.4886 -2.0401  0.3882
  186DOPC   O2122860   7.102   3.302  12.463  0.4895 -0.4132  0.0423
  186DOPC   C2122861   7.003   3.367  12.402  0.0195  0.0942  0.0118
  186DOPC   O2222862   6.901   3.324  12.358  0.2790  0.0691 -0.6783
  186DOPC   C2222863   7.052   3.513  12.381  0.0729 -0.7721 -0.5296
  186DOPC   H2R22864   7.155   3.519  12.340 -0.2751  2.7730 -1.2083
  186DOPC   H2S22865   7.055   3.549  12.486  2.0790 -1.2682 -0.3739
  186DOPC    C322866   7.166   3.125  12.611  0.5016 -0.2877  0.1498
  186DOPC    HX22867   7.185   3.202  12.689  0.3677 -2.1576  2.1014
  186DOPC    HY22868   7.264   3.113  12.560  0.6319  0.0448  0.3131
  186DOPC   O3122869   7.114   3.011  12.679  0.2171 -0.0778  0.8961
  186DOPC   C3122870   7.200   2.955  12.765 -0.1318 -0.2651 -0.0813
  186DOPC   O3222871   7.310   2.998  12.798 -0.1726  0.0148 -0.0211
  186DOPC   C3222872   7.148   2.816  12.808 -0.1741  0.7848  0.0577
  186DOPC   H2X22873   7.051   2.792  12.758  0.9259  0.3270 -1.9425
  186DOPC   H2Y22874   7.227   2.744  12.777 -0.2260  0.1546  1.3117
  186DOPC   C2322875   6.960   3.598  12.282  1.0899  0.2412 -0.4356
  186DOPC   H3R22876   6.949   3.542  12.187 -0.6435 -0.5465  0.1946
  186DOPC   H3S22877   7.023   3.688  12.268  1.0673  0.3828  0.3590
  186DOPC   C2422878   6.820   3.633  12.339  0.5428 -0.5032  0.3842
  186DOPC   H4R22879   6.773   3.535  12.364 -0.9783  0.1658  0.2736
  186DOPC   H4S22880   6.756   3.684  12.263 -2.0634 -1.7188  1.6161
  186DOPC   C2522881   6.826   3.712  12.470  0.1969  0.4559  0.0230
  186DOPC   H5R22882   6.872   3.812  12.453  0.7758  0.3265  0.8017
  186DOPC   H5S22883   6.900   3.674  12.543 -0.0225 -1.3731 -0.6516
  186DOPC   C2622884   6.695   3.718  12.548 -0.0042 -0.0122  0.3322
  186DOPC   H6R22885   6.622   3.670  12.480 -0.8085 -4.0362  3.6123
  186DOPC   H6S22886   6.667   3.824  12.564 -0.3724  0.0549 -0.6834
  186DOPC   C2722887   6.676   3.636  12.677  0.0347 -0.0069  0.0409
  186DOPC   H7R22888   6.737   3.544  12.661  1.8358  1.3903 -1.6611
  186DOPC   H7S22889   6.568   3.610  12.679 -0.2903  0.9580 -2.0547
  186DOPC   C2822890   6.728   3.702  12.803 -0.7052  0.4856  0.0854
  186DOPC   H8R22891   6.695   3.636  12.887 -0.2720  1.3554  0.9496
  186DOPC   H8S22892   6.684   3.804  12.808  0.2719  0.8661  1.3348
  186DOPC   C2922893   6.875   3.697  12.808 -0.0131  0.5241  0.2020
  186DOPC   H9R22894   6.919   3.612  12.754 -1.9840 -0.5887  0.2569
  186DOPC  C21022895   6.958   3.789  12.857 -0.1490  0.5183  1.0800
  186DOPC  H10R22896   7.066   3.773  12.866 -0.0022  2.0835  2.5895
  186DOPC  C21122897   6.911   3.916  12.915  0.3316  0.1903 -0.7353
  186DOPC  H11R22898   6.819   3.964  12.875  1.2114  2.6710  0.0418
  186DOPC  H11S22899   6.997   3.982  12.891  1.3680 -1.9195 -3.2268
  186DOPC  C21222900   6.910   3.919  13.066 -0.2002  0.3259  0.2078
  186DOPC  H12R22901   6.833   3.850  13.105 -1.5173  0.5223 -1.8833
  186DOPC  H12S22902   6.873   4.021  13.094  1.3036  0.9499 -0.0068
  186DOPC  C21322903   7.046   3.890  13.131  0.0504  0.0223  1.2061
  186DOPC  H13R22904   7.120   3.958  13.084  0.6533  0.1531  2.2999
  186DOPC  H13S22905   7.062   3.782  13.114 -1.0356  0.0788 -0.4018
  186DOPC  C21422906   7.043   3.905  13.290  0.1529 -0.2386 -0.0998
  186DOPC  H14R22907   6.955   3.849  13.328  1.2068 -0.5396  2.0589
  186DOPC  H14S22908   7.034   4.010  13.328 -1.8890 -0.8753  1.3960
  186DOPC  C21522909   7.166   3.852  13.355  0.4563  0.3475  0.2789
  186DOPC  H15R22910   7.252   3.914  13.320  1.0238  0.0537  1.1330
  186DOPC  H15S22911   7.189   3.745  13.335  0.5208  0.4128 -0.0102
  186DOPC  C21622912   7.150   3.863  13.505  0.6975 -0.8153 -0.4352
  186DOPC  H16R22913   7.046   3.842  13.539  0.3386 -0.4844 -1.2922
  186DOPC  H16S22914   7.174   3.967  13.533 -0.8328  0.0617 -2.1259
  186DOPC  C21722915   7.246   3.769  13.575  0.1505  0.7829  0.1358
  186DOPC  H17R22916   7.346   3.791  13.532  1.0495 -1.8181  0.7132
  186DOPC  H17S22917   7.221   3.670  13.532 -1.0555  1.6402 -1.2213
  186DOPC  C21822918   7.256   3.781  13.726  0.4414  0.2046 -0.7320
  186DOPC  H18R22919   7.315   3.870  13.759 -0.3295  0.2642  0.5579
  186DOPC  H18S22920   7.311   3.691  13.761  1.5007  0.3976 -1.8089
  186DOPC  H18T22921   7.161   3.780  13.783  0.9413  1.4916  0.1667
  186DOPC   C3322922   7.126   2.817  12.960  0.3311 -0.0259 -0.2862
  186DOPC   H3X22923   7.097   2.714  12.991  1.7998 -0.1175  0.8777
  186DOPC   H3Y22924   7.054   2.896  12.990  0.9898  1.2165 -1.8475
  186DOPC   C3422925   7.259   2.830  13.048  0.4175  0.2656 -0.4057
  186DOPC   H4X22926   7.323   2.911  13.005  3.0301 -0.7823  1.2744
  186DOPC   H4Y22927   7.305   2.730  13.054 -0.6447 -0.1548  2.7729
  186DOPC   C3522928   7.243   2.866  13.196  0.5659 -0.5524 -0.3883
  186DOPC   H5X22929   7.159   2.938  13.198  1.6116  0.7613  3.3761
  186DOPC   H5Y22930   7.344   2.901  13.225 -0.0979  1.0470  0.1141
  186DOPC   C3622931   7.208   2.749  13.275 -0.8404 -0.0392 -0.0939
  186DOPC   H6X22932   7.140   2.676  13.226 -0.4049 -1.4336  1.2573
  186DOPC   H6Y22933   7.298   2.694  13.311  0.8418  1.9284 -1.1050
  186DOPC   C3722934   7.148   2.795  13.416 -0.0749  0.1487  1.0092
  186DOPC   H7X22935   7.220   2.862  13.468  3.1103 -0.6477 -1.9758
  186DOPC   H7Y22936   7.064   2.864  13.390 -0.0247  0.7348  2.3334
  186DOPC   C3822937   7.097   2.682  13.505 -0.3120 -0.8162 -0.6788
  186DOPC   H8X22938   7.185   2.636  13.554 -0.5065  1.6498  2.2616
  186DOPC   H8Y22939   7.035   2.605  13.453 -1.4461 -0.6059  0.3013
  186DOPC   C3922940   7.014   2.747  13.618  0.4847  1.0795 -0.1345
  186DOPC   H9X22941   7.072   2.814  13.683 -0.5637 -2.9435  5.8747
  186DOPC  C31022942   6.887   2.721  13.659  0.7767 -0.2775 -0.0726
  186DOPC  H10X22943   6.847   2.794  13.732  2.5027  0.8402 -0.1854
  186DOPC  C31122944   6.779   2.624  13.610 -0.0562 -0.3254 -0.3035
  186DOPC  H11X22945   6.822   2.526  13.579  3.2101  0.3740  1.5136
  186DOPC  H11Y22946   6.731   2.666  13.519 -0.0205  1.1273  0.3129
  186DOPC  C31222947   6.668   2.603  13.715  0.2136 -0.1806  0.1304
  186DOPC  H12X22948   6.712   2.579  13.814  0.2163 -0.7443 -0.0049
  186DOPC  H12Y22949   6.614   2.512  13.681  2.1470 -1.2592 -0.1979
  186DOPC  C31322950   6.575   2.723  13.727 -0.1625 -1.0946  0.1839
  186DOPC  H13X22951   6.631   2.815  13.754  0.3572 -0.7809 -1.8406
  186DOPC  H13Y22952   6.527   2.731  13.628  0.3943 -3.7570 -0.3733
  186DOPC  C31422953   6.470   2.698  13.825 -0.6214 -0.6386 -0.4124
  186DOPC  H14X22954   6.388   2.632  13.787 -0.9392 -1.0655  0.9675
  186DOPC  H14Y22955   6.524   2.650  13.909  0.5458  1.2771 -0.0104
  186DOPC  C31522956   6.397   2.820  13.872  1.1983 -0.7046 -0.2901
  186DOPC  H15X22957   6.354   2.878  13.789  1.1792  0.6224  0.6233
  186DOPC  H15Y22958   6.470   2.891  13.917  2.1615 -0.5373 -2.0405
  186DOPC  C31622959   6.287   2.778  13.969  0.7564 -0.4602 -0.1543
  186DOPC  H16X22960   6.221   2.705  13.918  1.4051 -0.2157 -1.3816
  186DOPC  H16Y22961   6.322   2.738  14.066  2.2556  0.3228 -0.3489
  186DOPC  C31722962   6.197   2.900  14.000 -0.1679  0.6074 -0.5302
  186DOPC  H17X22963   6.244   2.969  14.073 -0.0700  0.5911 -0.5774
  186DOPC  H17Y22964   6.196   2.967  13.911  0.6275  0.0372 -0.9828
  186DOPC  C31822965   6.059   2.851  14.041 -0.8124  0.4125 -0.2634
  186DOPC  H18X22966   5.996   2.830  13.952 -1.0455 -0.0581  0.0059
  186DOPC  H18Y22967   6.063   2.754  14.096  1.4892  0.3951 -0.3553
  186DOPC  H18Z22968   6.007   2.928  14.101 -0.1377  1.7660 -1.3699
  187DOPC     N22969   6.875   0.691  12.720 -0.1393 -0.0973 -0.0088
  187DOPC   C1222970   6.930   0.819  12.781 -0.3168  0.7305  0.1010
  187DOPC  H12A22971   7.034   0.824  12.752 -0.0478  0.4340  0.9782
  187DOPC  H12B22972   6.911   0.817  12.887 -2.0965 -0.6038 -0.1971
  187DOPC   C1322973   6.726   0.692  12.737 -0.1253  0.3638 -0.2127
  187DOPC  H13A22974   6.676   0.769  12.681  0.6249  1.0627  0.0617
  187DOPC  H13B22975   6.680   0.598  12.710 -2.5801  1.1930  0.8147
  187DOPC  H13C22976   6.694   0.713  12.838 -0.5607  0.9243 -0.4637
  187DOPC   C1422977   6.937   0.573  12.792  0.2854 -0.0023 -0.7077
  187DOPC  H14A22978   6.896   0.482  12.750 -1.8088  0.0609  0.9862
  187DOPC  H14B22979   7.043   0.571  12.776  0.0123  0.4768 -2.8771
  187DOPC  H14C22980   6.913   0.565  12.897  1.4566 -1.2522 -0.5105
  187DOPC   C1522981   6.907   0.682  12.573 -0.1541  0.1277  0.3188
  187DOPC  H15A22982   7.011   0.665  12.549  0.2253 -1.4487  2.7093
  187DOPC  H15B22983   6.872   0.763  12.511 -0.2048  0.6362  0.9986
  187DOPC  H15C22984   6.847   0.597  12.545  1.4057 -1.0547  0.4098
  187DOPC   C1122985   6.865   0.954  12.744 -0.5906 -0.7321 -0.5914
  187DOPC  H11A22986   6.772   0.977  12.802  1.3584  1.3480  2.0226
  187DOPC  H11B22987   6.935   1.032  12.781  0.0126  0.5077 -4.0074
  187DOPC     P22988   6.707   1.013  12.543  0.3594  0.4140  0.1073
  187DOPC   O1322989   6.609   0.907  12.566  0.6012 -0.9989  0.4209
  187DOPC   O1422990   6.732   1.052  12.403 -0.1493 -0.2666 -0.8635
  187DOPC   O1222991   6.843   0.967  12.607  0.0469 -0.4039 -0.4785
  187DOPC   O1122992   6.657   1.148  12.607 -0.4974  0.6578  0.4170
  187DOPC    C122993   6.727   1.275  12.600 -0.3303  0.6402  0.7246
  187DOPC    HA22994   6.663   1.365  12.585  1.5428  1.7807 -0.9760
  187DOPC    HB22995   6.810   1.275  12.525 -0.6182  1.2373  0.3965
  187DOPC    C222996   6.790   1.292  12.739 -0.3000  0.0977  0.8656
  187DOPC    HS22997   6.841   1.198  12.768 -1.2957 -0.8305 -0.2511
  187DOPC   O2122998   6.692   1.339  12.820  0.1212  0.4524  0.2612
  187DOPC   C2122999   6.657   1.256  12.915  0.1500  0.3865 -0.2870
  187DOPC   O2223000   6.695   1.144  12.941 -0.1183 -0.7653  0.2802
  187DOPC   C2223001   6.567   1.340  13.009  0.4390 -0.3350 -0.4040
  187DOPC   H2R23002   6.496   1.395  12.943  2.4933  3.1940  0.0541
  187DOPC   H2S23003   6.623   1.415  13.069 -1.7826 -0.1547  1.5760
  187DOPC    C323004   6.898   1.408  12.731  0.0833  0.3564  0.4402
  187DOPC    HX23005   6.851   1.490  12.672 -2.1916  0.0717  1.7218
  187DOPC    HY23006   6.987   1.374  12.674 -0.4233 -0.0767 -0.1031
  187DOPC   O3123007   6.921   1.452  12.867 -1.0847 -0.2652  0.2000
  187DOPC   C3123008   7.005   1.386  12.933  0.2483 -0.3458  0.2212
  187DOPC   O3223009   7.078   1.299  12.891 -0.0782 -0.0365  0.0908
  187DOPC   C3223010   6.993   1.425  13.083 -0.1065  0.0242 -0.2849
  187DOPC   H2X23011   7.093   1.433  13.131 -0.0480  0.7872 -0.5171
  187DOPC   H2Y23012   6.958   1.530  13.093 -0.4708 -0.2864  2.5003
  187DOPC   C2323013   6.472   1.255  13.103 -0.0332  0.0142 -0.1276
  187DOPC   H3R23014   6.534   1.204  13.179 -0.8090 -1.2525 -0.3048
  187DOPC   H3S23015   6.433   1.167  13.047  1.1141 -1.2578  0.9984
  187DOPC   C2423016   6.362   1.329  13.181  0.2000 -0.3173  0.1308
  187DOPC   H4R23017   6.278   1.260  13.202 -0.1956  0.2863  0.5849
  187DOPC   H4S23018   6.322   1.413  13.121  0.7511  1.5095  2.1915
  187DOPC   C2523019   6.411   1.388  13.315  1.1093 -0.1359 -0.1329
  187DOPC   H5R23020   6.354   1.481  13.337 -0.4203 -1.3625  1.3255
  187DOPC   H5S23021   6.519   1.413  13.306  1.2032 -0.6849 -0.6336
  187DOPC   C2623022   6.381   1.297  13.435  0.0567 -0.7142  0.0458
  187DOPC   H6R23023   6.441   1.204  13.439  1.8395  0.4431  2.3921
  187DOPC   H6S23024   6.273   1.271  13.436 -0.4416  1.0062 -1.6833
  187DOPC   C2723025   6.400   1.373  13.566 -0.0473 -0.1657  0.2140
  187DOPC   H7R23026   6.364   1.476  13.546 -0.7254 -0.5367 -0.5372
  187DOPC   H7S23027   6.500   1.365  13.614 -0.7241 -0.1796  1.6762
  187DOPC   C2823028   6.305   1.336  13.674 -0.5399 -0.3780  0.5822
  187DOPC   H8R23029   6.197   1.345  13.650 -0.6261 -2.0068  0.2356
  187DOPC   H8S23030   6.312   1.416  13.750  1.5981  0.1308 -0.0812
  187DOPC   C2923031   6.330   1.196  13.738 -0.8584 -0.3446 -0.3409
  187DOPC   H9R23032   6.358   1.118  13.665 -1.8803 -0.4527 -0.6343
  187DOPC  C21023033   6.340   1.167  13.874  0.2265 -0.0200  0.0503
  187DOPC  H10R23034   6.361   1.061  13.897  1.2587  0.6939  2.8063
  187DOPC  C21123035   6.325   1.251  13.998  0.1024  0.0264 -0.3758
  187DOPC  H11R23036   6.222   1.243  14.037 -0.2743 -1.2797 -1.5426
  187DOPC  H11S23037   6.352   1.358  13.981  1.7606 -0.1106  1.1425
  187DOPC  C21223038   6.436   1.200  14.097 -0.0328 -0.6096  0.0103
  187DOPC  H12R23039   6.538   1.213  14.054  0.4611 -2.2233  0.6144
  187DOPC  H12S23040   6.433   1.090  14.113  0.4636 -0.7616 -0.9207
  187DOPC  C21323041   6.423   1.253  14.240  0.3485  0.5903 -0.1976
  187DOPC  H13R23042   6.314   1.260  14.259  0.3026 -0.3698 -0.0298
  187DOPC  H13S23043   6.468   1.354  14.252  1.3063  0.2979 -1.1841
  187DOPC  C21423044   6.484   1.155  14.346  0.1714  0.2413 -0.1691
  187DOPC  H14R23045   6.451   1.050  14.335 -0.9723  0.5429  0.2580
  187DOPC  H14S23046   6.466   1.189  14.450 -0.2253 -1.8443  0.4880
  187DOPC  C21523047   6.639   1.155  14.338 -0.2372  0.0483  0.3596
  187DOPC  H15R23048   6.663   1.264  14.335  1.2509 -0.2732 -1.2366
  187DOPC  H15S23049   6.684   1.096  14.256 -0.6107 -1.8762  1.4867
  187DOPC  C21623050   6.707   1.092  14.463  0.3772 -0.4688  0.0454
  187DOPC  H16R23051   6.671   0.987  14.460  1.1176 -0.7078 -1.5202
  187DOPC  H16S23052   6.669   1.140  14.556 -1.6423  0.8625 -1.3801
  187DOPC  C21723053   6.859   1.081  14.454 -0.1217 -0.4937  0.3036
  187DOPC  H17R23054   6.897   1.185  14.458  0.1503 -0.6135  0.9474
  187DOPC  H17S23055   6.877   1.039  14.353  1.5569 -0.3477  0.5143
  187DOPC  C21823056   6.917   1.003  14.574 -0.1125 -0.1509 -0.5097
  187DOPC  H18R23057   6.894   1.055  14.669  1.9197  0.7606 -0.4530
  187DOPC  H18S23058   7.027   0.992  14.558  0.2038  1.2306  0.5623
  187DOPC  H18T23059   6.868   0.903  14.579 -0.3147 -0.0608 -0.6870
  187DOPC   C3323060   6.899   1.332  13.163 -0.3273 -0.2088  0.0330
  187DOPC   H3X23061   6.935   1.227  13.156 -0.9861 -0.3425 -2.0165
  187DOPC   H3Y23062   6.795   1.339  13.123 -0.3012  1.4567  0.2163
  187DOPC   C3423063   6.886   1.377  13.306 -0.2582 -0.4546 -0.4469
  187DOPC   H4X23064   6.834   1.475  13.306 -0.2497 -0.3894  1.9791
  187DOPC   H4Y23065   6.990   1.377  13.345 -0.2118 -0.7161 -0.5686
  187DOPC   C3523066   6.809   1.271  13.384  0.6097  0.3586  0.0429
  187DOPC   H5X23067   6.870   1.178  13.387  0.2526  0.1524  1.4121
  187DOPC   H5Y23068   6.707   1.238  13.355  0.1841  0.2454  1.5931
  187DOPC   C3623069   6.805   1.310  13.529 -0.5397  0.0604 -0.1275
  187DOPC   H6X23070   6.911   1.318  13.562  0.3168 -2.9096 -1.7721
  187DOPC   H6Y23071   6.745   1.401  13.552  0.8296  1.0002 -0.1351
  187DOPC   C3723072   6.757   1.194  13.618  0.1809 -0.3428 -0.2190
  187DOPC   H7X23073   6.650   1.170  13.600 -0.9786  4.0602 -0.4123
  187DOPC   H7Y23074   6.825   1.106  13.611  0.8918  0.1096  0.6884
  187DOPC   C3823075   6.779   1.220  13.773 -0.0902  0.1565 -0.7593
  187DOPC   H8X23076   6.889   1.234  13.780  0.3829 -2.3089 -2.0131
  187DOPC   H8Y23077   6.761   1.124  13.825 -0.0896  1.4171  1.6704
  187DOPC   C3923078   6.711   1.339  13.830  0.0975 -0.3069 -0.8827
  187DOPC   H9X23079   6.627   1.364  13.763 -2.8830  0.4206  2.7711
  187DOPC  C31023080   6.743   1.420  13.937  0.7581  1.1383  0.7507
  187DOPC  H10X23081   6.682   1.511  13.948 -0.2736  1.3253 -4.0943
  187DOPC  C31123082   6.853   1.397  14.030 -0.6071  0.1444  0.1391
  187DOPC  H11X23083   6.940   1.458  13.998 -0.6218  0.7779  1.2520
  187DOPC  H11Y23084   6.887   1.291  14.030 -0.6046  0.1436  0.4215
  187DOPC  C31223085   6.833   1.439  14.177  0.1990 -0.7247 -0.2871
  187DOPC  H12X23086   6.736   1.390  14.199  1.7092 -4.4250 -1.1658
  187DOPC  H12Y23087   6.818   1.549  14.189 -3.2078 -0.6562 -3.2856
  187DOPC  C31323088   6.948   1.408  14.275  0.2814 -0.0206 -0.3695
  187DOPC  H13X23089   6.972   1.300  14.280 -0.2123 -0.1117  0.0101
  187DOPC  H13Y23090   7.042   1.460  14.247  0.0741  1.9448  2.2544
  187DOPC  C31423091   6.912   1.446  14.420  0.0199 -0.1346 -0.6296
  187DOPC  H14X23092   6.808   1.419  14.449  0.0865  1.0158  0.8114
  187DOPC  H14Y23093   6.986   1.395  14.486  0.2839  0.9668 -0.0365
  187DOPC  C31523094   6.935   1.591  14.428  0.4932 -0.9642 -0.0280
  187DOPC  H15X23095   6.864   1.648  14.365 -0.9322 -0.8545  1.5846
  187DOPC  H15Y23096   7.037   1.620  14.395  0.5540 -0.6991  0.3845
  187DOPC  C31623097   6.927   1.636  14.575 -0.0472 -0.7599  0.3307
  187DOPC  H16X23098   6.887   1.739  14.588  2.6679  0.2345  1.7145
  187DOPC  H16Y23099   6.851   1.567  14.617 -0.5412 -2.1859 -2.6506
  187DOPC  C31723100   7.058   1.633  14.660 -0.2200  0.0358  0.1735
  187DOPC  H17X23101   7.111   1.537  14.645 -1.2424 -0.4415 -0.5331
  187DOPC  H17Y23102   7.130   1.705  14.616 -0.9473  0.8424  0.2765
  187DOPC  C31823103   7.030   1.666  14.804 -0.5408 -0.2513  0.4544
  187DOPC  H18X23104   6.937   1.622  14.846 -0.9683 -0.7563 -0.9588
  187DOPC  H18Y23105   7.116   1.631  14.865  0.8161 -0.7445 -1.6309
  187DOPC  H18Z23106   7.030   1.777  14.809  1.9024 -0.1140 -1.1472
  188DOPC     N23107   2.198   7.338  12.068 -0.7935  0.0641  0.4406
  188DOPC   C1223108   2.170   7.484  12.104 -0.0207  0.1546 -0.2303
  188DOPC  H12A23109   2.069   7.492  12.142 -1.2873 -0.8439 -3.0722
  188DOPC  H12B23110   2.182   7.542  12.014  1.2764 -1.3279 -1.0613
  188DOPC   C1323111   2.121   7.300  11.948  0.0869 -0.0791  0.5307
  188DOPC  H13A23112   2.015   7.297  11.966  0.1988  0.8482  1.4439
  188DOPC  H13B23113   2.121   7.363  11.860 -1.5656 -3.3171 -2.0127
  188DOPC  H13C23114   2.147   7.202  11.911 -0.2884  1.0024 -2.9769
  188DOPC   C1423115   2.169   7.239  12.178 -0.3186  0.5377  0.1107
  188DOPC  H14A23116   2.070   7.259  12.215 -0.3544 -0.0698  0.3663
  188DOPC  H14B23117   2.168   7.138  12.138 -1.8234  0.0353  1.3308
  188DOPC  H14C23118   2.251   7.253  12.247 -0.1312  4.9164 -0.7203
  188DOPC   C1523119   2.340   7.319  12.028 -0.5403  0.4656 -0.3412
  188DOPC  H15A23120   2.359   7.397  11.956  0.1815  1.7818  1.2046
  188DOPC  H15B23121   2.374   7.223  11.993 -1.0240  0.5843 -1.1772
  188DOPC  H15C23122   2.399   7.349  12.113  0.3545 -1.3862 -0.2838
  188DOPC   C1123123   2.258   7.531  12.216  0.3247  0.0167  0.3202
  188DOPC  H11A23124   2.257   7.460  12.301  0.2057 -1.7875 -1.1292
  188DOPC  H11B23125   2.361   7.527  12.174  0.1443  2.7049 -0.6017
  188DOPC     P23126   2.110   7.695  12.363 -0.6931 -0.4230  0.3286
  188DOPC   O1323127   1.976   7.642  12.325 -0.7078 -0.3214 -0.1344
  188DOPC   O1423128   2.115   7.840  12.396 -0.0968 -0.3497 -0.3190
  188DOPC   O1223129   2.229   7.667  12.256 -0.3825 -0.2302 -0.6088
  188DOPC   O1123130   2.166   7.618  12.486  0.4891 -0.5551 -0.5667
  188DOPC    C123131   2.297   7.631  12.541 -0.4635  0.0309  0.2729
  188DOPC    HA23132   2.362   7.692  12.475 -0.7124  1.5163  1.3393
  188DOPC    HB23133   2.341   7.530  12.546  0.0815  0.1479 -1.3521
  188DOPC    C223134   2.293   7.698  12.683  0.8585 -0.0009 -0.4941
  188DOPC    HS23135   2.246   7.631  12.758  4.3003 -1.0490  0.9041
  188DOPC   O2123136   2.230   7.827  12.669 -0.0282  0.2118  0.0944
  188DOPC   C2123137   2.106   7.837  12.725  0.2160  0.0968 -0.2619
  188DOPC   O2223138   2.032   7.746  12.766 -0.9822 -0.1434  0.1281
  188DOPC   C2223139   2.056   7.988  12.723  0.0310 -0.0369 -0.7189
  188DOPC   H2R23140   1.962   7.991  12.663  0.9980  0.5193 -2.2771
  188DOPC   H2S23141   2.133   8.048  12.670  1.3786 -0.7800  0.3104
  188DOPC    C323142   2.440   7.705  12.733  0.3372 -0.4612 -0.9293
  188DOPC    HX23143   2.491   7.719  12.636 -2.7412 -1.0787 -2.7635
  188DOPC    HY23144   2.480   7.618  12.789 -0.7962  0.2504  1.1134
  188DOPC   O3123145   2.457   7.822  12.820  0.6715  0.5658 -0.0068
  188DOPC   C3123146   2.489   7.933  12.753 -0.1076 -0.0356 -0.2731
  188DOPC   O3223147   2.492   7.951  12.634 -0.0887  0.1892 -0.1764
  188DOPC   C3223148   2.532   8.040  12.855  0.3076 -0.3468  0.0556
  188DOPC   H2X23149   2.635   8.018  12.890  0.5007  1.7849  0.9581
  188DOPC   H2Y23150   2.529   8.139  12.804  2.1369 -0.3819 -0.1817
  188DOPC   C2323151   2.024   8.028  12.873  0.5247 -0.2516 -0.4331
  188DOPC   H3R23152   2.099   7.988  12.945 -0.4490 -1.3923 -0.0120
  188DOPC   H3S23153   1.934   7.974  12.910  0.3755 -1.0131 -1.8349
  188DOPC   C2423154   2.018   8.180  12.892  0.2649 -0.2835  0.0648
  188DOPC   H4R23155   1.929   8.228  12.845  1.7364  0.6294 -1.9277
  188DOPC   H4S23156   2.103   8.232  12.844  0.0928 -2.7126 -3.1869
  188DOPC   C2523157   2.026   8.228  13.034 -0.2150 -0.5705 -0.0045
  188DOPC   H5R23158   2.020   8.338  13.021 -1.1621 -0.2332  2.5721
  188DOPC   H5S23159   2.127   8.203  13.071  0.5030  0.3939 -1.2448
  188DOPC   C2623160   1.916   8.188  13.135 -0.5484  0.2521 -0.0711
  188DOPC   H6R23161   1.899   8.079  13.123  2.8870 -0.3242 -0.5069
  188DOPC   H6S23162   1.826   8.240  13.095 -1.1587 -0.0224  0.9016
  188DOPC   C2723163   1.938   8.215  13.287  1.4439  0.2603  0.1359
  188DOPC   H7R23164   1.859   8.171  13.351  1.5782 -0.3999 -0.1356
  188DOPC   H7S23165   1.945   8.323  13.308  1.4031  0.5343 -1.1906
  188DOPC   C2823166   2.071   8.150  13.334 -0.4894 -0.1386  0.0681
  188DOPC   H8R23167   2.160   8.180  13.274 -1.3781  0.8047 -0.8032
  188DOPC   H8S23168   2.057   8.040  13.322 -3.1717 -0.0173  1.3351
  188DOPC   C2923169   2.101   8.182  13.479  0.5011 -0.0614  0.3625
  188DOPC   H9R23170   2.123   8.289  13.492 -2.3365  0.8560 -1.4234
  188DOPC  C21023171   2.091   8.104  13.588 -0.8306  0.0013  0.7346
  188DOPC  H10R23172   2.092   8.146  13.689 -0.5518 -0.2078  0.8190
  188DOPC  C21123173   2.046   7.956  13.597 -0.5275 -1.6030 -0.2412
  188DOPC  H11R23174   2.119   7.899  13.536  0.8213  0.3381 -0.5243
  188DOPC  H11S23175   1.948   7.941  13.549 -0.7966  0.9803 -0.6049
  188DOPC  C21223176   2.039   7.894  13.730  0.3781 -0.3009 -0.6562
  188DOPC  H12R23177   2.135   7.903  13.786  0.3033 -0.4019 -0.5100
  188DOPC  H12S23178   2.016   7.785  13.723  2.1187 -0.7158 -0.4987
  188DOPC  C21323179   1.935   7.969  13.818  0.0936  0.4055 -0.0780
  188DOPC  H13R23180   1.843   7.988  13.759 -1.0762  0.0333  1.5591
  188DOPC  H13S23181   1.998   8.055  13.850  1.6107 -0.2102 -1.2845
  188DOPC  C21423182   1.894   7.897  13.949 -0.2250  1.0260  0.5907
  188DOPC  H14R23183   1.832   7.966  14.010 -1.1874 -1.2081  2.2709
  188DOPC  H14S23184   1.985   7.879  14.010  0.7599  1.0495 -0.8377
  188DOPC  C21523185   1.817   7.761  13.926 -0.2366  0.1752  0.0972
  188DOPC  H15R23186   1.883   7.695  13.867 -0.5479  1.8707 -2.3154
  188DOPC  H15S23187   1.724   7.786  13.870  0.4061  0.2151 -0.9660
  188DOPC  C21623188   1.772   7.695  14.054  0.1582  0.0176 -0.3931
  188DOPC  H16R23189   1.697   7.756  14.109  1.8939 -0.9389  3.4111
  188DOPC  H16S23190   1.856   7.689  14.127  1.7689  0.7121 -2.0925
  188DOPC  C21723191   1.694   7.564  14.041 -0.2438  0.2860 -0.4882
  188DOPC  H17R23192   1.765   7.485  14.008 -0.0679 -0.3391  1.2907
  188DOPC  H17S23193   1.610   7.588  13.972  1.1059  2.1209 -1.5774
  188DOPC  C21823194   1.636   7.513  14.177 -0.2034 -0.2625  0.4929
  188DOPC  H18R23195   1.528   7.486  14.167 -0.3908  0.3547  0.7582
  188DOPC  H18S23196   1.641   7.593  14.254  1.5596  0.5031 -0.3686
  188DOPC  H18T23197   1.690   7.425  14.217  1.1749  0.6488  0.7050
  188DOPC   C3323198   2.447   8.047  12.985 -0.4415 -0.0140  0.6344
  188DOPC   H3X23199   2.411   7.943  13.000 -1.8577  0.5235  1.0276
  188DOPC   H3Y23200   2.354   8.106  12.973 -1.1497 -1.3874 -1.1829
  188DOPC   C3423201   2.523   8.100  13.109  0.6884 -0.0411  0.8842
  188DOPC   H4X23202   2.602   8.022  13.105 -0.5386 -1.2546 -1.1220
  188DOPC   H4Y23203   2.463   8.093  13.203 -0.5489 -0.0925  0.1141
  188DOPC   C3523204   2.593   8.237  13.097  0.6787  0.2656 -0.1379
  188DOPC   H5X23205   2.527   8.315  13.053 -0.9788 -1.1497 -0.2216
  188DOPC   H5Y23206   2.676   8.217  13.025  0.2206  1.7154 -1.1195
  188DOPC   C3623207   2.646   8.269  13.239  0.4692 -0.3429 -0.2389
  188DOPC   H6X23208   2.687   8.171  13.271  2.7906  0.1642 -1.4297
  188DOPC   H6Y23209   2.732   8.340  13.236 -0.3658  0.7272  0.4136
  188DOPC   C3723210   2.541   8.323  13.329  0.1420 -0.3222  0.6776
  188DOPC   H7X23211   2.486   8.410  13.288 -0.1424 -0.2128  1.2767
  188DOPC   H7Y23212   2.464   8.243  13.342  1.0516 -1.0024  2.1618
  188DOPC   C3823213   2.579   8.348  13.480 -0.1510  0.3796  0.9852
  188DOPC   H8X23214   2.642   8.265  13.519  0.0362 -1.0451 -2.0290
  188DOPC   H8Y23215   2.481   8.343  13.532 -0.6722 -0.7452 -0.0529
  188DOPC   C3923216   2.646   8.486  13.478 -0.3399  0.2025 -0.3094
  188DOPC   H9X23217   2.640   8.540  13.382  1.0490  1.5103  0.2973
  188DOPC  C31023218   2.711   8.540  13.581 -0.4773  0.2345  0.0795
  188DOPC  H10X23219   2.771   8.630  13.562 -0.2008 -0.4442 -2.6548
  188DOPC  C31123220   2.733   8.468  13.714  0.0235 -0.3751  0.5804
  188DOPC  H11X23221   2.673   8.375  13.713  0.1473 -0.4759  1.5948
  188DOPC  H11Y23222   2.698   8.536  13.795  0.5376  2.1495 -1.1902
  188DOPC  C31223223   2.874   8.418  13.750  0.1424 -0.5461 -0.2799
  188DOPC  H12X23224   2.930   8.509  13.781 -0.6013 -0.0780 -0.3069
  188DOPC  H12Y23225   2.930   8.371  13.666  1.6769  0.7918 -0.0700
  188DOPC  C31323226   2.865   8.313  13.859 -0.1881 -0.0288 -0.7071
  188DOPC  H13X23227   2.971   8.293  13.884 -0.2732 -1.4790 -1.3929
  188DOPC  H13Y23228   2.808   8.363  13.941 -1.8815 -0.1798 -1.7567
  188DOPC  C31423229   2.806   8.176  13.811  0.7460  0.2675 -0.5671
  188DOPC  H14X23230   2.707   8.185  13.760  0.2695  1.4481  0.5173
  188DOPC  H14Y23231   2.881   8.139  13.738  0.1109  1.2928 -1.7815
  188DOPC  C31523232   2.785   8.087  13.934  0.0955  0.5426  0.0366
  188DOPC  H15X23233   2.736   7.994  13.899  1.4196 -0.8558  1.7523
  188DOPC  H15Y23234   2.717   8.136  14.007  1.1983 -0.1906  1.6247
  188DOPC  C31623235   2.908   8.049  14.013 -0.1852  0.4481 -0.3978
  188DOPC  H16X23236   2.943   8.143  14.061 -0.4481 -0.1540  1.0194
  188DOPC  H16Y23237   2.872   7.979  14.092  2.9437 -1.9035 -0.8584
  188DOPC  C31723238   3.012   7.969  13.940 -0.6823 -0.0134 -0.1678
  188DOPC  H17X23239   2.971   7.876  13.896  1.6252 -0.6548 -1.0999
  188DOPC  H17Y23240   3.052   8.035  13.860 -1.3077 -2.0534 -2.2704
  188DOPC  C31823241   3.117   7.931  14.049  0.0182  0.4219  0.8418
  188DOPC  H18X23242   3.184   7.851  14.012  0.3018  1.4048 -0.8700
  188DOPC  H18Y23243   3.173   8.026  14.062  1.5389 -0.5242  1.5189
  188DOPC  H18Z23244   3.056   7.901  14.137 -1.2987  0.8623  0.1017
  189DOPC     N23245   2.521   0.868  12.107 -0.8122  0.2710  0.1373
  189DOPC   C1223246   2.523   0.726  12.052  0.0179 -0.4653  0.1615
  189DOPC  H12A23247   2.549   0.745  11.949 -2.1572  0.9907 -0.1786
  189DOPC  H12B23248   2.419   0.698  12.050 -0.2246  0.2544  1.4380
  189DOPC   C1323249   2.445   0.881  12.232  0.1083 -0.2863  0.1503
  189DOPC  H13A23250   2.443   0.985  12.264  1.1145 -0.1807 -0.1019
  189DOPC  H13B23251   2.339   0.861  12.219  0.3144  0.2397 -3.3081
  189DOPC  H13C23252   2.475   0.805  12.302 -4.5715  0.4446  3.4074
  189DOPC   C1423253   2.450   0.960  12.012  0.1171 -0.2387  0.4810
  189DOPC  H14A23254   2.461   1.063  12.043  0.0132 -0.2458  0.5421
  189DOPC  H14B23255   2.491   0.954  11.912 -0.6455  1.3680  0.0316
  189DOPC  H14C23256   2.344   0.945  11.999  0.2442  0.9601 -3.0997
  189DOPC   C1523257   2.660   0.923  12.122 -0.5454  1.0358 -0.0743
  189DOPC  H15A23258   2.716   0.862  12.192 -0.2945 -0.2999 -1.3718
  189DOPC  H15B23259   2.676   1.024  12.156  1.8363  0.5970  0.3351
  189DOPC  H15C23260   2.711   0.915  12.027  0.0595  3.1285  0.0313
  189DOPC   C1123261   2.610   0.626  12.126  0.8323 -0.1622  0.0018
  189DOPC  H11A23262   2.586   0.621  12.235 -2.1106 -2.6966 -0.6157
  189DOPC  H11B23263   2.574   0.526  12.093  1.1517  0.4386 -2.3084
  189DOPC     P23264   2.861   0.615  12.195 -0.1231 -0.0909  0.0265
  189DOPC   O1323265   2.869   0.747  12.262 -0.1595  0.6860 -0.3101
  189DOPC   O1423266   2.983   0.564  12.126 -0.4392  0.1052  0.3060
  189DOPC   O1223267   2.744   0.617  12.096  0.3913  0.2282  0.1162
  189DOPC   O1123268   2.811   0.508  12.294 -0.3562 -0.2652  0.5171
  189DOPC    C123269   2.774   0.522  12.430  0.5079  0.7651 -1.0348
  189DOPC    HA23270   2.679   0.466  12.441 -0.3586  2.0313 -1.7268
  189DOPC    HB23271   2.759   0.629  12.458 -0.3505  0.8511 -1.7705
  189DOPC    C223272   2.887   0.469  12.524 -0.1104 -0.9111  0.0848
  189DOPC    HS23273   2.850   0.491  12.626  0.3610 -0.4225  0.1575
  189DOPC   O2123274   3.004   0.540  12.489  0.0700 -0.3431  0.0056
  189DOPC   C2123275   3.026   0.660  12.540 -0.2879 -0.8993  0.2905
  189DOPC   O2223276   2.952   0.721  12.617  0.0497  0.2365  0.3622
  189DOPC   C2223277   3.145   0.726  12.469 -0.0374 -0.1094  0.3587
  189DOPC   H2R23278   3.098   0.812  12.415 -0.2830  0.6340  1.7122
  189DOPC   H2S23279   3.196   0.660  12.396 -0.0188  0.7835 -0.4686
  189DOPC    C323280   2.912   0.315  12.518  0.4168 -0.1808 -0.2495
  189DOPC    HX23281   2.933   0.291  12.412  0.4331  0.8133 -0.4789
  189DOPC    HY23282   2.813   0.267  12.530 -0.0623  0.1110 -2.5885
  189DOPC   O3123283   3.006   0.270  12.619  0.2966  0.2604 -0.4603
  189DOPC   C3123284   3.132   0.291  12.580 -0.3681 -0.3510 -0.7956
  189DOPC   O3223285   3.166   0.310  12.466  0.0076 -0.7131  0.1097
  189DOPC   C3223286   3.229   0.286  12.698  0.1252 -0.1943  0.1520
  189DOPC   H2X23287   3.322   0.345  12.686  0.0367  0.3922  1.9911
  189DOPC   H2Y23288   3.183   0.317  12.795 -0.3852  0.0528 -0.1680
  189DOPC   C2323289   3.247   0.783  12.566  0.1056  0.8052 -0.1321
  189DOPC   H3R23290   3.204   0.857  12.637  1.7817  1.1716  0.5420
  189DOPC   H3S23291   3.310   0.851  12.504  0.7295  0.4675  0.1279
  189DOPC   C2423292   3.326   0.681  12.648  0.1704  0.8028  0.2658
  189DOPC   H4R23293   3.382   0.604  12.591 -3.4055 -1.8023 -0.0758
  189DOPC   H4S23294   3.249   0.626  12.706 -1.8593  1.6522 -1.4920
  189DOPC   C2523295   3.429   0.755  12.736 -0.4970 -0.0216 -0.4627
  189DOPC   H5R23296   3.366   0.817  12.804 -2.5185 -2.4063 -0.0182
  189DOPC   H5S23297   3.489   0.820  12.670 -0.0503 -0.4080 -0.4393
  189DOPC   C2623298   3.514   0.666  12.835  0.5222 -0.5191  0.4563
  189DOPC   H6R23299   3.607   0.626  12.789  1.5964 -0.0841  2.1570
  189DOPC   H6S23300   3.457   0.575  12.865  0.5381 -0.7438 -0.1744
  189DOPC   C2723301   3.567   0.750  12.954 -0.5262  0.7801  0.4173
  189DOPC   H7R23302   3.480   0.788  13.011 -1.5765 -1.8822  0.7502
  189DOPC   H7S23303   3.612   0.838  12.903 -0.0218  0.8704  1.0172
  189DOPC   C2823304   3.667   0.680  13.051 -0.9068 -0.5487  0.0022
  189DOPC   H8R23305   3.635   0.590  13.109  1.9887 -1.7748 -0.0856
  189DOPC   H8S23306   3.690   0.753  13.131  0.0602  0.4582 -1.1490
  189DOPC   C2923307   3.800   0.640  12.983  0.4897 -0.4868 -0.4434
  189DOPC   H9R23308   3.790   0.564  12.904  0.9767  2.2642 -3.3996
  189DOPC  C21023309   3.911   0.711  13.005  0.2237  0.0942  0.2426
  189DOPC  H10R23310   3.992   0.702  12.930  1.7960 -0.3307  1.9094
  189DOPC  C21123311   3.934   0.834  13.094  0.2053 -0.0161 -0.1541
  189DOPC  H11R23312   3.859   0.915  13.077  0.7752  0.3743 -0.8987
  189DOPC  H11S23313   4.033   0.877  13.066  0.1430 -0.2771 -0.7977
  189DOPC  C21223314   3.943   0.797  13.242 -0.4263  0.5249 -0.5449
  189DOPC  H12R23315   3.860   0.734  13.280  1.2658  0.2890  3.2073
  189DOPC  H12S23316   3.956   0.888  13.305 -2.8713 -1.1408  2.6486
  189DOPC  C21323317   4.070   0.708  13.273  0.5056  0.5239 -0.0051
  189DOPC  H13R23318   4.157   0.729  13.207  0.3371 -0.8423 -0.6872
  189DOPC  H13S23319   4.040   0.601  13.280 -2.6519  1.3646  0.8252
  189DOPC  C21423320   4.129   0.738  13.411  0.8872 -0.5094 -0.6341
  189DOPC  H14R23321   4.166   0.843  13.413  2.4232 -1.0171 -0.9844
  189DOPC  H14S23322   4.209   0.662  13.418 -2.3429 -4.2352 -0.7498
  189DOPC  C21523323   4.018   0.718  13.524  0.4537  0.1906 -0.2745
  189DOPC  H15R23324   3.953   0.629  13.509 -0.7929  0.8950  0.6726
  189DOPC  H15S23325   3.936   0.792  13.508  0.8822  0.9893  1.0317
  189DOPC  C21623326   4.080   0.711  13.664  0.1875 -0.2440 -0.1647
  189DOPC  H16R23327   4.153   0.792  13.683  1.3594 -1.5205  1.0091
  189DOPC  H16S23328   4.136   0.616  13.680  0.5425  0.3267  2.4515
  189DOPC  C21723329   3.980   0.730  13.780  0.3660 -0.3490 -0.2160
  189DOPC  H17R23330   3.927   0.634  13.803 -0.7579  0.5460  1.1452
  189DOPC  H17S23331   3.902   0.804  13.756 -0.5974 -1.3538 -0.2684
  189DOPC  C21823332   4.052   0.769  13.908  0.4819 -0.0058  0.5493
  189DOPC  H18R23333   4.114   0.690  13.955 -1.0413 -0.6986  1.4595
  189DOPC  H18S23334   3.975   0.801  13.982  0.7131 -0.0729  0.8176
  189DOPC  H18T23335   4.124   0.852  13.891  1.4664 -1.1619 -1.3079
  189DOPC   C3323336   3.268   0.137  12.726  0.2976 -0.8747  0.3749
  189DOPC   H3X23337   3.321   0.091  12.639  1.2842  1.5870 -0.4291
  189DOPC   H3Y23338   3.178   0.076  12.748  0.0131 -1.0552 -1.1338
  189DOPC   C3423339   3.374   0.134  12.835  0.2898  0.5206 -0.0414
  189DOPC   H4X23340   3.467   0.161  12.781  0.3598 -1.3647 -0.9395
  189DOPC   H4Y23341   3.389   0.028  12.862  1.2241  0.8258  0.6823
  189DOPC   C3523342   3.354   0.220  12.965  0.0867  0.8198 -0.0770
  189DOPC   H5X23343   3.261   0.189  13.018  0.7793 -0.5131  0.4119
  189DOPC   H5Y23344   3.340   0.330  12.955 -1.5983  0.8015  1.6077
  189DOPC   C3623345   3.463   0.186  13.072 -0.0135 -1.1702  0.3992
  189DOPC   H6X23346   3.480   0.076  13.069  1.7443 -0.9267  0.7987
  189DOPC   H6Y23347   3.553   0.243  13.040 -0.5643 -0.2299  0.4852
  189DOPC   C3723348   3.422   0.237  13.206 -0.9379  0.5526 -1.1079
  189DOPC   H7X23349   3.378   0.339  13.206 -0.7899  0.8101  3.2132
  189DOPC   H7Y23350   3.342   0.167  13.239  1.5375 -1.8139  0.2809
  189DOPC   C3823351   3.536   0.241  13.309 -0.0588 -0.1876  0.4449
  189DOPC   H8X23352   3.572   0.137  13.326 -2.0712 -0.9816  0.0710
  189DOPC   H8Y23353   3.490   0.275  13.405  0.2611  2.0408 -0.1293
  189DOPC   C3923354   3.665   0.327  13.278 -0.1067  0.2895  0.3645
  189DOPC   H9X23355   3.707   0.317  13.177 -0.5294  0.1825  0.1942
  189DOPC  C31023356   3.728   0.411  13.361  0.4869 -0.8679  0.5062
  189DOPC  H10X23357   3.824   0.446  13.320  1.5118 -2.7367  1.1972
  189DOPC  C31123358   3.698   0.448  13.504  0.0685  0.9217  0.2883
  189DOPC  H11X23359   3.788   0.439  13.569 -0.9869  2.4268  2.0978
  189DOPC  H11Y23360   3.627   0.372  13.544  0.6422  1.2827  2.1001
  189DOPC  C31223361   3.640   0.581  13.552 -0.4405  0.2305 -0.8264
  189DOPC  H12X23362   3.547   0.607  13.497  0.5308 -0.5598 -2.9883
  189DOPC  H12Y23363   3.718   0.659  13.534  0.8581 -0.2173  2.2871
  189DOPC  C31323364   3.596   0.582  13.696  0.7327 -0.3238  0.3940
  189DOPC  H13X23365   3.523   0.501  13.720 -1.5292  1.4248 -0.2386
  189DOPC  H13Y23366   3.679   0.566  13.768  1.9610  0.9612 -0.6918
  189DOPC  C31423367   3.542   0.717  13.731 -0.4056 -0.6033 -0.0528
  189DOPC  H14X23368   3.615   0.801  13.722  0.1031 -0.9578  0.6287
  189DOPC  H14Y23369   3.451   0.747  13.675  0.2775  1.8115  0.0269
  189DOPC  C31523370   3.492   0.713  13.882  0.3583 -0.4196  0.4969
  189DOPC  H15X23371   3.575   0.679  13.947  1.3833 -1.1788 -1.1502
  189DOPC  H15Y23372   3.398   0.657  13.900 -1.1903  1.9178  0.1585
  189DOPC  C31623373   3.452   0.857  13.916  0.7503 -0.0874  0.1863
  189DOPC  H16X23374   3.539   0.920  13.888  2.5450 -1.7638  1.6721
  189DOPC  H16Y23375   3.361   0.890  13.861  0.1824  1.0946  1.7554
  189DOPC  C31723376   3.427   0.887  14.069 -0.6597  0.0586  0.8757
  189DOPC  H17X23377   3.490   0.816  14.127  0.4655  0.0255 -0.3276
  189DOPC  H17Y23378   3.465   0.990  14.088  1.3647 -0.0753 -1.8001
  189DOPC  C31823379   3.281   0.873  14.119  0.6716  0.2410 -0.5613
  189DOPC  H18X23380   3.242   0.776  14.083  0.5139 -0.1157  0.5478
  189DOPC  H18Y23381   3.286   0.867  14.229 -0.1919 -1.0269 -0.5779
  189DOPC  H18Z23382   3.216   0.956  14.083  1.1275  0.4044 -1.0310
  190DOPC     N23383   2.305   6.775  12.385 -0.9002  0.0583  0.0995
  190DOPC   C1223384   2.254   6.824  12.515  0.0447 -0.3684 -0.0236
  190DOPC  H12A23385   2.227   6.741  12.578  0.1277  1.2054  2.1832
  190DOPC  H12B23386   2.158   6.873  12.501 -0.1581 -0.6544  0.3700
  190DOPC   C1323387   2.436   6.696  12.399  0.1299  0.0065 -0.3243
  190DOPC  H13A23388   2.462   6.656  12.302 -0.8036 -0.8672 -0.2259
  190DOPC  H13B23389   2.513   6.755  12.447  2.5419 -3.4058  0.3353
  190DOPC  H13C23390   2.427   6.606  12.458  2.4949 -0.5124 -0.6239
  190DOPC   C1423391   2.346   6.893  12.304  0.5195 -0.6551  0.0056
  190DOPC  H14A23392   2.414   6.861  12.226 -0.5275 -1.6485 -0.5475
  190DOPC  H14B23393   2.260   6.934  12.252  0.0153 -0.7144  0.7734
  190DOPC  H14C23394   2.383   6.967  12.373  1.6635 -0.7991 -0.4378
  190DOPC   C1523395   2.204   6.695  12.311 -0.5273 -0.7478 -0.4808
  190DOPC  H15A23396   2.108   6.744  12.304 -0.1670  0.4828  1.8933
  190DOPC  H15B23397   2.185   6.613  12.379  0.5017  0.5438  1.4724
  190DOPC  H15C23398   2.230   6.669  12.210 -1.2684  1.9076 -1.4471
  190DOPC   C1123399   2.334   6.918  12.603  0.3918  0.2485  1.0533
  190DOPC  H11A23400   2.292   6.921  12.706  1.1284  0.9735  1.3472
  190DOPC  H11B23401   2.433   6.869  12.611  0.4715 -0.0414 -1.1836
  190DOPC     P23402   2.431   7.155  12.624 -0.6354  0.1189  0.0380
  190DOPC   O1323403   2.394   7.283  12.562  0.3504  0.2362 -0.2722
  190DOPC   O1423404   2.576   7.119  12.616  0.0157  0.5085  0.1724
  190DOPC   O1223405   2.347   7.049  12.541 -0.3074  0.2671 -0.4667
  190DOPC   O1123406   2.374   7.150  12.771 -0.2813  0.6108  0.5279
  190DOPC    C123407   2.243   7.199  12.805 -0.5631 -0.3393  0.3093
  190DOPC    HA23408   2.164   7.140  12.753  0.4953 -1.7051  0.1925
  190DOPC    HB23409   2.238   7.305  12.771  0.5185  0.2407  1.9066
  190DOPC    C223410   2.218   7.195  12.957 -0.2508  0.1195 -0.0678
  190DOPC    HS23411   2.119   7.232  12.993 -1.8337 -2.6608 -1.1511
  190DOPC   O2123412   2.326   7.262  13.022  0.5466  0.4666 -0.0916
  190DOPC   C2123413   2.310   7.392  13.026  0.2607  0.2608  0.4142
  190DOPC   O2223414   2.226   7.459  12.970 -0.4496  0.1501 -0.2614
  190DOPC   C2223415   2.402   7.447  13.127 -0.1846  0.1179  0.2365
  190DOPC   H2R23416   2.502   7.451  13.079  0.0456 -0.4620  0.6579
  190DOPC   H2S23417   2.408   7.371  13.207  0.2773 -0.9603 -0.7879
  190DOPC    C323418   2.220   7.039  13.004 -0.2391  0.5170  0.1862
  190DOPC    HX23419   2.326   7.007  12.989 -0.5205 -0.3461  0.0129
  190DOPC    HY23420   2.169   6.974  12.931  1.3625  0.9484 -1.3991
  190DOPC   O3123421   2.170   7.024  13.138  0.0532  0.1000 -0.0150
  190DOPC   C3123422   2.209   6.924  13.205 -0.2954  0.3651 -0.6736
  190DOPC   O3223423   2.291   6.839  13.174 -0.6194  0.1842 -0.1668
  190DOPC   C3223424   2.152   6.934  13.349 -0.4849  0.1628  0.4000
  190DOPC   H2X23425   2.227   6.985  13.413  0.1821 -0.7173  0.3379
  190DOPC   H2Y23426   2.068   7.006  13.351  0.2358  1.0471  3.0127
  190DOPC   C2323427   2.358   7.589  13.187 -0.0381  0.3463 -0.4102
  190DOPC   H3R23428   2.248   7.583  13.204  0.0679 -1.7292 -0.1055
  190DOPC   H3S23429   2.390   7.660  13.109  0.7913  0.3800 -0.0541
  190DOPC   C2423430   2.438   7.611  13.315 -0.3244 -0.5033  0.1514
  190DOPC   H4R23431   2.545   7.608  13.285 -0.3238 -0.4501  0.1487
  190DOPC   H4S23432   2.413   7.539  13.395  3.1624 -1.4170  0.5564
  190DOPC   C2523433   2.404   7.748  13.377 -0.4258  0.1213 -0.5100
  190DOPC   H5R23434   2.300   7.748  13.416  0.2002 -0.9854  1.2598
  190DOPC   H5S23435   2.421   7.830  13.304  2.7691 -0.4443 -0.5512
  190DOPC   C2623436   2.484   7.792  13.503 -0.6494  0.2713 -0.3200
  190DOPC   H6R23437   2.474   7.709  13.576 -0.9145 -0.7228 -1.4431
  190DOPC   H6S23438   2.436   7.876  13.556 -1.5568  0.2087 -1.0226
  190DOPC   C2723439   2.626   7.835  13.466 -0.0621 -0.4865  0.2348
  190DOPC   H7R23440   2.627   7.907  13.381  1.0229 -0.2642  0.4235
  190DOPC   H7S23441   2.683   7.747  13.429 -1.0131 -0.6917 -0.8013
  190DOPC   C2823442   2.715   7.894  13.583  0.5528 -0.0536  0.6899
  190DOPC   H8R23443   2.763   7.811  13.640 -2.5632 -2.6226 -0.1023
  190DOPC   H8S23444   2.648   7.955  13.647  2.1768  0.9395  1.5164
  190DOPC   C2923445   2.806   7.997  13.520  0.1821  0.3093 -0.8360
  190DOPC   H9R23446   2.751   8.086  13.488  0.8568 -0.1635 -3.5451
  190DOPC  C21023447   2.931   7.989  13.478  0.0052 -0.5237 -1.7600
  190DOPC  H10R23448   2.976   8.081  13.438 -0.6478  1.1038  1.0160
  190DOPC  C21123449   3.015   7.866  13.487 -0.1807 -0.1234 -0.2546
  190DOPC  H11R23450   3.059   7.845  13.388  1.3403 -1.0307  0.5704
  190DOPC  H11S23451   2.961   7.772  13.510  1.0693 -0.2726  2.4697
  190DOPC  C21223452   3.122   7.891  13.594 -0.2248  0.1980  0.1808
  190DOPC  H12R23453   3.076   7.874  13.693 -0.6132  0.7273  0.0926
  190DOPC  H12S23454   3.158   7.996  13.593  0.0486  0.1132 -1.0678
  190DOPC  C21323455   3.244   7.793  13.577  0.8410 -0.1815  0.0111
  190DOPC  H13R23456   3.321   7.816  13.654  2.5201  0.2139 -1.7072
  190DOPC  H13S23457   3.287   7.813  13.477 -1.3705 -1.1623 -1.2098
  190DOPC  C21423458   3.208   7.642  13.587 -0.2647 -0.0998 -0.2354
  190DOPC  H14R23459   3.138   7.601  13.511 -0.0833 -1.9556  0.5470
  190DOPC  H14S23460   3.162   7.621  13.686  0.7319  1.4112  0.5824
  190DOPC  C21523461   3.347   7.570  13.571 -0.1813  0.8182  0.7059
  190DOPC  H15R23462   3.419   7.597  13.651 -0.3103  0.5711  0.9048
  190DOPC  H15S23463   3.383   7.599  13.469 -0.5114  2.2021  0.9570
  190DOPC  C21623464   3.335   7.420  13.565  0.1327  0.2330  0.4941
  190DOPC  H16R23465   3.247   7.398  13.502  0.1481  1.4893  0.0004
  190DOPC  H16S23466   3.319   7.374  13.665 -0.6570 -0.7422 -0.0728
  190DOPC  C21723467   3.463   7.362  13.508 -0.4156 -0.3608  0.0974
  190DOPC  H17R23468   3.545   7.396  13.576 -1.4005 -0.4975  1.3845
  190DOPC  H17S23469   3.498   7.400  13.409  3.3100 -0.8980  1.0570
  190DOPC  C21823470   3.462   7.209  13.509 -0.3083 -0.8016 -0.8543
  190DOPC  H18R23471   3.358   7.172  13.517 -0.3216 -0.4370  1.0066
  190DOPC  H18S23472   3.508   7.164  13.599  2.0130  0.1439 -1.4903
  190DOPC  H18T23473   3.521   7.172  13.422  1.4434  0.5153 -0.2818
  190DOPC   C3323474   2.116   6.797  13.415 -0.4208 -0.2153 -0.4279
  190DOPC   H3X23475   2.087   6.812  13.521 -2.4230  1.2708 -1.1304
  190DOPC   H3Y23476   2.204   6.728  13.415 -1.8282 -2.1402  0.9900
  190DOPC   C3423477   1.993   6.733  13.353 -0.5694  1.0255 -0.5205
  190DOPC   H4X23478   1.977   6.643  13.416  0.0173  1.3268  0.0740
  190DOPC   H4Y23479   2.021   6.700  13.250 -1.3398  2.2295 -1.1369
  190DOPC   C3523480   1.855   6.800  13.342 -0.6791  0.0927 -0.0368
  190DOPC   H5X23481   1.788   6.733  13.286  1.0345 -1.5289 -0.2638
  190DOPC   H5Y23482   1.865   6.891  13.278 -1.7218  1.6626  1.9296
  190DOPC   C3623483   1.801   6.825  13.481  0.4460 -0.3309 -0.0532
  190DOPC   H6X23484   1.828   6.744  13.552  0.4653  0.7508  1.2053
  190DOPC   H6Y23485   1.836   6.922  13.522 -1.8711 -0.1685  1.7177
  190DOPC   C3723486   1.645   6.847  13.467  0.5545  0.4266  0.4904
  190DOPC   H7X23487   1.627   6.895  13.368 -0.9455 -1.2156 -0.0819
  190DOPC   H7Y23488   1.596   6.749  13.454  0.8429  0.3250  0.1403
  190DOPC   C3823489   1.595   6.927  13.589  0.3369 -0.1418  0.1127
  190DOPC   H8X23490   1.651   6.893  13.679 -1.6680 -0.3605  1.3312
  190DOPC   H8Y23491   1.488   6.907  13.610  0.3650  0.4663  0.8627
  190DOPC   C3923492   1.605   7.072  13.570 -1.2805 -0.2477 -0.4424
  190DOPC   H9X23493   1.537   7.113  13.494 -1.2057  0.6379 -0.0431
  190DOPC  C31023494   1.694   7.157  13.623 -0.3055 -0.4520  0.1429
  190DOPC  H10X23495   1.670   7.265  13.622  1.6539  0.0167 -0.6410
  190DOPC  C31123496   1.798   7.130  13.717  0.1040  0.1603  0.5842
  190DOPC  H11X23497   1.898   7.161  13.679  0.4888 -2.0499 -0.3556
  190DOPC  H11Y23498   1.810   7.020  13.711  0.6734  0.2637 -0.2894
  190DOPC  C31223499   1.780   7.162  13.862 -0.3403 -0.5758 -0.7350
  190DOPC  H12X23500   1.769   7.268  13.892 -1.7101 -1.6793  3.1729
  190DOPC  H12Y23501   1.866   7.114  13.912  0.2504  1.8905  0.8108
  190DOPC  C31323502   1.656   7.091  13.922  0.0256  0.3972 -0.5249
  190DOPC  H13X23503   1.555   7.130  13.898 -0.4460  0.2189  1.0712
  190DOPC  H13Y23504   1.661   6.987  13.885  2.4584 -0.4773  1.9550
  190DOPC  C31423505   1.664   7.076  14.077 -0.0974 -0.6515 -0.1800
  190DOPC  H14X23506   1.752   7.011  14.098 -1.0090 -1.1604  2.5033
  190DOPC  H14Y23507   1.682   7.171  14.130 -0.0959 -0.4583 -0.5253
  190DOPC  C31523508   1.529   7.020  14.131 -0.4222 -0.1449  0.6209
  190DOPC  H15X23509   1.512   6.919  14.090 -2.7055  0.9045 -1.3118
  190DOPC  H15Y23510   1.442   7.080  14.094  0.2899  0.4063 -0.2267
  190DOPC  C31623511   1.515   7.016  14.284  0.3889  0.1671 -0.1039
  190DOPC  H16X23512   1.604   6.974  14.335 -0.1912  2.3587  2.9438
  190DOPC  H16Y23513   1.512   7.123  14.312  1.0219  0.3691 -0.7941
  190DOPC  C31723514   1.387   6.953  14.326  0.0654  0.6113  0.1070
  190DOPC  H17X23515   1.302   7.012  14.284  0.0340  0.2137 -0.4026
  190DOPC  H17Y23516   1.391   6.855  14.274  1.8762  1.2609 -1.0436
  190DOPC  C31823517   1.364   6.930  14.478 -0.1275 -0.6737  0.1073
  190DOPC  H18X23518   1.453   6.876  14.515  0.3131 -0.6557 -0.8902
  190DOPC  H18Y23519   1.353   7.025  14.534 -1.2097 -0.2851 -0.7301
  190DOPC  H18Z23520   1.275   6.868  14.503 -0.5841  0.5184  1.6112
  191DOPC     N23521   4.637   6.780  12.356  0.1303  0.2035  0.0364
  191DOPC   C1223522   4.722   6.882  12.280  0.2415  0.2336 -0.4225
  191DOPC  H12A23523   4.668   6.969  12.246 -0.2706 -1.2493 -3.8614
  191DOPC  H12B23524   4.762   6.834  12.191  1.4905  0.2396  0.1186
  191DOPC   C1323525   4.583   6.842  12.486  0.0358  0.1934 -0.2624
  191DOPC  H13A23526   4.556   6.758  12.549  1.2110 -1.9284 -2.4279
  191DOPC  H13B23527   4.670   6.894  12.524  0.8277 -0.0499 -1.6849
  191DOPC  H13C23528   4.503   6.914  12.478 -1.1561 -0.9845  0.4459
  191DOPC   C1423529   4.716   6.659  12.389 -0.1966 -0.5307  0.3027
  191DOPC  H14A23530   4.800   6.675  12.456  0.1459  0.6063 -0.3678
  191DOPC  H14B23531   4.648   6.587  12.432  1.2155 -1.7152  0.6383
  191DOPC  H14C23532   4.754   6.613  12.299 -2.4322 -1.9469  0.0072
  191DOPC   C1523533   4.516   6.721  12.284 -0.7760 -0.4977 -0.4898
  191DOPC  H15A23534   4.551   6.644  12.216  1.8555 -0.9187  1.1606
  191DOPC  H15B23535   4.455   6.799  12.242  1.7684  1.6425 -0.4870
  191DOPC  H15C23536   4.455   6.674  12.360 -0.1366  0.3666  0.5866
  191DOPC   C1123537   4.842   6.938  12.359  0.4287  0.0711 -0.1172
  191DOPC  H11A23538   4.920   6.866  12.394  1.8980  1.9649  0.6657
  191DOPC  H11B23539   4.912   6.985  12.286  1.3921 -0.5139  0.4025
  191DOPC     P23540   4.906   7.102  12.548 -0.4681  0.1052 -0.4677
  191DOPC   O1323541   5.042   7.076  12.505  0.2707  0.1679 -0.1432
  191DOPC   O1423542   4.887   7.071  12.690 -0.3093 -0.3617  0.1988
  191DOPC   O1223543   4.796   7.032  12.465 -0.2444  0.2915  0.3437
  191DOPC   O1123544   4.874   7.247  12.516  0.3789  0.2184  0.1512
  191DOPC    C123545   4.748   7.304  12.553  0.2676 -0.4232 -0.8978
  191DOPC    HA23546   4.661   7.238  12.529 -3.0860  2.9938  0.8603
  191DOPC    HB23547   4.725   7.394  12.492  1.2817  0.8444  0.5389
  191DOPC    C223548   4.736   7.337  12.702 -0.5232 -0.0406 -0.6950
  191DOPC    HS23549   4.756   7.250  12.768 -0.4568 -0.5862 -1.4240
  191DOPC   O2123550   4.600   7.386  12.727  0.4028  0.2146 -0.0554
  191DOPC   C2123551   4.569   7.396  12.856  0.1528 -0.0179  0.3067
  191DOPC   O2223552   4.648   7.375  12.947 -0.3548  0.6864 -0.1340
  191DOPC   C2223553   4.433   7.450  12.869 -0.1470  0.6479 -0.2822
  191DOPC   H2R23554   4.361   7.390  12.810 -0.1941 -0.6868  1.1008
  191DOPC   H2S23555   4.428   7.557  12.837 -0.5281  0.8819  0.5381
  191DOPC    C323556   4.838   7.449  12.745 -0.7480  0.5378  0.5681
  191DOPC    HX23557   4.840   7.454  12.856  1.0711  1.1988  0.5512
  191DOPC    HY23558   4.796   7.544  12.706 -1.2536 -1.1962 -3.6173
  191DOPC   O3123559   4.978   7.432  12.701 -0.0242  0.5950  0.3847
  191DOPC   C3123560   5.026   7.504  12.605 -0.0521 -0.6491 -0.4023
  191DOPC   O3223561   4.966   7.583  12.533  0.2364  0.0278  0.1313
  191DOPC   C3223562   5.178   7.483  12.596 -0.5064  0.3336 -0.3540
  191DOPC   H2X23563   5.206   7.396  12.659 -3.0689 -0.0512  0.3733
  191DOPC   H2Y23564   5.199   7.448  12.492  0.7666 -0.1143  0.0464
  191DOPC   C2323565   4.368   7.462  13.013 -0.2711 -0.5151  0.1156
  191DOPC   H3R23566   4.272   7.514  12.995 -0.3746 -1.1787 -1.4058
  191DOPC   H3S23567   4.437   7.525  13.072  1.8690 -2.7345  0.1599
  191DOPC   C2423568   4.355   7.324  13.086  0.7622 -0.4124  0.0428
  191DOPC   H4R23569   4.307   7.349  13.183  2.1112  0.5589  0.4927
  191DOPC   H4S23570   4.453   7.279  13.112  0.3141 -1.8389 -0.6235
  191DOPC   C2523571   4.277   7.213  13.013 -0.5914  0.3028  0.0963
  191DOPC   H5R23572   4.346   7.165  12.941  0.2269 -1.5618  1.9976
  191DOPC   H5S23573   4.193   7.258  12.956 -2.2117 -1.3701  1.0306
  191DOPC   C2623574   4.226   7.110  13.117 -0.2469  0.3622  0.5039
  191DOPC   H6R23575   4.161   7.178  13.175  1.2428  3.2388 -1.0062
  191DOPC   H6S23576   4.308   7.081  13.186  0.0773  0.0601  0.0018
  191DOPC   C2723577   4.159   6.990  13.053  0.2327 -0.4597  0.1205
  191DOPC   H7R23578   4.230   6.941  12.984 -0.1572  0.7345 -1.1834
  191DOPC   H7S23579   4.078   7.029  12.988 -0.7367  1.8695  2.5082
  191DOPC   C2823580   4.112   6.884  13.155  0.4768  0.0486 -0.6223
  191DOPC   H8R23581   4.201   6.834  13.201  0.0717  0.7565  1.0165
  191DOPC   H8S23582   4.050   6.812  13.099 -1.2040  1.2544 -0.3694
  191DOPC   C2923583   4.021   6.935  13.263 -0.1717  0.6999 -0.2428
  191DOPC   H9R23584   3.939   6.990  13.214 -0.7984  0.0561  0.0660
  191DOPC  C21023585   4.029   6.935  13.398  0.2637 -0.5118  0.2165
  191DOPC  H10R23586   3.951   6.993  13.451  0.1790 -0.5820  0.1682
  191DOPC  C21123587   4.136   6.878  13.486 -0.4866 -0.2995 -0.1453
  191DOPC  H11R23588   4.220   6.836  13.426  1.8312  3.0470  0.4440
  191DOPC  H11S23589   4.085   6.803  13.549 -0.7768  0.7802  0.9324
  191DOPC  C21223590   4.188   6.988  13.585 -0.5930 -0.2436  0.5584
  191DOPC  H12R23591   4.222   6.936  13.676 -0.6245 -2.4515 -0.6290
  191DOPC  H12S23592   4.103   7.059  13.596  0.0198  1.2073 -2.6815
  191DOPC  C21323593   4.292   7.087  13.527 -0.2798 -0.7176 -0.5142
  191DOPC  H13R23594   4.261   7.124  13.427  0.3280 -0.1642 -0.5071
  191DOPC  H13S23595   4.390   7.034  13.526  0.2900  0.3001 -0.2012
  191DOPC  C21423596   4.305   7.218  13.617  0.1370 -0.1453 -0.1101
  191DOPC  H14R23597   4.307   7.192  13.725  0.0400 -0.1032 -0.0978
  191DOPC  H14S23598   4.217   7.277  13.581  0.2044 -0.8945 -1.5689
  191DOPC  C21523599   4.434   7.303  13.588 -0.0938 -0.1683 -0.2075
  191DOPC  H15R23600   4.524   7.237  13.581  0.1103  0.2497 -2.1576
  191DOPC  H15S23601   4.445   7.380  13.668  0.3544  0.1255 -0.5405
  191DOPC  C21623602   4.441   7.370  13.450 -0.2859 -0.3875 -0.0533
  191DOPC  H16R23603   4.352   7.436  13.447 -1.2402 -1.4803  1.8984
  191DOPC  H16S23604   4.425   7.292  13.373  3.7761 -2.1146  0.6098
  191DOPC  C21723605   4.570   7.450  13.424  0.4594  0.1716 -0.5565
  191DOPC  H17R23606   4.553   7.560  13.430 -1.4046  0.0120 -1.9382
  191DOPC  H17S23607   4.587   7.443  13.314 -1.3231  1.1943 -0.9434
  191DOPC  C21823608   4.694   7.414  13.513 -0.5062  1.0546 -0.2120
  191DOPC  H18R23609   4.689   7.464  13.612  1.2409 -0.9870  0.9974
  191DOPC  H18S23610   4.792   7.449  13.476  0.9247 -1.0007  1.4459
  191DOPC  H18T23611   4.707   7.304  13.518 -1.8790  0.7104 -2.4071
  191DOPC   C3323612   5.260   7.610  12.627  0.2538  0.9304 -0.2912
  191DOPC   H3X23613   5.238   7.692  12.556 -0.7999  0.5920 -0.3804
  191DOPC   H3Y23614   5.365   7.582  12.604 -0.4772 -1.5232 -0.9484
  191DOPC   C3423615   5.253   7.672  12.775  0.4302 -1.0428  0.2830
  191DOPC   H4X23616   5.145   7.684  12.800  0.7149  0.6637  0.7896
  191DOPC   H4Y23617   5.296   7.774  12.781  0.1479 -0.9632  1.2858
  191DOPC   C3523618   5.335   7.590  12.880  0.0704  0.2225 -0.0799
  191DOPC   H5X23619   5.443   7.586  12.854  0.1084 -0.0157  0.1151
  191DOPC   H5Y23620   5.296   7.486  12.879 -1.9476  0.9169 -1.4515
  191DOPC   C3623621   5.310   7.631  13.027 -0.5223 -0.6135 -0.3483
  191DOPC   H6X23622   5.383   7.576  13.090 -0.4883  0.5489  0.6762
  191DOPC   H6Y23623   5.333   7.739  13.038  0.9123 -0.9731  0.4885
  191DOPC   C3723624   5.165   7.601  13.075 -0.0661 -0.3925 -0.1727
  191DOPC   H7X23625   5.156   7.621  13.184 -2.1869 -2.2504  0.0638
  191DOPC   H7Y23626   5.087   7.665  13.029  1.4987  0.9017 -1.1480
  191DOPC   C3823627   5.117   7.454  13.069 -0.2456 -0.2810 -0.9357
  191DOPC   H8X23628   5.203   7.391  13.103 -1.5346 -1.3687  0.4369
  191DOPC   H8Y23629   5.106   7.422  12.964 -0.5007 -1.9416 -0.4321
  191DOPC   C3923630   4.984   7.434  13.140 -0.3940  0.4467  0.2463
  191DOPC   H9X23631   4.895   7.481  13.097 -2.1761 -1.7097  1.3879
  191DOPC  C31023632   4.976   7.374  13.256 -0.4941 -0.1427 -0.0700
  191DOPC  H10X23633   4.875   7.377  13.300 -0.1541  0.9454  0.7013
  191DOPC  C31123634   5.088   7.319  13.335 -0.1951  0.2188  0.2841
  191DOPC  H11X23635   5.188   7.357  13.305 -0.8241  0.4071 -1.7771
  191DOPC  H11Y23636   5.097   7.211  13.313  0.6802  0.4155 -0.3579
  191DOPC  C31223637   5.061   7.350  13.477  0.2217  1.0516  0.6874
  191DOPC  H12X23638   4.958   7.317  13.499 -0.8717  1.0473 -3.6151
  191DOPC  H12Y23639   5.086   7.456  13.498  0.7606  0.8323  1.2078
  191DOPC  C31323640   5.155   7.268  13.573  0.2153 -0.2918  0.1495
  191DOPC  H13X23641   5.142   7.162  13.545  0.9490 -0.5027  0.5673
  191DOPC  H13Y23642   5.257   7.312  13.559  0.6048 -0.5793  1.8838
  191DOPC  C31423643   5.108   7.277  13.717 -0.8036 -0.0910 -0.2957
  191DOPC  H14X23644   5.026   7.204  13.730 -0.0735 -1.0289 -0.8082
  191DOPC  H14Y23645   5.185   7.241  13.789 -2.2889  0.6069  1.7407
  191DOPC  C31523646   5.063   7.417  13.754  0.5569  0.7411  0.6856
  191DOPC  H15X23647   4.964   7.436  13.709  1.2198 -0.6867 -1.4961
  191DOPC  H15Y23648   5.138   7.486  13.708 -0.2027 -0.3649 -2.4530
  191DOPC  C31623649   5.040   7.426  13.906 -0.4460  0.3704 -0.0458
  191DOPC  H16X23650   5.147   7.422  13.935  0.1234  0.0799 -2.0238
  191DOPC  H16Y23651   4.996   7.526  13.927 -0.1973  1.0513 -2.4528
  191DOPC  C31723652   4.964   7.311  13.978  0.4611 -0.2171 -0.0187
  191DOPC  H17X23653   5.021   7.217  13.957 -0.7945 -1.1135  0.5079
  191DOPC  H17Y23654   4.977   7.332  14.086  2.0988 -1.1583  0.0165
  191DOPC  C31823655   4.828   7.318  13.932 -0.1469 -0.1301  0.0690
  191DOPC  H18X23656   4.763   7.239  13.974 -1.5360  1.4816  1.0732
  191DOPC  H18Y23657   4.785   7.418  13.954  0.5977 -0.1728  1.8374
  191DOPC  H18Z23658   4.825   7.310  13.821  1.6979 -1.9894  0.0859
  192DOPC     N23659   0.485   5.729  11.926  0.6437  0.4455  0.1686
  192DOPC   C1223660   0.363   5.778  12.001  0.8573  0.3598  0.8855
  192DOPC  H12A23661   0.294   5.824  11.932  0.8644 -0.7269  0.1271
  192DOPC  H12B23662   0.396   5.851  12.074  0.1043  0.1903  1.4155
  192DOPC   C1323663   0.438   5.627  11.824  0.0782  0.7359 -0.0026
  192DOPC  H13A23664   0.345   5.659  11.780  1.5144  0.5677 -3.4987
  192DOPC  H13B23665   0.515   5.605  11.751  2.3460 -1.5164  2.8339
  192DOPC  H13C23666   0.417   5.534  11.875 -1.5044  0.1562 -1.6158
  192DOPC   C1423667   0.599   5.673  12.016 -0.0476  0.7382  0.7295
  192DOPC  H14A23668   0.692   5.652  11.965  0.0109  0.6633  0.8638
  192DOPC  H14B23669   0.592   5.735  12.104 -0.3418 -0.5909  1.6726
  192DOPC  H14C23670   0.576   5.578  12.063  1.5026  0.1365  0.3433
  192DOPC   C1523671   0.547   5.842  11.843 -0.3131 -0.2018  0.3215
  192DOPC  H15A23672   0.476   5.888  11.775 -2.7531 -0.9288  2.2110
  192DOPC  H15B23673   0.625   5.800  11.783  1.5499  0.3606  2.2326
  192DOPC  H15C23674   0.600   5.912  11.906  0.9103 -2.2350  1.6472
  192DOPC   C1123675   0.294   5.668  12.102  0.2373 -0.0272 -0.1347
  192DOPC  H11A23676   0.201   5.718  12.135 -0.7176 -0.8987 -1.4206
  192DOPC  H11B23677   0.265   5.576  12.047  1.8158 -0.2176 -0.7220
  192DOPC     P23678   0.408   5.745  12.316 -0.1111 -0.1246  0.2028
  192DOPC   O1323679   0.328   5.867  12.284 -0.7722  0.1592 -0.0461
  192DOPC   O1423680   0.557   5.764  12.328  0.3172  0.6681 -0.3426
  192DOPC   O1223681   0.375   5.633  12.214  0.0174  0.6958  0.4052
  192DOPC   O1123682   0.354   5.678  12.453 -0.2745  0.2630  0.4066
  192DOPC    C123683   0.223   5.625  12.467 -0.4435  0.1053 -0.7136
  192DOPC    HA23684   0.169   5.594  12.375  0.0255 -0.0364 -0.9448
  192DOPC    HB23685   0.160   5.705  12.512 -1.1338 -2.1147  2.6757
  192DOPC    C223686   0.216   5.499  12.560  0.2341 -0.8834 -0.0166
  192DOPC    HS23687   0.117   5.450  12.554  0.3233 -1.4072  2.1382
  192DOPC   O2123688   0.246   5.539  12.696 -0.3038  0.0011 -0.3303
  192DOPC   C2123689   0.143   5.577  12.770  0.4028 -0.1535 -0.4536
  192DOPC   O2223690   0.027   5.587  12.736  0.4396 -0.4870 -0.0985
  192DOPC   C2223691   0.196   5.613  12.909 -0.5281  0.1662 -0.2342
  192DOPC   H2R23692   0.182   5.724  12.913  0.2135  0.3005  5.0033
  192DOPC   H2S23693   0.303   5.591  12.924 -0.6065 -4.0635 -3.8314
  192DOPC    C323694   0.324   5.401  12.503 -0.3715 -0.0175  0.2054
  192DOPC    HX23695   0.427   5.442  12.506  0.3433 -1.7886  1.6882
  192DOPC    HY23696   0.283   5.376  12.402 -2.1068  2.7031  0.1362
  192DOPC   O3123697   0.330   5.282  12.583 -0.5801 -0.1820 -0.2721
  192DOPC   C3123698   0.221   5.195  12.573 -0.9343 -0.4476 -0.1752
  192DOPC   O3223699   0.126   5.213  12.495  0.8072 -0.0392  0.0490
  192DOPC   C3223700   0.230   5.087  12.683  0.4391 -0.8496  0.2162
  192DOPC   H2X23701   0.136   5.029  12.674 -1.4783  2.1269 -0.6146
  192DOPC   H2Y23702   0.318   5.027  12.654  0.0778 -0.0312 -2.9447
  192DOPC   C2323703   0.111   5.536  13.014  0.0468  0.5040  0.2117
  192DOPC   H3R23704   0.114   5.425  13.014 -2.4038  0.3884  0.3936
  192DOPC   H3S23705   0.008   5.577  13.011  0.7063  2.2826  0.4498
  192DOPC   C2423706   0.154   5.560  13.167  0.5246  0.3441 -0.3748
  192DOPC   H4R23707   0.089   5.490  13.225  1.7344  0.0710  0.7058
  192DOPC   H4S23708   0.137   5.661  13.211 -0.5192 -0.6776  1.7205
  192DOPC   C2523709   0.298   5.519  13.213  0.5128 -0.5287 -0.0462
  192DOPC   H5R23710   0.372   5.559  13.140  1.2488 -0.1473  0.8849
  192DOPC   H5S23711   0.302   5.408  13.221 -0.3602 -0.5412  0.3382
  192DOPC   C2623712   0.346   5.560  13.353  0.1333  0.8014  0.3972
  192DOPC   H6R23713   0.352   5.670  13.360 -1.2634  0.8525  1.0907
  192DOPC   H6S23714   0.447   5.516  13.371 -0.0126 -0.9089 -2.4067
  192DOPC   C2723715   0.257   5.521  13.475 -0.2378 -0.7828  0.1325
  192DOPC   H7R23716   0.280   5.418  13.511  1.6352 -0.0445  1.1886
  192DOPC   H7S23717   0.152   5.528  13.439 -1.0746  1.5548  2.6667
  192DOPC   C2823718   0.255   5.616  13.594 -0.0532 -0.1199 -0.0357
  192DOPC   H8R23719   0.172   5.581  13.658 -0.2196 -2.5663 -1.4911
  192DOPC   H8S23720   0.231   5.720  13.562  0.2383  0.7821  2.4713
  192DOPC   C2923721   0.389   5.607  13.667  0.4040  0.2853 -0.3825
  192DOPC   H9R23722   0.472   5.672  13.637 -0.5973  1.0864 -1.4807
  192DOPC  C21023723   0.411   5.541  13.784 -0.2045 -0.1238  0.3706
  192DOPC  H10R23724   0.513   5.514  13.815 -0.0194  0.6416  0.4560
  192DOPC  C21123725   0.316   5.465  13.862 -0.1444 -0.1319  0.6874
  192DOPC  H11R23726   0.345   5.359  13.842  0.3107  0.0565  0.3250
  192DOPC  H11S23727   0.211   5.478  13.829  0.1994 -1.5939 -1.1168
  192DOPC  C21223728   0.334   5.507  14.015 -0.3024  0.1932 -0.4840
  192DOPC  H12R23729   0.301   5.613  14.020 -1.6051 -0.2536  1.4549
  192DOPC  H12S23730   0.439   5.501  14.050 -0.2820  1.2026 -0.3486
  192DOPC  C21323731   0.241   5.430  14.114 -0.2402  0.5558 -0.5604
  192DOPC  H13R23732   0.144   5.433  14.060  0.2470 -1.2908 -1.6331
  192DOPC  H13S23733   0.238   5.477  14.215 -2.1444 -1.3020  0.3053
  192DOPC  C21423734   0.271   5.280  14.133 -0.3002  0.1389 -0.4848
  192DOPC  H14R23735   0.354   5.256  14.203 -1.3245  1.5556  1.3056
  192DOPC  H14S23736   0.299   5.233  14.036  1.7853 -0.8106  0.5126
  192DOPC  C21523737   0.140   5.208  14.173 -0.5247 -0.5031  0.2630
  192DOPC  H15R23738   0.145   5.099  14.153  1.7356 -0.1413 -1.6197
  192DOPC  H15S23739   0.057   5.258  14.118 -1.1960 -0.1524  1.5539
  192DOPC  C21623740   0.115   5.238  14.324 -0.0521  0.2642  0.7022
  192DOPC  H16R23741   0.111   5.348  14.339  1.0070  0.0415  2.9410
  192DOPC  H16S23742   0.205   5.201  14.377  0.8476 -0.6734 -1.3350
  192DOPC  C21723743  -0.017   5.181  14.376  0.1635 -0.1503  0.1876
  192DOPC  H17R23744  -0.000   5.074  14.352  1.0305  0.5142 -2.5209
  192DOPC  H17S23745  -0.100   5.218  14.313 -1.0392 -3.7587 -0.5461
  192DOPC  C21823746  -0.046   5.199  14.527 -0.6643  0.3541 -0.1278
  192DOPC  H18R23747  -0.138   5.140  14.543 -1.7556  1.0520 -3.1187
  192DOPC  H18S23748  -0.063   5.306  14.549  1.1960  0.3333  1.7593
  192DOPC  H18T23749   0.035   5.159  14.591 -1.2639  0.5039  0.7362
  192DOPC   C3323750   0.224   5.157  12.820 -0.4838 -0.8602 -0.0294
  192DOPC   H3X23751   0.145   5.235  12.816  1.1536  0.9127  0.4614
  192DOPC   H3Y23752   0.310   5.225  12.835 -0.3102 -1.3720  1.5198
  192DOPC   C3423753   0.183   5.062  12.930  0.0734 -0.9446  0.5608
  192DOPC   H4X23754   0.274   4.999  12.937  0.9033  0.2132  0.4835
  192DOPC   H4Y23755   0.098   4.996  12.903 -0.2293 -0.9092  1.3952
  192DOPC   C3523756   0.161   5.124  13.065  0.1015 -0.3234 -0.7372
  192DOPC   H5X23757   0.070   5.187  13.056  0.4816  0.1183 -1.6963
  192DOPC   H5Y23758   0.246   5.178  13.112  0.2478 -0.8656 -0.3733
  192DOPC   C3623759   0.132   5.016  13.176  0.2681 -0.3314  0.0387
  192DOPC   H6X23760   0.091   4.922  13.135  0.5506 -0.5592  0.2794
  192DOPC   H6Y23761   0.233   4.991  13.216 -0.0818 -1.5969  0.1592
  192DOPC   C3723762   0.046   5.072  13.293  0.8110  0.8626 -0.2722
  192DOPC   H7X23763  -0.055   5.103  13.260 -0.1969  0.3156  2.1060
  192DOPC   H7Y23764   0.036   4.988  13.366 -1.2072 -0.5121 -2.0019
  192DOPC   C3823765   0.096   5.198  13.375  0.4309 -0.1027 -0.3867
  192DOPC   H8X23766   0.083   5.289  13.313 -1.0926  0.5649  0.8278
  192DOPC   H8Y23767   0.205   5.189  13.395  0.4901  2.0990  0.6693
  192DOPC   C3923768   0.019   5.229  13.505  0.4215 -0.9121  0.0114
  192DOPC   H9X23769  -0.085   5.260  13.491  1.1591  1.8005  0.0281
  192DOPC  C31023770   0.070   5.212  13.628 -0.3518  0.3826 -0.2092
  192DOPC  H10X23771   0.004   5.238  13.712 -1.1891 -2.5890  0.1392
  192DOPC  C31123772   0.211   5.160  13.653 -0.1669  0.2141  0.2027
  192DOPC  H11X23773   0.291   5.237  13.642 -0.9596  1.0189 -0.1284
  192DOPC  H11Y23774   0.235   5.086  13.574 -0.1036  0.6658 -0.2113
  192DOPC  C31223775   0.213   5.082  13.784  0.1807  0.5615 -0.2082
  192DOPC  H12X23776   0.140   4.998  13.777  0.1858  0.3164  1.9818
  192DOPC  H12Y23777   0.178   5.145  13.869 -0.7026  1.6608 -1.3439
  192DOPC  C31323778   0.350   5.020  13.808  0.0104 -0.0277 -0.2657
  192DOPC  H13X23779   0.358   4.933  13.739 -1.2985  0.4229 -1.0336
  192DOPC  H13Y23780   0.430   5.092  13.782 -0.0941  0.1351 -0.1404
  192DOPC  C31423781   0.349   4.959  13.947  0.6057  0.0583  0.3544
  192DOPC  H14X23782   0.358   5.043  14.019 -1.0906  1.3804 -0.9005
  192DOPC  H14Y23783   0.257   4.906  13.977  1.4159 -0.7023  1.6016
  192DOPC  C31523784   0.464   4.860  13.967 -0.1028 -0.2999  0.5969
  192DOPC  H15X23785   0.562   4.910  13.951  0.4994 -1.6815 -0.3013
  192DOPC  H15Y23786   0.458   4.780  13.890 -1.0825 -1.8895  2.2607
  192DOPC  C31623787   0.470   4.777  14.096  0.4471 -0.0212  0.8470
  192DOPC  H16X23788   0.479   4.854  14.176  2.1979  1.6896 -0.9071
  192DOPC  H16Y23789   0.368   4.734  14.105 -0.3768  1.6865  0.1855
  192DOPC  C31723790   0.589   4.682  14.099  0.0691 -0.1784 -0.4973
  192DOPC  H17X23791   0.589   4.610  14.184 -0.9047 -0.2884 -0.5753
  192DOPC  H17Y23792   0.571   4.627  14.004  2.0032 -2.3881  0.3235
  192DOPC  C31823793   0.726   4.750  14.099  0.3665  0.6071  0.8311
  192DOPC  H18X23794   0.713   4.855  14.133  1.2717  0.1179  2.8197
  192DOPC  H18Y23795   0.811   4.709  14.159  1.7939  2.2374  0.0180
  192DOPC  H18Z23796   0.771   4.733  13.999 -1.9908  0.2636 -0.2250
  193DOPC     N23797   0.100   2.170  11.811 -0.4317 -0.1652  0.3745
  193DOPC   C1223798   0.129   2.228  11.953  0.0276  0.2922  0.4184
  193DOPC  H12A23799   0.036   2.270  11.988  0.6079  2.2479 -0.2064
  193DOPC  H12B23800   0.199   2.310  11.944 -0.0337  0.5916  2.2901
  193DOPC   C1323801   0.086   2.279  11.711 -0.2715  0.3126 -0.0147
  193DOPC  H13A23802   0.181   2.324  11.684  0.9048 -3.3870 -2.8117
  193DOPC  H13B23803   0.048   2.245  11.616 -2.1898  1.8330  0.1570
  193DOPC  H13C23804   0.016   2.352  11.747  0.5704  1.2747 -0.2849
  193DOPC   C1423805  -0.034   2.103  11.814  0.2470 -0.0461  0.5838
  193DOPC  H14A23806  -0.044   2.064  11.914 -2.4469 -0.3501  0.2753
  193DOPC  H14B23807  -0.103   2.185  11.797  1.6048  0.9627 -0.3252
  193DOPC  H14C23808  -0.046   2.036  11.730  1.5715  1.3184 -0.7610
  193DOPC   C1523809   0.204   2.085  11.770 -0.9540  0.0648 -0.2676
  193DOPC  H15A23810   0.187   2.043  11.671 -4.6293 -1.5279  0.8313
  193DOPC  H15B23811   0.211   1.994  11.828  2.2507 -0.5764 -1.4632
  193DOPC  H15C23812   0.302   2.129  11.772 -0.4331 -0.8096 -2.6331
  193DOPC   C1123813   0.169   2.124  12.063  0.0671  0.6041  0.4220
  193DOPC  H11A23814   0.271   2.086  12.038 -0.6795 -0.5035 -1.0565
  193DOPC  H11B23815   0.168   2.187  12.154  0.8735 -0.0215  0.8814
  193DOPC     P23816   0.118   1.890  12.168  0.1095  0.1231 -0.5093
  193DOPC   O1323817   0.260   1.903  12.220  0.6092 -0.6390  0.3655
  193DOPC   O1423818   0.079   1.771  12.090 -0.2035 -0.5939 -0.2697
  193DOPC   O1223819   0.071   2.015  12.079 -0.4554  0.4192 -0.5231
  193DOPC   O1123820   0.014   1.911  12.283  0.3761 -0.0134  0.3052
  193DOPC    C123821   0.025   2.028  12.374  0.3302 -0.0654  0.0955
  193DOPC    HA23822  -0.077   2.071  12.370  0.4695  0.2653  0.0799
  193DOPC    HB23823   0.101   2.100  12.337  1.8945 -1.6144  0.1257
  193DOPC    C223824   0.081   1.984  12.516  0.0541 -0.4006  0.4322
  193DOPC    HS23825   0.192   1.980  12.507  0.0535 -1.0755  0.7265
  193DOPC   O2123826   0.011   1.869  12.561 -0.4173 -0.0520  0.1110
  193DOPC   C2123827   0.103   1.767  12.587  0.2818  0.4614  0.5040
  193DOPC   O2223828   0.218   1.774  12.558  0.5094  0.2378 -0.4478
  193DOPC   C2223829   0.030   1.645  12.651  0.3764 -0.3977 -0.3029
  193DOPC   H2R23830   0.037   1.558  12.581 -1.3263 -1.5344  0.8471
  193DOPC   H2S23831  -0.075   1.679  12.670  1.0354  0.8777  1.2705
  193DOPC    C323832   0.053   2.105  12.614  0.0052  0.5355  0.4630
  193DOPC    HX23833  -0.054   2.133  12.605 -0.1054  0.8810  2.4618
  193DOPC    HY23834   0.107   2.197  12.583  0.0727  0.4989  0.4700
  193DOPC   O3123835   0.087   2.069  12.749 -0.0719  0.6173 -0.5610
  193DOPC   C3123836   0.208   2.109  12.797 -0.0486 -0.4407 -0.2223
  193DOPC   O3223837   0.292   2.171  12.734 -0.6221 -0.4287 -0.2058
  193DOPC   C3223838   0.226   2.049  12.937  0.3354 -0.3586 -0.5177
  193DOPC   H2X23839   0.167   1.956  12.949 -1.4655  0.6989 -0.7598
  193DOPC   H2Y23840   0.332   2.015  12.937 -0.4707 -3.0419 -0.9089
  193DOPC   C2323841   0.102   1.607  12.776 -0.2433  0.4186  0.5179
  193DOPC   H3R23842   0.129   1.705  12.821  2.1946  0.0880 -0.0920
  193DOPC   H3S23843   0.184   1.539  12.746 -1.5034 -1.1316  0.4795
  193DOPC   C2423844   0.007   1.541  12.871  0.3912 -0.3733  0.3598
  193DOPC   H4R23845  -0.006   1.436  12.837  2.5410 -0.0654 -1.6076
  193DOPC   H4S23846  -0.094   1.587  12.873  0.6347  0.1592  1.0688
  193DOPC   C2523847   0.061   1.537  13.013 -0.1400  0.1406  0.0836
  193DOPC   H5R23848   0.081   1.633  13.066 -0.9767  0.4850 -0.1998
  193DOPC   H5S23849   0.162   1.495  12.997  0.4159  1.7248 -0.7673
  193DOPC   C2623850  -0.010   1.442  13.105 -0.0817 -0.0625 -1.0855
  193DOPC   H6R23851  -0.008   1.344  13.054  0.1586 -0.6277 -0.0135
  193DOPC   H6S23852  -0.113   1.473  13.135  0.1666 -1.3441  1.3372
  193DOPC   C2723853   0.085   1.420  13.226  0.7617 -0.0188  0.0017
  193DOPC   H7R23854   0.098   1.514  13.283  1.8101 -1.1161  1.6821
  193DOPC   H7S23855   0.186   1.377  13.207  0.1748 -2.5749  2.0069
  193DOPC   C2823856   0.022   1.330  13.334 -0.5671 -0.4021  0.3470
  193DOPC   H8R23857  -0.088   1.345  13.335 -0.7732 -1.7814  0.0153
  193DOPC   H8S23858   0.074   1.355  13.429  1.5476 -2.0320 -0.3044
  193DOPC   C2923859   0.033   1.186  13.297 -0.1529  0.7810 -0.1241
  193DOPC   H9R23860  -0.016   1.156  13.204  0.7039 -3.0704  0.5269
  193DOPC  C21023861   0.098   1.081  13.361 -0.5570  0.0845 -0.4609
  193DOPC  H10R23862   0.091   0.982  13.313 -0.0272 -0.0061 -0.3470
  193DOPC  C21123863   0.180   1.086  13.493  0.1462  0.5023 -0.5048
  193DOPC  H11R23864   0.188   1.193  13.522 -1.5993  0.2562  1.0481
  193DOPC  H11S23865   0.284   1.051  13.474 -0.1174 -0.2201 -0.6466
  193DOPC  C21223866   0.115   1.022  13.619 -0.3381 -0.2245 -0.3697
  193DOPC  H12R23867   0.097   0.916  13.591  2.1306 -0.1447 -2.7499
  193DOPC  H12S23868   0.020   1.075  13.640 -0.6264 -0.7893 -0.2612
  193DOPC  C21323869   0.200   1.010  13.741  0.3815 -0.0511 -0.2240
  193DOPC  H13R23870   0.256   1.105  13.755  0.4089  0.1940 -1.8136
  193DOPC  H13S23871   0.286   0.940  13.731 -0.2779 -0.9500  0.2474
  193DOPC  C21423872   0.116   0.979  13.868  0.0201  0.5459 -0.5485
  193DOPC  H14R23873   0.020   0.926  13.850  0.6806 -0.6466 -0.6857
  193DOPC  H14S23874   0.106   1.073  13.925  0.7913  0.2545  0.0857
  193DOPC  C21523875   0.212   0.883  13.958  0.1395 -0.3848  1.1221
  193DOPC  H15R23876   0.315   0.921  13.971  0.4191 -0.7767  0.1073
  193DOPC  H15S23877   0.227   0.786  13.907 -1.8025 -0.3991  0.4759
  193DOPC  C21623878   0.149   0.858  14.097 -0.4288  0.3095  0.1493
  193DOPC  H16R23879   0.191   0.764  14.139 -0.4828  0.6789  1.0557
  193DOPC  H16S23880   0.042   0.830  14.092 -0.4468  0.4847 -0.5199
  193DOPC  C21723881   0.161   0.988  14.174 -0.2482 -0.4641  0.1816
  193DOPC  H17R23882   0.091   1.066  14.138  1.7573  1.6381  0.6089
  193DOPC  H17S23883   0.264   1.026  14.158 -0.3616  0.3147  1.1986
  193DOPC  C21823884   0.149   0.985  14.326  0.0372 -0.3907  0.7020
  193DOPC  H18R23885   0.055   0.932  14.353  0.9805 -1.9062  1.1295
  193DOPC  H18S23886   0.158   1.088  14.366 -0.6672  0.5650 -1.4413
  193DOPC  H18T23887   0.226   0.919  14.371  0.5519 -0.0634  0.3132
  193DOPC   C3323888   0.190   2.155  13.047 -0.0765  0.2870  0.3360
  193DOPC   H3X23889   0.085   2.192  13.038 -0.0451  0.1179 -0.9024
  193DOPC   H3Y23890   0.253   2.247  13.046  0.2850  0.0411  0.3323
  193DOPC   C3423891   0.225   2.106  13.193  0.1877 -0.7203  0.6532
  193DOPC   H4X23892   0.228   2.195  13.260 -0.6526 -0.6445  0.6004
  193DOPC   H4Y23893   0.333   2.083  13.185 -0.0519 -1.4534 -0.8833
  193DOPC   C3523894   0.142   1.991  13.243 -0.0366  0.3656  0.0856
  193DOPC   H5X23895   0.172   1.902  13.183 -0.4917 -1.1157  1.9512
  193DOPC   H5Y23896   0.034   2.014  13.236 -0.0137  0.8513  1.1267
  193DOPC   C3623897   0.173   1.956  13.392  0.4165 -0.9698 -0.5484
  193DOPC   H6X23898   0.281   1.954  13.419  0.1463  0.8706  0.8375
  193DOPC   H6Y23899   0.134   2.046  13.442 -0.6405 -1.9970  0.5259
  193DOPC   C3723900   0.128   1.811  13.423 -0.7125  0.1517 -0.3887
  193DOPC   H7X23901   0.019   1.807  13.402 -0.8953  2.0786  0.0787
  193DOPC   H7Y23902   0.184   1.753  13.346 -1.0949  0.3123 -0.7879
  193DOPC   C3823903   0.155   1.769  13.570 -0.2228  0.1018 -0.5455
  193DOPC   H8X23904   0.111   1.846  13.638 -0.8032  0.9182 -1.8012
  193DOPC   H8Y23905   0.260   1.789  13.602 -0.9265  2.5430  0.5533
  193DOPC   C3923906   0.098   1.631  13.594  0.5888 -0.0799 -0.1997
  193DOPC   H9X23907   0.071   1.575  13.503 -0.6685 -1.1443  0.7911
  193DOPC  C31023908   0.069   1.571  13.709  0.4810  0.6631  0.2401
  193DOPC  H10X23909   0.040   1.465  13.718  0.8478  0.5201 -0.2403
  193DOPC  C31123910   0.091   1.632  13.844 -0.2062 -0.6093 -0.1441
  193DOPC  H11X23911  -0.001   1.694  13.853  0.0136 -0.4483  1.1881
  193DOPC  H11Y23912   0.171   1.709  13.835  0.4668 -1.3994 -1.1286
  193DOPC  C31223913   0.128   1.548  13.964  0.2626  0.4564 -0.4081
  193DOPC  H12X23914   0.043   1.483  13.992  0.3809 -0.9267 -2.9102
  193DOPC  H12Y23915   0.157   1.611  14.051 -0.7980  0.8249 -0.3161
  193DOPC  C31323916   0.255   1.468  13.938  0.0548 -0.1238 -0.4469
  193DOPC  H13X23917   0.238   1.395  13.856  2.4734  0.4858 -1.5732
  193DOPC  H13Y23918   0.334   1.537  13.900 -1.1904  1.3715 -0.4571
  193DOPC  C31423919   0.315   1.396  14.063 -0.4183  0.5117 -0.1571
  193DOPC  H14X23920   0.339   1.468  14.144 -0.1856 -0.8906  1.0570
  193DOPC  H14Y23921   0.236   1.328  14.102 -0.8432  1.3908  0.5493
  193DOPC  C31523922   0.441   1.307  14.041 -0.8808 -0.5919 -0.7337
  193DOPC  H15X23923   0.532   1.356  14.001 -0.1113  0.0571  1.6315
  193DOPC  H15Y23924   0.411   1.223  13.975  2.7321 -0.8820 -2.2092
  193DOPC  C31623925   0.485   1.269  14.184 -0.5911 -0.0723  0.5942
  193DOPC  H16X23926   0.504   1.358  14.248 -0.7760 -0.2747  0.9343
  193DOPC  H16Y23927   0.404   1.210  14.231  1.7470 -3.6931  0.5340
  193DOPC  C31723928   0.608   1.178  14.184  0.4109  0.6296 -0.3267
  193DOPC  H17X23929   0.700   1.239  14.170  1.2430 -0.3533  0.6133
  193DOPC  H17Y23930   0.607   1.126  14.283 -1.6329  0.2022 -0.5185
  193DOPC  C31823931   0.614   1.067  14.085 -0.3394  0.4414  0.7308
  193DOPC  H18X23932   0.688   0.996  14.129  1.2711  0.7452 -1.3169
  193DOPC  H18Y23933   0.514   1.022  14.069 -1.1006  1.0084  3.3764
  193DOPC  H18Z23934   0.654   1.110  13.990 -1.2076  0.4369  0.3588
  194DOPC     N23935   1.825   7.435  12.676  0.7643 -0.1508  0.3620
  194DOPC   C1223936   1.799   7.314  12.583  0.2078  0.7850 -0.7919
  194DOPC  H12A23937   1.870   7.312  12.502  0.6417 -2.1174 -0.4443
  194DOPC  H12B23938   1.699   7.328  12.543 -0.5387 -2.1480 -0.2214
  194DOPC   C1323939   1.831   7.564  12.607  0.1274  0.8628 -0.2271
  194DOPC  H13A23940   1.889   7.558  12.516 -1.1412  0.3834 -1.0179
  194DOPC  H13B23941   1.729   7.577  12.574 -0.6845 -1.5791  1.1499
  194DOPC  H13C23942   1.870   7.647  12.665  0.6700 -0.0742  0.7706
  194DOPC   C1423943   1.946   7.429  12.756  1.2506  0.1070  0.6569
  194DOPC  H14A23944   1.954   7.514  12.823  0.0725  1.0550 -0.3633
  194DOPC  H14B23945   1.937   7.345  12.824  0.8328 -0.5279 -0.1683
  194DOPC  H14C23946   2.034   7.420  12.695 -0.1892  2.1950 -1.9245
  194DOPC   C1523947   1.717   7.442  12.778 -0.0575 -0.3128  0.2714
  194DOPC  H15A23948   1.742   7.505  12.862  2.7430 -1.5894  0.5206
  194DOPC  H15B23949   1.686   7.343  12.807 -1.0443 -0.6232 -1.6300
  194DOPC  H15C23950   1.634   7.483  12.723  1.0278  1.0302 -0.4330
  194DOPC   C1123951   1.807   7.175  12.656 -0.0402  0.0390  0.7624
  194DOPC  H11A23952   1.792   7.098  12.577  1.1546  1.0046 -0.4518
  194DOPC  H11B23953   1.909   7.159  12.697 -0.1596  0.0087  1.0452
  194DOPC     P23954   1.630   7.025  12.779 -0.2049 -0.1903  0.1292
  194DOPC   O1323955   1.718   6.916  12.738  0.1651  0.1891  0.3061
  194DOPC   O1423956   1.501   7.035  12.715 -0.1439  0.5902 -0.1074
  194DOPC   O1223957   1.713   7.162  12.762 -0.6661 -0.3679  0.1284
  194DOPC   O1123958   1.618   7.019  12.934 -0.6238  0.3902 -0.6077
  194DOPC    C123959   1.730   7.037  13.020  0.1491  0.0324 -0.4151
  194DOPC    HA23960   1.824   7.055  12.964  0.5623 -0.3138  0.1571
  194DOPC    HB23961   1.751   6.944  13.079  0.2297 -0.7845 -1.6888
  194DOPC    C223962   1.705   7.163  13.109 -0.3793  0.2019  0.2570
  194DOPC    HS23963   1.705   7.253  13.043 -1.1900 -1.7019 -2.5160
  194DOPC   O2123964   1.799   7.159  13.222  0.0545 -0.5548  0.7312
  194DOPC   C2123965   1.896   7.248  13.223  0.4452 -0.5171 -0.5135
  194DOPC   O2223966   1.931   7.318  13.131  0.7195 -0.3485  0.1073
  194DOPC   C2223967   1.956   7.256  13.364 -0.4758 -0.0023 -1.1356
  194DOPC   H2R23968   1.953   7.162  13.424  1.3470  0.2302 -0.6301
  194DOPC   H2S23969   1.906   7.332  13.428  0.5855 -0.3633  0.1665
  194DOPC    C323970   1.558   7.169  13.165  0.0791 -0.4611 -0.0323
  194DOPC    HX23971   1.530   7.081  13.227  1.4991 -0.5902  0.4863
  194DOPC    HY23972   1.491   7.183  13.078  0.5067  1.2890 -0.1193
  194DOPC   O3123973   1.542   7.286  13.252 -0.3592  0.1880  0.1362
  194DOPC   C3123974   1.516   7.406  13.198  0.1679  0.0704  0.2203
  194DOPC   O3223975   1.484   7.422  13.081 -0.3186  0.2689 -0.1742
  194DOPC   C3223976   1.519   7.514  13.310 -0.5683  0.5279 -0.5974
  194DOPC   H2X23977   1.532   7.610  13.255 -0.1032 -0.3496 -2.0774
  194DOPC   H2Y23978   1.423   7.518  13.365 -0.8863  0.9381 -1.1689
  194DOPC   C2323979   2.098   7.306  13.371 -1.1879 -0.2937  0.0728
  194DOPC   H3R23980   2.130   7.393  13.310  3.0846 -1.2001  0.6822
  194DOPC   H3S23981   2.164   7.228  13.326  0.9811  1.3452  0.2380
  194DOPC   C2423982   2.140   7.338  13.517 -0.1495  0.1682 -0.5974
  194DOPC   H4R23983   2.244   7.374  13.505  0.7437 -1.8798  0.6277
  194DOPC   H4S23984   2.131   7.249  13.583  0.2062  0.0702 -0.6811
  194DOPC   C2523985   2.080   7.469  13.581  0.3679 -0.4570  0.9159
  194DOPC   H5R23986   1.977   7.474  13.539  1.1244 -1.3424 -1.1578
  194DOPC   H5S23987   2.119   7.565  13.541  1.2471 -1.5252 -0.8881
  194DOPC   C2623988   2.093   7.457  13.734  0.6971 -0.5516  1.0106
  194DOPC   H6R23989   2.036   7.367  13.767 -3.2083 -0.3538 -3.8311
  194DOPC   H6S23990   2.025   7.534  13.777  1.8060  0.8169  0.3932
  194DOPC   C2723991   2.231   7.457  13.785  0.2718  0.9106  0.3618
  194DOPC   H7R23992   2.274   7.545  13.733  0.9024  0.7946  0.6748
  194DOPC   H7S23993   2.289   7.370  13.748  0.1191  0.6584  0.7110
  194DOPC   C2823994   2.244   7.471  13.941  0.8945  0.1783  0.2980
  194DOPC   H8R23995   2.197   7.377  13.978 -2.0406  1.0813 -0.8466
  194DOPC   H8S23996   2.177   7.553  13.974  1.3666  1.6317 -2.0832
  194DOPC   C2923997   2.388   7.482  13.981  0.3681  0.4531  0.3558
  194DOPC   H9R23998   2.434   7.578  13.953  0.0067  1.0263  1.6718
  194DOPC  C21023999   2.460   7.387  14.032  0.2655  0.0887 -0.3205
  194DOPC  H10R24000   2.567   7.409  14.046 -0.4661  2.9500  1.6161
  194DOPC  C21124001   2.417   7.247  14.061  0.0922  0.1817  0.5877
  194DOPC  H11R24002   2.343   7.221  13.982 -0.1702  1.8298  0.2607
  194DOPC  H11S24003   2.356   7.232  14.153 -2.5353  0.7311 -0.9662
  194DOPC  C21224004   2.531   7.138  14.057  0.1753 -0.2659 -0.9494
  194DOPC  H12R24005   2.600   7.144  13.970 -1.1752  0.5535 -2.0023
  194DOPC  H12S24006   2.489   7.035  14.047  0.5694 -0.5582  0.2767
  194DOPC  C21324007   2.607   7.133  14.188 -0.5050 -0.1658 -0.1169
  194DOPC  H13R24008   2.534   7.124  14.272 -0.3832 -3.7937 -0.2527
  194DOPC  H13S24009   2.663   7.228  14.194  0.8243 -0.9226 -0.2738
  194DOPC  C21424010   2.705   7.020  14.203 -0.1532 -0.5127 -0.1286
  194DOPC  H14R24011   2.780   7.044  14.281 -0.8289  0.9958  0.0928
  194DOPC  H14S24012   2.757   6.996  14.108 -0.9210 -1.5124 -0.3175
  194DOPC  C21524013   2.630   6.895  14.258 -0.4894  0.2722  0.0841
  194DOPC  H15R24014   2.571   6.849  14.176  2.1980 -1.7387 -0.8646
  194DOPC  H15S24015   2.563   6.928  14.341 -1.2740 -0.5306 -0.2050
  194DOPC  C21624016   2.727   6.780  14.294 -0.2557 -0.4030  0.4336
  194DOPC  H16R24017   2.664   6.697  14.333 -0.9019 -0.1916 -0.1423
  194DOPC  H16S24018   2.787   6.805  14.384 -1.0961  0.6686  0.7168
  194DOPC  C21724019   2.819   6.723  14.185  0.2012 -0.2698 -0.2246
  194DOPC  H17R24020   2.903   6.793  14.165  0.4446 -1.1359 -2.6513
  194DOPC  H17S24021   2.766   6.704  14.089 -2.5330  1.3338  0.8754
  194DOPC  C21824022   2.880   6.596  14.242  0.5570  0.0880 -0.7125
  194DOPC  H18R24023   2.800   6.525  14.272  0.0050  0.8640 -0.3063
  194DOPC  H18S24024   2.938   6.618  14.335 -1.8521  1.3058  0.5924
  194DOPC  H18T24025   2.941   6.545  14.165  0.1766 -1.3316 -0.1172
  194DOPC   C3324026   1.643   7.502  13.411 -0.0010 -0.2553 -0.1993
  194DOPC   H3X24027   1.730   7.467  13.351  0.3742 -2.0582  1.3118
  194DOPC   H3Y24028   1.632   7.412  13.475  1.7305 -1.0585 -0.9454
  194DOPC   C3424029   1.678   7.641  13.478 -0.7630 -0.7777  0.2190
  194DOPC   H4X24030   1.683   7.722  13.402 -1.0649 -0.1545  0.8501
  194DOPC   H4Y24031   1.772   7.646  13.537 -0.1820 -1.3051 -0.6336
  194DOPC   C3524032   1.584   7.697  13.584  0.5404  0.1945 -0.6439
  194DOPC   H5X24033   1.495   7.727  13.525  0.6377 -1.6656 -1.8061
  194DOPC   H5Y24034   1.634   7.778  13.642 -1.2553  1.8988 -1.3521
  194DOPC   C3624035   1.535   7.587  13.686 -0.7908  0.5268 -0.5873
  194DOPC   H6X24036   1.503   7.499  13.627 -2.7787  0.7985  0.0268
  194DOPC   H6Y24037   1.618   7.561  13.756 -1.7904 -0.1200  0.3822
  194DOPC   C3724038   1.416   7.622  13.771  0.1289 -0.1196  0.6114
  194DOPC   H7X24039   1.449   7.706  13.836 -2.1791  1.7375 -0.4960
  194DOPC   H7Y24040   1.325   7.657  13.718 -0.8093  1.1094  2.9153
  194DOPC   C3824041   1.356   7.504  13.856  0.2420  0.0907  0.4012
  194DOPC   H8X24042   1.290   7.552  13.931  0.0608 -1.3747  1.2118
  194DOPC   H8Y24043   1.432   7.442  13.908  0.9089 -2.7550 -3.4741
  194DOPC   C3924044   1.282   7.397  13.775 -0.1905 -0.7879  0.3858
  194DOPC   H9X24045   1.322   7.378  13.674  0.1595  0.0524  0.3517
  194DOPC  C31024046   1.166   7.342  13.801  0.3938 -0.5303 -0.2380
  194DOPC  H10X24047   1.116   7.281  13.725 -1.7172 -0.1961  0.7966
  194DOPC  C31124048   1.081   7.371  13.917  0.6567 -0.4633 -0.4854
  194DOPC  H11X24049   0.972   7.372  13.894  0.5787 -0.9273 -0.1623
  194DOPC  H11Y24050   1.087   7.471  13.965 -0.9638 -0.2000 -0.7620
  194DOPC  C31224051   1.101   7.269  14.036  0.2932  0.0829 -0.0329
  194DOPC  H12X24052   1.186   7.308  14.096 -0.1026 -0.2271  0.7502
  194DOPC  H12Y24053   1.129   7.170  13.994 -0.0533 -0.0574  0.0689
  194DOPC  C31324054   0.972   7.277  14.120 -0.3448  0.0153 -0.5740
  194DOPC  H13X24055   0.959   7.384  14.146  1.5237  0.5009 -1.4293
  194DOPC  H13Y24056   0.880   7.232  14.077 -0.5125  0.2475 -0.4568
  194DOPC  C31424057   1.000   7.221  14.259  0.5390  0.6358 -0.1478
  194DOPC  H14X24058   0.971   7.113  14.259 -0.9448  0.9923  1.3003
  194DOPC  H14Y24059   1.107   7.237  14.286  1.4806  0.2591 -3.2211
  194DOPC  C31524060   0.903   7.276  14.371 -0.2927  0.2084 -0.5506
  194DOPC  H15X24061   0.935   7.382  14.384 -0.9764  0.6746 -2.3415
  194DOPC  H15Y24062   0.932   7.216  14.459  0.8214  2.5298  0.7703
  194DOPC  C31624063   0.748   7.273  14.344 -0.0300 -0.3871  0.1730
  194DOPC  H16X24064   0.734   7.293  14.236  0.4282 -1.6486 -0.1410
  194DOPC  H16Y24065   0.709   7.171  14.361 -1.5159 -0.2820 -2.1425
  194DOPC  C31724066   0.676   7.365  14.442 -0.3130  0.7733  0.7326
  194DOPC  H17X24067   0.727   7.464  14.439 -0.2445  0.7365  0.6342
  194DOPC  H17Y24068   0.570   7.379  14.412 -1.1747 -4.0068  0.6899
  194DOPC  C31824069   0.688   7.319  14.585 -0.1036 -0.2675  0.3554
  194DOPC  H18X24070   0.652   7.215  14.603  1.2619 -0.6020  1.2980
  194DOPC  H18Y24071   0.795   7.329  14.613  1.0249 -1.4555 -3.0315
  194DOPC  H18Z24072   0.621   7.388  14.641  0.3306 -1.7102  2.7935
  195DOPC     N24073   4.950   7.297  12.112 -0.1761  0.5289 -0.3509
  195DOPC   C1224074   5.071   7.253  12.192  0.0256 -0.8747 -0.0395
  195DOPC  H12A24075   5.122   7.182  12.128 -0.7534  0.3083 -2.0545
  195DOPC  H12B24076   5.029   7.205  12.280 -1.0261  0.2239  0.0874
  195DOPC   C1324077   4.857   7.382  12.210 -0.9367  0.6007  0.0552
  195DOPC  H13A24078   4.793   7.313  12.264  1.9045 -1.4979  0.9818
  195DOPC  H13B24079   4.918   7.432  12.283 -0.1939 -1.9498  1.2811
  195DOPC  H13C24080   4.793   7.447  12.152 -1.0040 -0.3171 -0.9401
  195DOPC   C1424081   4.872   7.180  12.069  0.6153 -0.0393  0.1778
  195DOPC  H14A24082   4.849   7.112  12.149  1.1161 -0.6672 -0.2011
  195DOPC  H14B24083   4.773   7.215  12.046  0.5433 -0.2223  0.2092
  195DOPC  H14C24084   4.914   7.118  11.991  1.1053 -0.9874  1.1701
  195DOPC   C1524085   4.977   7.380  11.991 -0.8153 -0.3702  0.9704
  195DOPC  H15A24086   4.885   7.416  11.948 -0.4435 -1.3804 -0.7603
  195DOPC  H15B24087   5.018   7.310  11.919 -2.8947 -0.7076  0.0629
  195DOPC  H15C24088   5.044   7.464  12.001  0.3910 -0.9811 -1.2978
  195DOPC   C1124089   5.173   7.353  12.239  0.3455  0.2369 -1.0084
  195DOPC  H11A24090   5.126   7.426  12.308 -1.7843 -2.4533  0.5799
  195DOPC  H11B24091   5.235   7.294  12.309 -2.0851 -1.3940 -0.0966
  195DOPC     P24092   5.367   7.365  12.073 -0.3572  0.0360  0.3151
  195DOPC   O1324093   5.386   7.425  11.942  0.6394 -0.5412  0.5460
  195DOPC   O1424094   5.361   7.213  12.083 -0.5102 -0.0476  0.1523
  195DOPC   O1224095   5.241   7.423  12.141  0.0887  0.1248 -0.5982
  195DOPC   O1124096   5.486   7.409  12.174  0.8924  0.4665 -0.0416
  195DOPC    C124097   5.497   7.538  12.222  0.1298 -0.1293 -0.6721
  195DOPC    HA24098   5.411   7.576  12.281  1.0180  0.9594 -0.0337
  195DOPC    HB24099   5.535   7.604  12.141  2.1651 -0.9956 -0.4960
  195DOPC    C224100   5.612   7.530  12.328  0.3473  0.4033 -0.1746
  195DOPC    HS24101   5.693   7.474  12.276  1.2635  1.4691  0.0839
  195DOPC   O2124102   5.566   7.474  12.451 -0.2393  0.7516 -0.5209
  195DOPC   C2124103   5.654   7.428  12.524 -0.3334 -0.3484  0.4663
  195DOPC   O2224104   5.770   7.402  12.489 -0.3412 -0.0896  0.3409
  195DOPC   C2224105   5.600   7.378  12.661 -0.3876  0.3076 -0.6598
  195DOPC   H2R24106   5.492   7.354  12.659 -0.7832  1.7105  1.2894
  195DOPC   H2S24107   5.600   7.477  12.711 -0.2989  0.5384 -1.1043
  195DOPC    C324108   5.669   7.672  12.339  0.6351 -0.8121 -0.1096
  195DOPC    HX24109   5.699   7.699  12.235  0.3360 -0.8106 -0.1963
  195DOPC    HY24110   5.755   7.662  12.409 -0.8586 -0.9463  1.7748
  195DOPC   O3124111   5.578   7.776  12.379 -0.1490 -0.4903 -0.0495
  195DOPC   C3124112   5.574   7.804  12.510 -0.6073 -1.2074 -0.3474
  195DOPC   O3224113   5.627   7.748  12.602  0.6430 -0.1272  0.4424
  195DOPC   C3224114   5.486   7.919  12.532  0.4941 -0.0308  0.0205
  195DOPC   H2X24115   5.519   8.001  12.465  2.1356 -0.2303  0.5449
  195DOPC   H2Y24116   5.381   7.889  12.510  0.5756  0.7665 -1.5977
  195DOPC   C2324117   5.687   7.280  12.740 -0.4960 -0.0125 -0.2509
  195DOPC   H3R24118   5.773   7.345  12.769 -0.0661 -1.5989  2.3304
  195DOPC   H3S24119   5.730   7.201  12.674 -1.9631  0.5855 -2.0118
  195DOPC   C2424120   5.625   7.206  12.863  0.3876 -0.2330  0.5751
  195DOPC   H4R24121   5.704   7.170  12.932 -0.5554  3.0093  3.6282
  195DOPC   H4S24122   5.570   7.114  12.830  0.8932  0.1959 -1.5954
  195DOPC   C2524123   5.516   7.288  12.934 -0.1913  0.0091  0.2824
  195DOPC   H5R24124   5.423   7.295  12.875 -1.4333 -2.8187  1.6920
  195DOPC   H5S24125   5.556   7.392  12.936 -0.2699  0.0951 -1.3369
  195DOPC   C2624126   5.473   7.251  13.071  0.5821 -0.4663  0.4615
  195DOPC   H6R24127   5.417   7.338  13.110  1.5457 -0.4033  1.7731
  195DOPC   H6S24128   5.565   7.229  13.130 -0.8435 -3.5471  1.7550
  195DOPC   C2724129   5.394   7.119  13.073 -0.3001  0.2641 -0.5459
  195DOPC   H7R24130   5.453   7.031  13.040 -1.2543  0.2181 -2.2854
  195DOPC   H7S24131   5.307   7.126  13.005 -1.6915 -0.5785  1.0729
  195DOPC   C2824132   5.353   7.094  13.216 -0.6916  0.4073  0.1136
  195DOPC   H8R24133   5.295   7.183  13.247 -0.9428  0.9942 -1.9278
  195DOPC   H8S24134   5.446   7.086  13.276 -0.0649  0.8053 -0.7897
  195DOPC   C2924135   5.280   6.965  13.214 -0.4037 -0.3908  0.0228
  195DOPC   H9R24136   5.263   6.922  13.114  1.4231 -2.2404  0.4491
  195DOPC  C21024137   5.238   6.905  13.324 -0.6562  0.3229 -0.2182
  195DOPC  H10R24138   5.201   6.802  13.307  1.5110 -0.0667 -3.4650
  195DOPC  C21124139   5.265   6.959  13.459 -0.0179  0.2410  0.5851
  195DOPC  H11R24140   5.180   6.955  13.530 -0.2491 -0.0911  0.2918
  195DOPC  H11S24141   5.298   7.065  13.460  1.2472 -0.0847 -1.3626
  195DOPC  C21224142   5.376   6.886  13.544  0.7217  0.0397  0.1198
  195DOPC  H12R24143   5.469   6.868  13.487  0.0225  0.1452 -1.0895
  195DOPC  H12S24144   5.328   6.786  13.557 -0.3088  0.5863  0.7438
  195DOPC  C21324145   5.413   6.961  13.671 -0.3753 -0.1929 -0.8047
  195DOPC  H13R24146   5.338   6.975  13.752  0.3015 -1.0661  0.0055
  195DOPC  H13S24147   5.422   7.068  13.642  4.2274  0.0321  0.5633
  195DOPC  C21424148   5.545   6.909  13.741 -0.1803  0.3359 -0.2617
  195DOPC  H14R24149   5.606   6.992  13.783  0.5510 -1.3896  2.3338
  195DOPC  H14S24150   5.619   6.882  13.662 -1.2841  0.8627 -1.5259
  195DOPC  C21524151   5.508   6.798  13.843 -0.5563 -0.1173 -0.4160
  195DOPC  H15R24152   5.462   6.700  13.820 -1.0487 -0.1310  0.5551
  195DOPC  H15S24153   5.430   6.836  13.913 -0.0933  0.2205 -0.0713
  195DOPC  C21624154   5.639   6.769  13.922  0.3813 -0.1711  0.2301
  195DOPC  H16R24155   5.675   6.865  13.965  2.5508  0.1612 -2.0871
  195DOPC  H16S24156   5.721   6.726  13.861 -1.1366 -0.9019 -1.3925
  195DOPC  C21724157   5.616   6.680  14.045  0.1547 -0.2997  0.0087
  195DOPC  H17R24158   5.557   6.588  14.025  0.0443 -0.1178 -0.5017
  195DOPC  H17S24159   5.563   6.738  14.123 -0.2495  2.0785 -1.9377
  195DOPC  C21824160   5.754   6.643  14.111  0.0961 -0.7125  0.1498
  195DOPC  H18R24161   5.743   6.622  14.219 -0.2430 -2.1403 -0.1463
  195DOPC  H18S24162   5.839   6.715  14.101  0.4151 -1.0118  0.6751
  195DOPC  H18T24163   5.790   6.550  14.062  0.4193  0.4898 -2.0230
  195DOPC   C3324164   5.488   7.976  12.673 -0.4216  0.5445 -0.5699
  195DOPC   H3X24165   5.455   7.903  12.751  0.8529  0.5380 -0.0152
  195DOPC   H3Y24166   5.420   8.063  12.681 -0.0870  0.7256  0.4547
  195DOPC   C3424167   5.623   8.043  12.713 -0.1901 -0.3352 -0.0255
  195DOPC   H4X24168   5.647   8.118  12.634  0.6697  0.3173  0.8315
  195DOPC   H4Y24169   5.694   7.957  12.718 -0.3971 -0.4776  0.4231
  195DOPC   C3524170   5.627   8.128  12.852 -0.3537  0.6317  0.0787
  195DOPC   H5X24171   5.570   8.221  12.834 -1.3172  0.0538  0.0759
  195DOPC   H5Y24172   5.733   8.157  12.870  0.7972 -1.1972 -2.9394
  195DOPC   C3624173   5.572   8.043  12.966 -0.5070 -0.3924 -0.3877
  195DOPC   H6X24174   5.473   8.000  12.940 -0.0457 -1.5621 -0.2991
  195DOPC   H6Y24175   5.639   7.957  12.989 -0.7441 -0.7331 -0.9491
  195DOPC   C3724176   5.553   8.119  13.098 -0.5850 -0.2446 -0.2719
  195DOPC   H7X24177   5.639   8.171  13.144  0.0021 -0.8618 -0.6613
  195DOPC   H7Y24178   5.475   8.197  13.083 -0.7694 -0.1416  1.0779
  195DOPC   C3824179   5.485   8.030  13.208 -0.6033  0.4030 -1.0549
  195DOPC   H8X24180   5.386   8.002  13.168 -0.5148  1.2643 -1.9112
  195DOPC   H8Y24181   5.467   8.091  13.300 -0.5666  1.9074 -2.0005
  195DOPC   C3924182   5.563   7.900  13.237  0.4841 -0.4494  0.1326
  195DOPC   H9X24183   5.544   7.811  13.177 -1.2809 -1.7141  2.4125
  195DOPC  C31024184   5.649   7.889  13.341  0.1513 -0.7436  0.6034
  195DOPC  H10X24185   5.713   7.800  13.344 -1.2605 -1.7719  0.8962
  195DOPC  C31124186   5.685   8.007  13.435 -0.7120 -0.1585  0.0129
  195DOPC  H11X24187   5.629   8.102  13.423 -2.2687 -0.8836  1.1822
  195DOPC  H11Y24188   5.791   8.037  13.417 -0.7772  0.4676  0.6185
  195DOPC  C31224189   5.675   7.963  13.582 -0.6888 -0.5222  1.2381
  195DOPC  H12X24190   5.713   7.860  13.595  1.8351  0.3354  1.1831
  195DOPC  H12Y24191   5.567   7.943  13.599 -0.4609 -2.6296  0.4492
  195DOPC  C31324192   5.722   8.052  13.687  0.4284 -0.6017  0.0115
  195DOPC  H13X24193   5.811   8.104  13.645  0.7019 -1.0095  0.0816
  195DOPC  H13Y24194   5.649   8.130  13.716  0.6930 -0.6909  0.9451
  195DOPC  C31424195   5.749   7.977  13.819 -0.0082 -0.0429 -0.4227
  195DOPC  H14X24196   5.650   7.932  13.845 -0.9193  2.2917  0.4184
  195DOPC  H14Y24197   5.828   7.900  13.811  1.5211  1.2959  1.0563
  195DOPC  C31524198   5.797   8.072  13.935 -0.7270  0.3073  0.4753
  195DOPC  H15X24199   5.713   8.144  13.941 -2.5355 -1.5641 -0.9688
  195DOPC  H15Y24200   5.890   8.129  13.910  1.2503 -2.6792  0.5284
  195DOPC  C31624201   5.816   7.991  14.062  0.4013 -0.2883 -0.2398
  195DOPC  H16X24202   5.729   7.926  14.086 -0.4151  1.0308  0.5527
  195DOPC  H16Y24203   5.907   7.928  14.057  0.4294 -0.1887 -1.0220
  195DOPC  C31724204   5.853   8.086  14.181 -0.5295  0.5052  0.1261
  195DOPC  H17X24205   5.943   8.146  14.154 -0.5519 -0.0509 -1.2691
  195DOPC  H17Y24206   5.762   8.147  14.196  0.2452  2.0660 -1.2348
  195DOPC  C31824207   5.870   8.017  14.321 -0.4906 -0.6751 -0.5428
  195DOPC  H18X24208   5.789   7.943  14.342  0.0378 -0.4073  3.1258
  195DOPC  H18Y24209   5.968   7.965  14.331  0.9193  1.8180 -0.7205
  195DOPC  H18Z24210   5.864   8.095  14.400 -3.0602  1.3225 -2.5419
  196DOPC     N24211   0.702   1.446  12.305 -0.4784 -0.4953 -0.3878
  196DOPC   C1224212   0.776   1.460  12.437 -0.3283  0.2255  0.0569
  196DOPC  H12A24213   0.708   1.453  12.520  0.8587  2.0931  1.2625
  196DOPC  H12B24214   0.822   1.556  12.454 -1.4225  0.5824  1.1459
  196DOPC   C1324215   0.800   1.454  12.193  0.4648  0.3450  0.7229
  196DOPC  H13A24216   0.754   1.441  12.096  1.3755 -0.8713  0.4268
  196DOPC  H13B24217   0.849   1.551  12.191  1.0257  0.0646 -1.0360
  196DOPC  H13C24218   0.878   1.380  12.198 -0.6873 -1.0907 -1.1967
  196DOPC   C1424219   0.592   1.552  12.280  0.4570  0.4337 -0.4367
  196DOPC  H14A24220   0.500   1.530  12.333  0.8355 -0.7550 -0.2446
  196DOPC  H14B24221   0.620   1.650  12.317 -0.4536  0.6163 -0.2161
  196DOPC  H14C24222   0.571   1.552  12.174 -0.3368 -3.0578 -0.3788
  196DOPC   C1524223   0.638   1.309  12.299 -0.2416 -0.2596 -0.2526
  196DOPC  H15A24224   0.602   1.285  12.200  1.4783 -0.6004 -0.8176
  196DOPC  H15B24225   0.547   1.297  12.357 -1.1451  2.7218 -0.8881
  196DOPC  H15C24226   0.710   1.232  12.321 -0.0369 -0.9334 -2.9491
  196DOPC   C1124227   0.879   1.349  12.488  0.1749  0.6881  0.5984
  196DOPC  H11A24228   0.932   1.387  12.578 -1.5464  0.8328  1.5913
  196DOPC  H11B24229   0.807   1.268  12.512  0.3637  1.1090  2.7603
  196DOPC     P24230   1.127   1.337  12.400  0.0140  0.1348  0.2138
  196DOPC   O1324231   1.166   1.479  12.434 -0.3449  0.5228 -0.1168
  196DOPC   O1424232   1.194   1.276  12.284  0.0911  0.4735  0.0286
  196DOPC   O1224233   0.971   1.318  12.378  0.5029  0.1929 -0.4427
  196DOPC   O1124234   1.148   1.240  12.517 -0.0458  0.6023 -0.1919
  196DOPC    C124235   1.102   1.105  12.538 -0.0691 -0.3381  1.0276
  196DOPC    HA24236   1.095   1.040  12.447  3.6043 -0.9943  1.0602
  196DOPC    HB24237   0.999   1.121  12.578  0.9014  1.0965  3.1132
  196DOPC    C224238   1.191   1.037  12.641 -0.0360 -0.3198  0.5800
  196DOPC    HS24239   1.170   0.928  12.643 -0.2568 -0.2682  2.8983
  196DOPC   O2124240   1.178   1.093  12.774 -0.2969  0.2498  0.3394
  196DOPC   C2124241   1.064   1.073  12.832 -0.0475 -0.2232 -1.0408
  196DOPC   O2224242   0.968   1.010  12.789 -0.1398 -0.3371 -0.3197
  196DOPC   C2224243   1.068   1.135  12.971 -0.8057 -0.0995  0.3093
  196DOPC   H2R24244   1.083   1.243  12.951  0.7984 -0.7331 -2.5158
  196DOPC   H2S24245   1.149   1.083  13.025 -1.4404 -2.1169 -0.5748
  196DOPC    C324246   1.341   1.059  12.591  0.0069 -0.3089 -0.5905
  196DOPC    HX24247   1.377   1.147  12.648 -3.6907 -1.0405  3.4218
  196DOPC    HY24248   1.339   1.077  12.482 -0.3019  0.6641 -0.4303
  196DOPC   O3124249   1.427   0.944  12.626 -0.0381  0.1038  0.5546
  196DOPC   C3124250   1.556   0.953  12.591 -1.2333 -0.0942  0.0731
  196DOPC   O3224251   1.603   1.044  12.525 -0.3732  0.2016 -0.2217
  196DOPC   C3224252   1.636   0.850  12.667 -0.2601  0.7474  0.5151
  196DOPC   H2X24253   1.626   0.750  12.622 -2.1701  1.4189 -0.6491
  196DOPC   H2Y24254   1.738   0.892  12.654  0.4190 -1.2580 -1.0516
  196DOPC   C2324255   0.938   1.129  13.051  0.2402  0.1632  0.1975
  196DOPC   H3R24256   0.913   1.021  13.048  1.2543 -0.0550 -1.9543
  196DOPC   H3S24257   0.855   1.187  13.005 -0.3651 -0.1343  0.8978
  196DOPC   C2424258   0.960   1.169  13.195 -0.3495 -0.1330 -1.0664
  196DOPC   H4R24259   0.994   1.275  13.191 -1.5032  0.2164 -2.3486
  196DOPC   H4S24260   1.039   1.111  13.247  1.2139  0.9482 -2.1506
  196DOPC   C2524261   0.826   1.167  13.277 -0.2079 -0.3766 -0.5474
  196DOPC   H5R24262   0.750   1.226  13.222 -0.2009 -0.6107 -0.8133
  196DOPC   H5S24263   0.840   1.225  13.370 -2.4881 -0.5753 -0.0218
  196DOPC   C2624264   0.769   1.025  13.312  0.3299  0.2103 -0.5435
  196DOPC   H6R24265   0.853   0.964  13.353  0.9673  1.1120 -0.4846
  196DOPC   H6S24266   0.740   0.978  13.216 -0.8553 -0.3859  0.0896
  196DOPC   C2724267   0.654   1.025  13.419 -0.2432  0.2023 -0.2478
  196DOPC   H7R24268   0.591   1.111  13.389  0.4303  0.2769 -1.5264
  196DOPC   H7S24269   0.687   1.036  13.524 -1.7662 -0.3521  0.3313
  196DOPC   C2824270   0.548   0.904  13.403  0.3501 -0.0191  0.6729
  196DOPC   H8R24271   0.510   0.900  13.299  0.6770 -0.0392  0.5528
  196DOPC   H8S24272   0.469   0.912  13.481  2.3799 -1.2449  2.9820
  196DOPC   C2924273   0.623   0.774  13.426  0.4341 -0.2744  0.2154
  196DOPC   H9R24274   0.719   0.745  13.380 -0.7398  0.3926 -2.9151
  196DOPC  C21024275   0.598   0.717  13.544  0.1282 -0.5775  0.3197
  196DOPC  H10R24276   0.664   0.630  13.560 -0.1384 -0.7178  0.6858
  196DOPC  C21124277   0.503   0.751  13.654  0.5652 -0.3361  0.3499
  196DOPC  H11R24278   0.401   0.724  13.619 -0.1904  1.5165  0.9854
  196DOPC  H11S24279   0.490   0.861  13.665  0.5594 -0.3172  0.1486
  196DOPC  C21224280   0.533   0.701  13.797 -0.1094 -0.0749  0.9980
  196DOPC  H12R24281   0.442   0.731  13.854 -1.0582  1.9713 -1.4116
  196DOPC  H12S24282   0.612   0.764  13.844  0.2645  0.5482 -0.4329
  196DOPC  C21324283   0.562   0.552  13.804  0.2945 -0.4707  0.0632
  196DOPC  H13R24284   0.660   0.530  13.756  0.0561 -1.0022 -0.1886
  196DOPC  H13S24285   0.504   0.475  13.749  1.5388 -1.6897  0.3914
  196DOPC  C21424286   0.570   0.493  13.945  0.0132  0.3020  0.0484
  196DOPC  H14R24287   0.668   0.522  13.990 -0.1122  2.0955 -0.7328
  196DOPC  H14S24288   0.577   0.383  13.958  0.5393  0.4485  1.1266
  196DOPC  C21524289   0.453   0.530  14.030 -0.1491  0.4826 -0.2326
  196DOPC  H15R24290   0.359   0.507  13.976 -0.2140 -0.8019  0.3813
  196DOPC  H15S24291   0.465   0.638  14.052  2.1172  0.7201 -2.2088
  196DOPC  C21624292   0.450   0.425  14.143 -0.5344  0.0017 -0.5484
  196DOPC  H16R24293   0.554   0.416  14.183 -0.4120  0.0058 -0.8690
  196DOPC  H16S24294   0.404   0.331  14.107 -2.5092  0.4511  0.6476
  196DOPC  C21724295   0.364   0.465  14.265  0.2019 -0.4079 -0.0708
  196DOPC  H17R24296   0.389   0.569  14.295  0.8478 -1.2585  2.5987
  196DOPC  H17S24297   0.399   0.407  14.353  0.0894  0.7530  0.7577
  196DOPC  C21824298   0.216   0.453  14.241 -0.0768 -0.1127 -0.2015
  196DOPC  H18R24299   0.190   0.347  14.221 -0.6983  0.1519 -0.8356
  196DOPC  H18S24300   0.184   0.530  14.167  0.5261  0.4841  0.1457
  196DOPC  H18T24301   0.163   0.485  14.333 -1.6335 -0.5128 -0.9400
  196DOPC   C3324302   1.596   0.838  12.818  0.1493 -0.1603 -0.4551
  196DOPC   H3X24303   1.654   0.750  12.853 -2.0799 -1.8935 -0.8765
  196DOPC   H3Y24304   1.490   0.807  12.825 -0.3738  1.5307 -0.5042
  196DOPC   C3424305   1.639   0.963  12.900  0.1317 -0.3674  0.6978
  196DOPC   H4X24306   1.577   1.053  12.875  1.2299  0.2843  0.2661
  196DOPC   H4Y24307   1.741   0.994  12.871 -0.6480  1.7997  0.0358
  196DOPC   C3524308   1.607   0.947  13.050  0.3058  0.4621 -0.2855
  196DOPC   H5X24309   1.668   1.022  13.106  0.8835  1.6531 -2.4086
  196DOPC   H5Y24310   1.643   0.845  13.079  0.8823  1.0742  1.2569
  196DOPC   C3624311   1.463   0.960  13.099  0.5690 -0.7817 -0.0753
  196DOPC   H6X24312   1.425   1.059  13.068 -0.7304 -1.1507  0.2875
  196DOPC   H6Y24313   1.396   0.883  13.054 -2.2313  0.4701  1.6852
  196DOPC   C3724314   1.449   0.941  13.255 -0.1036  0.4280  0.5903
  196DOPC   H7X24315   1.344   0.948  13.290 -0.7751 -2.9302 -0.3819
  196DOPC   H7Y24316   1.474   0.833  13.269 -0.3647 -0.0260 -1.9149
  196DOPC   C3824317   1.532   1.042  13.344  0.0562  0.4697  0.2497
  196DOPC   H8X24318   1.638   1.036  13.310  0.2818 -2.0489  1.1587
  196DOPC   H8Y24319   1.517   0.996  13.444 -0.2438  1.3570  0.6192
  196DOPC   C3924320   1.480   1.176  13.341  0.6564 -0.8151 -0.5970
  196DOPC   H9X24321   1.466   1.224  13.243 -1.4336  2.1585  0.9818
  196DOPC  C31024322   1.428   1.246  13.447 -0.1226  0.6623 -0.0857
  196DOPC  H10X24323   1.392   1.349  13.435 -0.8510  0.3001 -1.1637
  196DOPC  C31124324   1.426   1.206  13.593  0.5059 -0.0372  0.1472
  196DOPC  H11X24325   1.496   1.270  13.650 -1.0259  0.2688  1.7791
  196DOPC  H11Y24326   1.458   1.100  13.601  1.8357  0.3560  0.2138
  196DOPC  C31224327   1.286   1.224  13.657 -0.4880  0.7640  0.2770
  196DOPC  H12X24328   1.252   1.118  13.651  3.1850 -0.5185 -0.6684
  196DOPC  H12Y24329   1.214   1.287  13.602  1.6900  2.5211 -0.7282
  196DOPC  C31324330   1.289   1.253  13.803  0.5055 -0.5686 -0.0304
  196DOPC  H13X24331   1.385   1.306  13.821  0.6094 -0.9471  0.6015
  196DOPC  H13Y24332   1.200   1.312  13.834 -0.2252 -2.0395  0.8181
  196DOPC  C31424333   1.309   1.128  13.898  0.4073 -1.0285  0.0052
  196DOPC  H14X24334   1.231   1.052  13.880 -0.1050 -0.0184 -2.3998
  196DOPC  H14Y24335   1.408   1.088  13.867  2.1395  2.3546  0.7072
  196DOPC  C31524336   1.307   1.155  14.049  0.0165 -0.2444  0.2917
  196DOPC  H15X24337   1.378   1.239  14.068 -0.7618  0.6251 -0.5437
  196DOPC  H15Y24338   1.343   1.071  14.113 -1.3360 -0.3415  0.9539
  196DOPC  C31624339   1.161   1.204  14.095  0.0198 -0.4237 -0.1640
  196DOPC  H16X24340   1.136   1.299  14.042  1.0464 -0.6296 -1.0516
  196DOPC  H16Y24341   1.093   1.116  14.094  0.4141 -0.7255 -1.4198
  196DOPC  C31724342   1.161   1.247  14.246  0.6470  0.1784 -0.0022
  196DOPC  H17X24343   1.191   1.155  14.301 -1.8197 -0.0544  1.1149
  196DOPC  H17Y24344   1.221   1.339  14.258 -1.1738  1.4967 -0.6031
  196DOPC  C31824345   1.025   1.275  14.299  0.3406 -0.5026 -0.4146
  196DOPC  H18X24346   1.041   1.299  14.407 -1.2571  0.5757 -0.3921
  196DOPC  H18Y24347   0.987   1.363  14.244  1.4625  0.7933  0.8102
  196DOPC  H18Z24348   0.952   1.192  14.289 -1.4475  1.0931 -1.0874
  197DOPC     N24349   1.763   6.437  12.257  0.0040  0.9276  0.5636
  197DOPC   C1224350   1.702   6.379  12.388 -0.4414 -0.6785 -0.9123
  197DOPC  H12A24351   1.742   6.283  12.415  1.6254  0.4826  0.4511
  197DOPC  H12B24352   1.598   6.357  12.370 -0.8625  1.8364 -1.9200
  197DOPC   C1324353   1.910   6.432  12.260  0.5324 -0.0744  0.3276
  197DOPC  H13A24354   1.939   6.481  12.352 -0.2562  0.5162  0.2746
  197DOPC  H13B24355   1.952   6.332  12.260  0.0897 -0.2752 -0.8274
  197DOPC  H13C24356   1.942   6.478  12.168 -0.9791 -1.5456 -1.0069
  197DOPC   C1424357   1.714   6.578  12.228 -0.1060  0.1577  0.3466
  197DOPC  H14A24358   1.706   6.629  12.322 -0.5958 -0.0091  0.3954
  197DOPC  H14B24359   1.792   6.624  12.168  1.5429  0.1302  2.3519
  197DOPC  H14C24360   1.618   6.573  12.179 -0.8233 -0.4890  1.7833
  197DOPC   C1524361   1.723   6.351  12.139  0.6198  0.2099  0.2046
  197DOPC  H15A24362   1.618   6.325  12.141  0.3738  1.1652  2.0368
  197DOPC  H15B24363   1.775   6.258  12.151  0.3411  0.0346  0.0630
  197DOPC  H15C24364   1.738   6.400  12.044  1.4117  0.8144  0.6323
  197DOPC   C1124365   1.719   6.463  12.522  0.4615  0.0583 -0.1491
  197DOPC  H11A24366   1.689   6.400  12.608  0.9665  0.1261  0.0771
  197DOPC  H11B24367   1.822   6.504  12.534  0.4229  1.5385 -3.6725
  197DOPC     P24368   1.484   6.570  12.541  0.1090  0.2878  0.1363
  197DOPC   O1324369   1.428   6.479  12.437  0.6137  0.1254 -0.0242
  197DOPC   O1424370   1.432   6.709  12.552 -0.3828 -0.6504  0.0902
  197DOPC   O1224371   1.635   6.579  12.519 -0.4916 -1.0247  0.2507
  197DOPC   O1124372   1.474   6.499  12.676 -0.3670  0.1972  0.5439
  197DOPC    C124373   1.475   6.566  12.802 -0.0798  0.2835  0.3004
  197DOPC    HA24374   1.373   6.574  12.843 -0.6007  1.8083 -1.1834
  197DOPC    HB24375   1.511   6.671  12.800  0.0274  0.2362 -0.9685
  197DOPC    C224376   1.564   6.483  12.897 -0.4330 -0.2817 -0.5518
  197DOPC    HS24377   1.662   6.466  12.848 -0.4732  0.1998 -0.7990
  197DOPC   O2124378   1.502   6.355  12.907 -0.3369 -0.2361 -0.0174
  197DOPC   C2124379   1.585   6.260  12.954 -0.1517 -0.1488 -0.3469
  197DOPC   O2224380   1.706   6.270  12.960 -0.3154  0.9337 -0.0663
  197DOPC   C2224381   1.507   6.139  13.012  0.1037  0.0664  0.3103
  197DOPC   H2R24382   1.536   6.047  12.956 -0.0470 -1.4171  2.5096
  197DOPC   H2S24383   1.399   6.154  12.996 -0.1491 -0.4363  1.4462
  197DOPC    C324384   1.577   6.546  13.039 -0.4410 -0.4958 -0.6774
  197DOPC    HX24385   1.472   6.539  13.075 -1.0228 -2.0141 -2.5203
  197DOPC    HY24386   1.610   6.650  13.020 -2.7661  0.4384 -0.0448
  197DOPC   O3124387   1.656   6.476  13.139 -0.0666 -0.2621  0.2880
  197DOPC   C3124388   1.789   6.490  13.114  0.3862  0.0261 -0.6908
  197DOPC   O3224389   1.844   6.571  13.043 -0.0331 -0.0896  0.8908
  197DOPC   C3224390   1.866   6.421  13.221  0.7136 -0.1334 -0.4673
  197DOPC   H2X24391   1.887   6.320  13.179 -1.1841 -1.5072  1.6152
  197DOPC   H2Y24392   1.959   6.472  13.253  1.4923 -2.9881  2.4632
  197DOPC   C2324393   1.528   6.111  13.163  0.0319  0.0197 -0.1886
  197DOPC   H3R24394   1.433   6.068  13.202 -0.4892  2.1440  1.0787
  197DOPC   H3S24395   1.536   6.207  13.218 -1.7608  0.4100 -0.5461
  197DOPC   C2424396   1.649   6.028  13.195  0.0695 -0.0188  0.3555
  197DOPC   H4R24397   1.741   6.084  13.166 -0.6935  1.5343  0.8323
  197DOPC   H4S24398   1.645   5.937  13.131  1.5655 -1.2483  1.9140
  197DOPC   C2524399   1.659   5.971  13.338  0.2057  0.7324  0.0687
  197DOPC   H5R24400   1.565   5.927  13.376 -0.1093  0.2852 -1.1968
  197DOPC   H5S24401   1.679   6.051  13.413 -0.4912  1.3468 -0.3922
  197DOPC   C2624402   1.771   5.870  13.352 -0.0046 -0.1565  0.0557
  197DOPC   H6R24403   1.874   5.911  13.356  0.2738 -0.8640  0.4333
  197DOPC   H6S24404   1.754   5.796  13.271 -2.0179  0.9083 -0.5447
  197DOPC   C2724405   1.739   5.795  13.485 -0.5019  0.1281 -0.0954
  197DOPC   H7R24406   1.643   5.741  13.473 -0.0099 -0.6101 -0.8391
  197DOPC   H7S24407   1.723   5.881  13.552 -2.4972  0.0973 -0.4773
  197DOPC   C2824408   1.848   5.709  13.545 -0.0709  0.0157 -0.4168
  197DOPC   H8R24409   1.942   5.767  13.559  0.3026 -0.7336  0.2468
  197DOPC   H8S24410   1.887   5.637  13.470  0.2287  0.9086 -1.1364
  197DOPC   C2924411   1.792   5.631  13.661  0.0441  0.0413 -0.3018
  197DOPC   H9R24412   1.709   5.563  13.635  0.3874 -0.2032 -0.7606
  197DOPC  C21024413   1.829   5.634  13.794  0.1417  0.4343  1.1869
  197DOPC  H10R24414   1.774   5.576  13.870  0.6291  0.7418  1.7793
  197DOPC  C21124415   1.944   5.720  13.844 -0.3787 -0.3537 -0.9230
  197DOPC  H11R24416   1.956   5.822  13.803  1.1990 -0.3104 -0.4312
  197DOPC  H11S24417   2.037   5.672  13.806  1.0354  0.9159  0.7763
  197DOPC  C21224418   1.953   5.733  13.999  0.8016  0.2534 -0.6188
  197DOPC  H12R24419   1.851   5.763  14.033  0.6129 -1.1055  0.0780
  197DOPC  H12S24420   2.033   5.809  14.014  1.9215 -0.6492 -1.8470
  197DOPC  C21324421   2.003   5.598  14.060 -0.4291  0.6905 -0.6808
  197DOPC  H13R24422   2.114   5.594  14.054 -0.3873  0.3247  0.1758
  197DOPC  H13S24423   1.955   5.517  14.001 -2.8340  1.4202  0.1541
  197DOPC  C21424424   1.960   5.573  14.199 -0.1145 -0.1295  0.1781
  197DOPC  H14R24425   1.850   5.582  14.199 -0.0067  1.4192  0.6574
  197DOPC  H14S24426   2.008   5.657  14.253  0.6184 -0.1696 -0.3929
  197DOPC  C21524427   2.002   5.436  14.256 -0.2702  0.1675 -0.5775
  197DOPC  H15R24428   2.111   5.428  14.238 -0.0607 -0.4897  0.8196
  197DOPC  H15S24429   1.953   5.356  14.197  2.1419 -0.9813 -1.1482
  197DOPC  C21624430   1.963   5.423  14.410  0.3551 -0.3933  0.7850
  197DOPC  H16R24431   2.021   5.339  14.453  1.8254 -0.6778 -1.5590
  197DOPC  H16S24432   1.854   5.406  14.421  0.3572 -0.2618  1.0116
  197DOPC  C21724433   1.993   5.540  14.512  0.0959  0.6268  0.2338
  197DOPC  H17R24434   1.961   5.638  14.468  2.5593  0.8767 -1.1596
  197DOPC  H17S24435   2.103   5.551  14.521  0.1701 -0.3535  0.6160
  197DOPC  C21824436   1.940   5.523  14.654 -0.2537  0.4549  0.5965
  197DOPC  H18R24437   1.957   5.418  14.683  0.2092 -0.1430 -1.6433
  197DOPC  H18S24438   1.830   5.535  14.645 -0.6910 -1.2601  2.7847
  197DOPC  H18T24439   1.976   5.603  14.723  2.1088  0.3282 -0.4013
  197DOPC   C3324440   1.794   6.392  13.350  1.0513  0.3021  0.0669
  197DOPC   H3X24441   1.701   6.332  13.351  0.4959  1.1415  0.7894
  197DOPC   H3Y24442   1.760   6.487  13.396  1.8061  0.6722 -0.1253
  197DOPC   C3424443   1.898   6.326  13.449 -0.1856 -0.5149 -0.1346
  197DOPC   H4X24444   1.985   6.393  13.466 -0.1669 -0.8678  1.2853
  197DOPC   H4Y24445   1.938   6.234  13.402  0.0525  0.3417 -1.6587
  197DOPC   C3524446   1.822   6.284  13.582  0.3615  0.1207  0.2248
  197DOPC   H5X24447   1.757   6.201  13.546 -2.7291  2.1121  0.8113
  197DOPC   H5Y24448   1.761   6.368  13.621  1.8554 -0.3579  4.1526
  197DOPC   C3624449   1.914   6.229  13.696 -0.4820 -0.0345  0.2520
  197DOPC   H6X24450   1.979   6.147  13.658 -1.0497 -1.9294  3.0353
  197DOPC   H6Y24451   1.983   6.308  13.734 -1.0452 -0.1448  1.5634
  197DOPC   C3724452   1.835   6.157  13.805 -0.0950 -0.1970 -0.7491
  197DOPC   H7X24453   1.757   6.229  13.837  0.8365  0.5100 -0.0223
  197DOPC   H7Y24454   1.777   6.075  13.758 -1.5365  1.1079 -1.3141
  197DOPC   C3824455   1.913   6.117  13.930 -0.0740  0.1188 -0.4299
  197DOPC   H8X24456   1.970   6.208  13.957 -0.2691  0.1702 -0.1836
  197DOPC   H8Y24457   1.982   6.033  13.908 -0.9325 -0.4113 -1.1706
  197DOPC   C3924458   1.814   6.077  14.036  0.1196 -0.0781 -1.2579
  197DOPC   H9X24459   1.728   6.025  13.990 -0.2071  0.3716 -1.1602
  197DOPC  C31024460   1.803   6.117  14.165  0.3119  0.3057 -0.2908
  197DOPC  H10X24461   1.722   6.073  14.225 -0.9009  0.0805 -2.0191
  197DOPC  C31124462   1.900   6.205  14.235  0.8407 -0.8604  0.5924
  197DOPC  H11X24463   1.931   6.280  14.159  0.1382 -0.4058  0.7485
  197DOPC  H11Y24464   1.996   6.154  14.260  1.5738  0.1371 -0.0929
  197DOPC  C31224465   1.833   6.275  14.357 -0.5490  0.1697 -0.0033
  197DOPC  H12X24466   1.810   6.197  14.433  1.9332  1.0005  1.7313
  197DOPC  H12Y24467   1.741   6.323  14.317 -0.0484 -0.0010 -1.4117
  197DOPC  C31324468   1.922   6.374  14.436  0.9223  0.1171 -0.0656
  197DOPC  H13X24469   2.010   6.310  14.458  0.0887 -1.6962 -1.6561
  197DOPC  H13Y24470   1.951   6.458  14.369  0.0891  1.2826  0.9968
  197DOPC  C31424471   1.847   6.444  14.551  0.3802 -0.2691  1.1015
  197DOPC  H14X24472   1.761   6.500  14.509  0.7981 -1.2839 -1.2878
  197DOPC  H14Y24473   1.806   6.376  14.628 -1.0830 -0.7997 -0.0960
  197DOPC  C31524474   1.953   6.536  14.612 -0.2021 -0.0292  0.3365
  197DOPC  H15X24475   1.977   6.614  14.535  0.2037 -0.1552  0.3334
  197DOPC  H15Y24476   2.041   6.472  14.636 -1.2336 -1.3376  0.7191
  197DOPC  C31624477   1.914   6.604  14.736 -0.2169  0.5668 -0.1837
  197DOPC  H16X24478   1.835   6.679  14.715 -0.5856 -0.4195 -2.6839
  197DOPC  H16Y24479   1.876   6.532  14.812  3.3962  0.0482  1.3353
  197DOPC  C31724480   2.035   6.663  14.812 -0.7167  0.7665  0.5604
  197DOPC  H17X24481   2.116   6.589  14.832 -2.2179 -0.7540  1.1989
  197DOPC  H17Y24482   2.074   6.752  14.758 -3.3165  1.2378 -0.6714
  197DOPC  C31824483   1.976   6.713  14.950  0.0051 -0.3554  1.2682
  197DOPC  H18X24484   2.056   6.772  15.000  0.8608 -1.6304  1.4638
  197DOPC  H18Y24485   1.883   6.771  14.939  0.2406 -0.0137  1.0838
  197DOPC  H18Z24486   1.939   6.633  15.018 -1.2740  0.4219  1.5068
  198DOPC     N24487   6.429   6.651  12.444 -0.5145  0.0583 -0.0877
  198DOPC   C1224488   6.330   6.687  12.553 -0.3672 -0.6523  0.4181
  198DOPC  H12A24489   6.394   6.719  12.633  0.4621  0.7370 -0.7515
  198DOPC  H12B24490   6.274   6.597  12.576  0.5946 -1.0835  1.1467
  198DOPC   C1324491   6.540   6.754  12.431  0.1034 -0.2157  0.4539
  198DOPC  H13A24492   6.489   6.848  12.414 -1.2192 -1.3816 -2.9238
  198DOPC  H13B24493   6.615   6.763  12.507  1.1167  1.9866 -0.7295
  198DOPC  H13C24494   6.602   6.728  12.347  0.1768  1.8196 -0.1642
  198DOPC   C1424495   6.359   6.640  12.311  0.0885 -0.9820 -0.3726
  198DOPC  H14A24496   6.277   6.570  12.310  0.7155 -1.7780 -2.8639
  198DOPC  H14B24497   6.330   6.739  12.280 -1.5447 -1.2808  0.1203
  198DOPC  H14C24498   6.418   6.592  12.235  0.6093 -1.0344  0.0597
  198DOPC   C1524499   6.488   6.516  12.464  0.0925  0.3654 -0.4937
  198DOPC  H15A24500   6.416   6.436  12.473 -2.3049  2.4988  0.5102
  198DOPC  H15B24501   6.565   6.523  12.540 -0.5336 -0.1361  0.1981
  198DOPC  H15C24502   6.540   6.496  12.371 -0.9571 -0.3748 -0.9357
  198DOPC   C1124503   6.232   6.807  12.524 -0.3484 -0.3371  0.1341
  198DOPC  H11A24504   6.147   6.769  12.463 -0.9705  1.2263 -0.0094
  198DOPC  H11B24505   6.173   6.837  12.613 -0.8991 -1.4111  0.1514
  198DOPC     P24506   6.329   7.056  12.546  0.3240 -0.0982 -0.1331
  198DOPC   O1324507   6.202   7.133  12.570  0.1914  0.1939  0.5682
  198DOPC   O1424508   6.435   7.127  12.468  0.1441  0.3567 -0.3064
  198DOPC   O1224509   6.290   6.930  12.462 -0.1350  0.1844 -0.4901
  198DOPC   O1124510   6.390   6.994  12.672  0.5513  0.4896 -0.3471
  198DOPC    C124511   6.321   7.008  12.797  0.4411  0.3927 -0.6980
  198DOPC    HA24512   6.358   6.924  12.861 -1.6439 -0.8862 -1.0940
  198DOPC    HB24513   6.212   6.987  12.798  0.0092  2.1002  2.5435
  198DOPC    C224514   6.364   7.129  12.872  0.2281 -0.6763 -0.0765
  198DOPC    HS24515   6.333   7.225  12.825  1.6938  0.5413  1.3085
  198DOPC   O2124516   6.507   7.131  12.881 -0.3778 -0.0339 -0.3840
  198DOPC   C2124517   6.579   7.232  12.842 -0.3933 -0.3846 -0.0180
  198DOPC   O2224518   6.545   7.336  12.788 -0.2428 -0.1539  0.0486
  198DOPC   C2224519   6.727   7.211  12.887 -0.8391 -0.3269 -0.0551
  198DOPC   H2R24520   6.783   7.180  12.796  0.0437 -0.3907  0.4965
  198DOPC   H2S24521   6.730   7.125  12.958  1.3273 -1.2964 -1.1932
  198DOPC    C324522   6.307   7.134  13.013  0.1444 -0.0189  0.0277
  198DOPC    HX24523   6.340   7.044  13.070  0.9875 -1.1789 -2.1604
  198DOPC    HY24524   6.197   7.127  13.002  0.2826  0.3687 -1.8161
  198DOPC   O3124525   6.345   7.255  13.088  0.0081  0.0337 -0.7321
  198DOPC   C3124526   6.276   7.365  13.050  0.4208 -0.0224  0.2360
  198DOPC   O3224527   6.191   7.369  12.965  0.3934 -0.3182 -0.8674
  198DOPC   C3224528   6.327   7.487  13.129  0.2002  0.6523  1.0695
  198DOPC   H2X24529   6.431   7.466  13.161  0.2760 -0.6076  0.0941
  198DOPC   H2Y24530   6.328   7.563  13.047 -0.5633 -0.9771 -0.5265
  198DOPC   C2324531   6.783   7.341  12.946  0.3911  0.5262  0.0527
  198DOPC   H3R24532   6.773   7.419  12.868 -0.0204  0.7571  0.3337
  198DOPC   H3S24533   6.890   7.330  12.974  0.2476 -1.9498 -0.0756
  198DOPC   C2424534   6.719   7.379  13.079 -0.2575  0.7845 -0.1260
  198DOPC   H4R24535   6.618   7.393  13.036 -0.5483 -2.7511 -0.9265
  198DOPC   H4S24536   6.769   7.472  13.112  0.1470  0.8040 -0.7579
  198DOPC   C2524537   6.723   7.269  13.188 -0.2876  0.1177  0.8246
  198DOPC   H5R24538   6.832   7.263  13.211  0.1346  1.2033 -0.6842
  198DOPC   H5S24539   6.694   7.174  13.139 -0.7323  0.8280 -0.3150
  198DOPC   C2624540   6.634   7.296  13.309  0.2770  0.3779 -0.2324
  198DOPC   H6R24541   6.531   7.275  13.275  0.3609 -0.2879 -0.0770
  198DOPC   H6S24542   6.641   7.403  13.339  0.2205 -0.0171  1.2456
  198DOPC   C2724543   6.672   7.212  13.433  0.1952 -0.0507  0.5124
  198DOPC   H7R24544   6.771   7.251  13.464 -0.8802  0.9941  2.8512
  198DOPC   H7S24545   6.666   7.104  13.409  0.2386 -0.1328  0.8769
  198DOPC   C2824546   6.572   7.236  13.549 -0.1810  0.1251 -0.6554
  198DOPC   H8R24547   6.472   7.203  13.513 -0.7484 -1.4261  2.0396
  198DOPC   H8S24548   6.545   7.340  13.578 -2.2634  0.0730 -2.2006
  198DOPC   C2924549   6.611   7.144  13.664 -0.0818 -0.0897 -0.1310
  198DOPC   H9R24550   6.690   7.175  13.734  1.3934 -3.0056 -0.3720
  198DOPC  C21024551   6.569   7.018  13.690  0.1370 -0.1900 -0.2772
  198DOPC  H10R24552   6.602   6.966  13.781 -0.8029 -1.6768 -0.7635
  198DOPC  C21124553   6.472   6.944  13.598 -0.8028 -0.2031  0.1843
  198DOPC  H11R24554   6.527   6.867  13.541 -1.2847 -1.4123  1.2955
  198DOPC  H11S24555   6.433   7.009  13.517 -0.0030  0.0607  0.0049
  198DOPC  C21224556   6.362   6.871  13.671 -0.7118 -0.5716 -0.3293
  198DOPC  H12R24557   6.400   6.824  13.763 -0.8150 -2.0647 -1.0287
  198DOPC  H12S24558   6.315   6.790  13.612 -1.9351  0.2867 -0.5808
  198DOPC  C21324559   6.247   6.973  13.702 -0.4356  0.1438  0.3597
  198DOPC  H13R24560   6.223   7.027  13.608 -1.0064 -3.0778 -1.4941
  198DOPC  H13S24561   6.272   7.040  13.788 -0.3347 -1.5079  1.6550
  198DOPC  C21424562   6.119   6.893  13.731  0.1762  0.1657 -0.0963
  198DOPC  H14R24563   6.144   6.820  13.811  3.2180  0.2545 -0.8348
  198DOPC  H14S24564   6.080   6.842  13.640 -2.4607 -0.4059  1.2533
  198DOPC  C21524565   6.002   6.980  13.793 -0.5811  0.0092  0.7322
  198DOPC  H15R24566   5.912   6.916  13.781 -0.8476  0.4548  0.2970
  198DOPC  H15S24567   5.992   7.073  13.732 -1.9612 -0.2981  0.4498
  198DOPC  C21624568   6.013   7.016  13.939  0.5013  0.8403  0.3095
  198DOPC  H16R24569   6.106   7.073  13.958  3.0666 -2.1557 -2.1112
  198DOPC  H16S24570   6.027   6.914  13.980  0.3419  0.6283 -0.1511
  198DOPC  C21724571   5.890   7.091  13.990 -0.6848  0.0493  0.1141
  198DOPC  H17R24572   5.799   7.047  13.944 -0.3555  1.0054 -1.5125
  198DOPC  H17S24573   5.898   7.198  13.962 -0.3432 -0.3262 -1.2816
  198DOPC  C21824574   5.875   7.082  14.136  0.8608 -0.4782  0.1532
  198DOPC  H18R24575   5.959   7.141  14.179  0.8860 -0.7943  0.5502
  198DOPC  H18S24576   5.870   6.980  14.181  1.7064 -0.5244  0.1666
  198DOPC  H18T24577   5.775   7.123  14.159  0.8969 -0.7081  0.7452
  198DOPC   C3324578   6.230   7.528  13.242 -1.1876 -0.3249  0.1958
  198DOPC   H3X24579   6.127   7.543  13.202  0.1374  1.7184 -2.9492
  198DOPC   H3Y24580   6.265   7.626  13.281  1.0354 -0.9763 -0.0298
  198DOPC   C3424581   6.241   7.428  13.362 -0.3443  1.1156 -0.1329
  198DOPC   H4X24582   6.350   7.404  13.371 -0.8848 -2.1580 -1.1602
  198DOPC   H4Y24583   6.187   7.333  13.344  0.8050  0.2955  0.5684
  198DOPC   C3524584   6.193   7.487  13.498 -0.5141 -0.3241 -0.5306
  198DOPC   H5X24585   6.089   7.520  13.478  0.4134  1.9710 -1.9435
  198DOPC   H5Y24586   6.259   7.574  13.519  0.7661 -0.2851 -4.1008
  198DOPC   C3624587   6.203   7.388  13.617 -0.0115 -0.5861  0.0908
  198DOPC   H6X24588   6.182   7.287  13.573  1.4985 -0.6328 -0.5748
  198DOPC   H6Y24589   6.305   7.381  13.660 -0.4131  2.5063  1.8237
  198DOPC   C3724590   6.097   7.438  13.721 -0.2892  0.5078 -1.0176
  198DOPC   H7X24591   5.992   7.443  13.685 -1.2041  0.1548  1.4046
  198DOPC   H7Y24592   6.090   7.369  13.807 -3.9417  0.6061 -1.0730
  198DOPC   C3824593   6.134   7.580  13.776 -0.2706  0.5812 -0.2455
  198DOPC   H8X24594   6.148   7.651  13.692  0.4610  1.2842  0.4468
  198DOPC   H8Y24595   6.235   7.571  13.822 -0.2481 -1.6671 -0.6193
  198DOPC   C3924596   6.035   7.640  13.873  0.5123 -0.1591  0.2972
  198DOPC   H9X24597   6.002   7.741  13.845 -2.1094 -0.8600  0.5600
  198DOPC  C31024598   5.997   7.590  13.992 -0.2298 -0.3157  0.3769
  198DOPC  H10X24599   5.919   7.644  14.047 -1.5899  0.4029 -2.0781
  198DOPC  C31124600   6.042   7.464  14.060  0.1773  0.2449 -0.5347
  198DOPC  H11X24601   6.109   7.395  14.005  1.2099  1.0098 -0.2752
  198DOPC  H11Y24602   5.941   7.417  14.068 -0.9135  2.6282  0.9596
  198DOPC  C31224603   6.114   7.479  14.199  0.4038 -0.3031  0.3096
  198DOPC  H12X24604   6.210   7.529  14.174  0.0342 -0.4409 -1.5407
  198DOPC  H12Y24605   6.126   7.381  14.249 -2.0376  0.7232  3.1560
  198DOPC  C31324606   6.031   7.561  14.300 -0.1478  0.3663 -0.5588
  198DOPC  H13X24607   5.998   7.658  14.256  0.8536  1.2896  0.6275
  198DOPC  H13Y24608   5.944   7.500  14.330  0.1274  0.3987  0.3403
  198DOPC  C31424609   6.110   7.590  14.426  0.3224 -0.3681 -0.2220
  198DOPC  H14X24610   6.144   7.492  14.467 -0.2689 -0.8237 -0.7806
  198DOPC  H14Y24611   6.194   7.652  14.390  0.2761 -0.9206 -1.3261
  198DOPC  C31524612   6.028   7.662  14.537  0.1148 -0.1496  0.7897
  198DOPC  H15X24613   5.937   7.606  14.569  0.3160 -0.9596 -0.0484
  198DOPC  H15Y24614   5.991   7.750  14.480 -1.8648 -2.0596 -1.0912
  198DOPC  C31624615   6.105   7.690  14.663 -0.0062  0.6430  0.3986
  198DOPC  H16X24616   6.134   7.585  14.687  0.2427  0.5690 -0.2152
  198DOPC  H16Y24617   6.200   7.746  14.648 -0.0145  0.3699 -0.7483
  198DOPC  C31724618   6.023   7.743  14.779 -0.2251 -0.5585 -0.6104
  198DOPC  H17X24619   5.940   7.808  14.744 -0.1311 -0.8438 -1.3924
  198DOPC  H17Y24620   5.969   7.654  14.818 -2.0250  0.7673  0.0423
  198DOPC  C31824621   6.105   7.810  14.888  0.6061  0.0585  0.3132
  198DOPC  H18X24622   6.176   7.735  14.928  0.4671  1.0610  2.6110
  198DOPC  H18Y24623   6.163   7.898  14.854  0.7167  0.1504  0.7285
  198DOPC  H18Z24624   6.037   7.848  14.968  0.7101  0.9625 -0.0147
  199DOPC     N24625   6.417   0.064  12.432 -0.0882  0.4383 -0.0306
  199DOPC   C1224626   6.371   0.055  12.577 -0.5949 -0.7051 -0.2961
  199DOPC  H12A24627   6.445  -0.005  12.629 -0.2870 -0.6543 -0.6704
  199DOPC  H12B24628   6.277   0.002  12.584 -0.6076 -0.7354 -0.6501
  199DOPC   C1324629   6.419  -0.078  12.379  0.2094 -0.3871  0.1406
  199DOPC  H13A24630   6.319  -0.119  12.379 -1.0361  2.4385 -1.2516
  199DOPC  H13B24631   6.455  -0.074  12.278  2.1447  1.9367  0.8175
  199DOPC  H13C24632   6.480  -0.145  12.439  2.0565  0.5893 -0.5972
  199DOPC   C1424633   6.546   0.133  12.419 -0.1546  0.0879  0.0146
  199DOPC  H14A24634   6.626   0.069  12.453 -0.6902 -1.2852 -1.2171
  199DOPC  H14B24635   6.575   0.154  12.317  1.9424  0.9049  0.7309
  199DOPC  H14C24636   6.538   0.227  12.471  0.6266 -0.0053  0.3234
  199DOPC   C1524637   6.305   0.145  12.357  0.2615 -0.5030  0.1488
  199DOPC  H15A24638   6.310   0.249  12.387 -0.2913 -0.5193  0.2967
  199DOPC  H15B24639   6.204   0.113  12.377  0.2699 -1.7702 -1.6313
  199DOPC  H15C24640   6.309   0.137  12.250 -1.2458  0.9677 -0.0549
  199DOPC   C1124641   6.343   0.185  12.657  0.5680 -0.4272  0.3148
  199DOPC  H11A24642   6.242   0.221  12.625  0.8873 -1.0858 -1.5184
  199DOPC  H11B24643   6.342   0.167  12.767  0.9833  0.2020  0.4263
  199DOPC     P24644   6.436   0.444  12.621  0.2502 -0.0377 -0.7492
  199DOPC   O1324645   6.531   0.471  12.512  1.0572  0.1623 -0.6342
  199DOPC   O1424646   6.445   0.517  12.751  0.3830  0.5760  0.6033
  199DOPC   O1224647   6.443   0.284  12.650 -0.1396  0.2939  0.1001
  199DOPC   O1124648   6.279   0.449  12.573 -0.6443  0.2194 -0.9371
  199DOPC    C124649   6.194   0.550  12.626  0.0485  0.6266 -0.1986
  199DOPC    HA24650   6.105   0.565  12.561 -0.8262 -0.3886  0.7397
  199DOPC    HB24651   6.244   0.648  12.643  0.4584  0.0635  2.2234
  199DOPC    C224652   6.129   0.500  12.766 -0.1814 -0.3881  0.1723
  199DOPC    HS24653   6.216   0.480  12.831 -0.3413 -0.3850  0.3855
  199DOPC   O2124654   6.038   0.395  12.748 -0.0879  0.4587 -0.0436
  199DOPC   C2124655   6.018   0.316  12.850 -0.3398 -0.3544  0.1832
  199DOPC   O2224656   6.074   0.327  12.955  0.0291 -0.2202 -0.0327
  199DOPC   C2224657   5.920   0.210  12.809 -0.1595 -0.2506 -0.2550
  199DOPC   H2R24658   5.975   0.114  12.801  0.1312 -0.0840 -0.2552
  199DOPC   H2S24659   5.875   0.229  12.709  0.7502 -0.3562 -0.6979
  199DOPC    C324660   6.057   0.624  12.844  0.6415  0.3608 -0.5352
  199DOPC    HX24661   5.961   0.653  12.796  2.0026  0.5796 -3.3297
  199DOPC    HY24662   6.128   0.709  12.836 -0.2270  1.2672  0.9026
  199DOPC   O3124663   6.029   0.602  12.983 -0.0918 -0.0201 -0.6176
  199DOPC   C3124664   6.121   0.630  13.077  0.5444  0.1110  0.1223
  199DOPC   O3224665   6.231   0.672  13.065 -0.1266  0.0266 -0.2748
  199DOPC   C3224666   6.061   0.575  13.207  0.5163  0.6684  0.5983
  199DOPC   H2X24667   5.952   0.591  13.223  0.2992 -0.1174 -0.0100
  199DOPC   H2Y24668   6.072   0.464  13.214  0.4851  0.5725 -0.6943
  199DOPC   C2324669   5.808   0.172  12.912 -0.1101 -0.1996 -0.3531
  199DOPC   H3R24670   5.712   0.158  12.857 -0.4227 -0.4994  0.2523
  199DOPC   H3S24671   5.788   0.268  12.964  0.9992  1.1193 -2.2273
  199DOPC   C2424672   5.844   0.060  13.007 -0.4459  0.0752  0.1829
  199DOPC   H4R24673   5.955   0.061  13.020 -0.1567  1.9878 -1.9793
  199DOPC   H4S24674   5.824  -0.027  12.940  0.0786 -0.4328  0.6666
  199DOPC   C2524675   5.781   0.066  13.149  1.0750 -0.2224 -0.3963
  199DOPC   H5R24676   5.672   0.042  13.143  1.1429 -2.6705  4.1112
  199DOPC   H5S24677   5.795   0.161  13.206 -1.4674 -0.6188  1.0741
  199DOPC   C2624678   5.840  -0.048  13.233 -0.1554  0.4661 -0.2473
  199DOPC   H6R24679   5.777  -0.050  13.324 -0.2219 -0.9212 -0.3025
  199DOPC   H6S24680   5.941  -0.028  13.276 -0.6249  0.8895  0.6949
  199DOPC   C2724681   5.836  -0.184  13.161  0.0914 -0.6397  0.1293
  199DOPC   H7R24682   5.923  -0.196  13.094 -1.0816 -0.5597 -1.4752
  199DOPC   H7S24683   5.758  -0.185  13.082 -0.0944 -2.9291  0.2799
  199DOPC   C2824684   5.808  -0.305  13.253  0.0938 -0.5722 -0.6289
  199DOPC   H8R24685   5.808  -0.393  13.184  0.9929  0.2807 -1.7377
  199DOPC   H8S24686   5.708  -0.294  13.299  0.3356  0.8235 -0.4107
  199DOPC   C2924687   5.922  -0.319  13.346  0.9767 -0.0254 -0.3669
  199DOPC   H9R24688   6.021  -0.319  13.300  2.5486 -0.7048  2.7394
  199DOPC  C21024689   5.907  -0.334  13.481  0.8691 -0.3166 -0.2802
  199DOPC  H10R24690   5.998  -0.366  13.535 -0.1959 -2.2376  0.4672
  199DOPC  C21124691   5.778  -0.340  13.554 -0.1627  0.6946 -0.2394
  199DOPC  H11R24692   5.780  -0.438  13.607  1.3242  0.2247 -1.1170
  199DOPC  H11S24693   5.693  -0.349  13.483  0.5509  0.8914 -1.1411
  199DOPC  C21224694   5.759  -0.234  13.660 -0.8769 -0.5000  0.2056
  199DOPC  H12R24695   5.850  -0.209  13.721 -1.7984  1.7322  0.7967
  199DOPC  H12S24696   5.686  -0.283  13.727 -1.7674  0.2666 -0.1788
  199DOPC  C21324697   5.692  -0.107  13.604  0.1512  0.4201  0.7336
  199DOPC  H13R24698   5.611  -0.132  13.533  1.7841  2.6518 -2.1172
  199DOPC  H13S24699   5.772  -0.054  13.549  1.7890 -1.2841  1.3380
  199DOPC  C21424700   5.623  -0.020  13.710 -0.3661 -0.6033  0.2473
  199DOPC  H14R24701   5.685  -0.000  13.800 -1.5220 -1.1069  1.2005
  199DOPC  H14S24702   5.541  -0.083  13.753 -0.3261 -0.4128  0.6072
  199DOPC  C21524703   5.565   0.118  13.652  0.3496  0.1840  0.3672
  199DOPC  H15R24704   5.641   0.175  13.595 -1.3966  2.1760 -0.1289
  199DOPC  H15S24705   5.523   0.185  13.730 -0.2109  1.1141 -0.6979
  199DOPC  C21624706   5.454   0.101  13.538  0.1716  0.5910 -0.1744
  199DOPC  H16R24707   5.371   0.031  13.561 -0.5419  1.3203 -0.4597
  199DOPC  H16S24708   5.496   0.060  13.444  1.3949 -1.3215  1.1436
  199DOPC  C21724709   5.385   0.236  13.512 -0.3391  0.2215  0.5594
  199DOPC  H17R24710   5.472   0.303  13.500  1.0275 -1.4949  0.4588
  199DOPC  H17S24711   5.329   0.262  13.604  0.5947 -1.3258  1.6100
  199DOPC  C21824712   5.288   0.239  13.396  0.1988  0.5516 -0.2034
  199DOPC  H18R24713   5.207   0.163  13.404  0.5449  0.2279  0.2708
  199DOPC  H18S24714   5.345   0.199  13.310 -0.1072 -1.2428  0.3777
  199DOPC  H18T24715   5.243   0.339  13.376  1.0962  1.1745  0.7763
  199DOPC   C3324716   6.137   0.638  13.325  0.5287 -0.1947  0.1826
  199DOPC   H3X24717   6.130   0.748  13.313 -1.2519 -0.3895 -0.8877
  199DOPC   H3Y24718   6.242   0.603  13.309  0.1213 -1.0004 -0.8079
  199DOPC   C3424719   6.084   0.602  13.467 -0.4650 -0.6237 -0.1313
  199DOPC   H4X24720   6.086   0.491  13.475  1.7420 -0.6783 -0.7326
  199DOPC   H4Y24721   5.983   0.645  13.482 -0.9270 -1.5607 -0.4368
  199DOPC   C3524722   6.179   0.664  13.566 -0.7159 -0.1122 -0.6386
  199DOPC   H5X24723   6.214   0.763  13.530  2.1820 -0.1994  1.6070
  199DOPC   H5Y24724   6.278   0.614  13.561 -0.0907  0.8919  0.9157
  199DOPC   C3624725   6.120   0.663  13.707 -0.0901  0.1975 -0.0027
  199DOPC   H6X24726   6.025   0.720  13.718 -0.3315 -0.5466  2.3280
  199DOPC   H6Y24727   6.102   0.555  13.722  0.9639 -0.3326 -2.1585
  199DOPC   C3724728   6.219   0.715  13.815  0.3818 -1.0062 -0.2367
  199DOPC   H7X24729   6.316   0.660  13.815 -0.8840 -3.3548  0.4278
  199DOPC   H7Y24730   6.237   0.821  13.786 -0.9218 -0.3166  1.3117
  199DOPC   C3824731   6.152   0.704  13.951  0.3020  0.8726  0.1124
  199DOPC   H8X24732   6.135   0.602  13.993  2.4337  0.2135 -0.5392
  199DOPC   H8Y24733   6.049   0.746  13.950 -1.1622 -2.3878  0.4861
  199DOPC   C3924734   6.243   0.772  14.052 -0.2187 -0.2575  0.2383
  199DOPC   H9X24735   6.343   0.729  14.063 -0.9189 -3.1802 -2.9892
  199DOPC  C31024736   6.200   0.888  14.116  0.5878  0.1040 -0.3953
  199DOPC  H10X24737   6.273   0.935  14.183 -0.5594  1.3270  0.0560
  199DOPC  C31124738   6.071   0.962  14.114  0.6996 -1.1652  0.8288
  199DOPC  H11X24739   6.011   0.963  14.020  1.2150 -1.5755  0.4873
  199DOPC  H11Y24740   6.091   1.071  14.121 -0.9159 -0.7738 -0.2251
  199DOPC  C31224741   5.986   0.942  14.241 -0.2257  0.3156  0.4391
  199DOPC  H12X24742   6.027   0.976  14.338  0.3753 -0.4475  0.4636
  199DOPC  H12Y24743   5.946   0.840  14.260  0.9931 -0.3552 -0.4593
  199DOPC  C31324744   5.856   1.021  14.225  0.0810 -0.0321  0.0311
  199DOPC  H13X24745   5.883   1.120  14.183  0.5409  1.1772  2.9505
  199DOPC  H13Y24746   5.790   0.966  14.155 -1.0317 -1.0599  1.8237
  199DOPC  C31424747   5.784   1.042  14.357  0.3672 -0.0357 -0.3713
  199DOPC  H14X24748   5.845   1.087  14.438  0.7675 -0.7764 -0.2456
  199DOPC  H14Y24749   5.696   1.106  14.337  0.0324 -0.2979  0.2142
  199DOPC  C31524750   5.723   0.908  14.413 -0.7278  0.3030 -0.6721
  199DOPC  H15X24751   5.802   0.834  14.435 -1.1864  0.3521  1.3925
  199DOPC  H15Y24752   5.656   0.870  14.334  0.0003  0.5766 -1.4301
  199DOPC  C31624753   5.649   0.941  14.548 -0.2201  0.4833 -0.5940
  199DOPC  H16X24754   5.723   0.950  14.630 -2.1345 -2.6736  1.7257
  199DOPC  H16Y24755   5.597   1.037  14.534  1.2805  1.5925  1.0162
  199DOPC  C31724756   5.552   0.826  14.575 -0.5558  0.3839  0.3783
  199DOPC  H17X24757   5.493   0.807  14.483  0.2275 -0.0145 -0.0560
  199DOPC  H17Y24758   5.604   0.735  14.613  0.0238  0.8882  0.8064
  199DOPC  C31824759   5.458   0.886  14.674  0.2203  0.0461 -0.3954
  199DOPC  H18X24760   5.450   0.994  14.652  2.3198  0.1831 -0.6618
  199DOPC  H18Y24761   5.358   0.837  14.675  0.9325 -1.6527  2.4948
  199DOPC  H18Z24762   5.495   0.871  14.778 -0.9449 -2.2787 -0.2459
  200DOPC     N24763   1.364   7.258  12.020  0.1765 -0.7004 -0.8844
  200DOPC   C1224764   1.316   7.243  12.165  1.1443  0.2475 -0.3577
  200DOPC  H12A24765   1.390   7.184  12.217 -0.5133 -1.6415 -0.0059
  200DOPC  H12B24766   1.229   7.179  12.160  0.0030  1.7739 -0.5719
  200DOPC   C1324767   1.269   7.352  11.956 -0.8324  0.2517  0.0765
  200DOPC  H13A24768   1.255   7.436  12.023 -1.7572 -0.3885  0.7148
  200DOPC  H13B24769   1.309   7.387  11.863  1.3393  1.5313  1.4014
  200DOPC  H13C24770   1.177   7.302  11.931 -1.2718  1.7163 -1.3614
  200DOPC   C1424771   1.349   7.122  11.970  0.1003  0.2211 -0.1237
  200DOPC  H14A24772   1.247   7.086  11.974  0.5573 -1.0248  0.7232
  200DOPC  H14B24773   1.385   7.118  11.869  0.1115  1.6568 -0.2069
  200DOPC  H14C24774   1.409   7.053  12.028 -1.0057 -0.2536  0.4962
  200DOPC   C1524775   1.505   7.315  12.021  0.3488 -0.4683 -0.2408
  200DOPC  H15A24776   1.534   7.343  11.921  0.0137 -0.2299 -0.2703
  200DOPC  H15B24777   1.579   7.242  12.051  1.8148  0.5025 -1.3376
  200DOPC  H15C24778   1.501   7.396  12.092  0.4744 -0.9358  0.3150
  200DOPC   C1124779   1.293   7.369  12.241 -0.2069 -0.3014 -0.0522
  200DOPC  H11A24780   1.207   7.420  12.193  0.9222  1.7513 -0.0110
  200DOPC  H11B24781   1.252   7.352  12.343  2.2504  1.1254  1.2665
  200DOPC     P24782   1.490   7.459  12.382 -0.1049  0.0059  0.1013
  200DOPC   O1324783   1.607   7.544  12.365 -0.2236  0.0902 -0.5709
  200DOPC   O1424784   1.514   7.317  12.413  0.3331 -0.2576  0.0266
  200DOPC   O1224785   1.407   7.463  12.249  0.4440  0.5198 -0.8897
  200DOPC   O1124786   1.394   7.521  12.493  0.1313  0.2332  0.0587
  200DOPC    C124787   1.316   7.645  12.472  0.6018  0.6512  0.3734
  200DOPC    HA24788   1.229   7.636  12.539  0.0511 -1.8253 -0.5470
  200DOPC    HB24789   1.280   7.650  12.367  0.0007 -2.2146  0.3488
  200DOPC    C224790   1.410   7.756  12.517 -0.1070 -0.6365 -0.2135
  200DOPC    HS24791   1.503   7.758  12.455 -0.9292  1.6794 -1.4869
  200DOPC   O2124792   1.430   7.736  12.658  0.7105  0.5790  0.0868
  200DOPC   C2124793   1.540   7.788  12.693  0.0737 -0.1662  0.0299
  200DOPC   O2224794   1.631   7.835  12.619  0.1966 -0.1514  0.1433
  200DOPC   C2224795   1.554   7.770  12.847 -0.7256 -0.1756  0.3911
  200DOPC   H2R24796   1.590   7.665  12.860  1.1777  0.0166 -2.4559
  200DOPC   H2S24797   1.454   7.781  12.892 -0.5268  0.1049  0.7675
  200DOPC    C324798   1.344   7.900  12.495  0.0047 -0.2031 -0.0259
  200DOPC    HX24799   1.302   7.903  12.392  0.6221  0.6802 -0.2652
  200DOPC    HY24800   1.420   7.977  12.516 -0.7524  0.8655 -1.0564
  200DOPC   O3124801   1.231   7.925  12.581  0.1863 -0.1008  0.3303
  200DOPC   C3124802   1.252   7.993  12.692  0.2508 -0.0836  0.2339
  200DOPC   O3224803   1.358   8.041  12.724  0.0667  0.4365 -0.0817
  200DOPC   C3224804   1.121   8.000  12.765 -0.2617  0.1528 -0.0994
  200DOPC   H2X24805   1.031   8.023  12.704 -0.2720 -2.1504 -1.0544
  200DOPC   H2Y24806   1.105   7.900  12.810 -1.5021 -0.6776 -2.2476
  200DOPC   C2324807   1.652   7.871  12.908  0.2885 -0.2381 -0.3669
  200DOPC   H3R24808   1.622   7.976  12.889 -1.8785 -0.6700  0.3050
  200DOPC   H3S24809   1.745   7.847  12.852  2.3182  0.9645  2.2552
  200DOPC   C2424810   1.682   7.844  13.051 -0.4526  0.1969  0.2305
  200DOPC   H4R24811   1.757   7.917  13.089 -1.3757  1.4360 -0.2594
  200DOPC   H4S24812   1.723   7.743  13.073 -0.7864 -0.0325 -0.1741
  200DOPC   C2524813   1.566   7.862  13.143  0.1861  0.0609  0.1530
  200DOPC   H5R24814   1.604   7.846  13.246  0.6302  0.9997  0.1536
  200DOPC   H5S24815   1.484   7.790  13.124  0.1447  0.2332 -0.3397
  200DOPC   C2624816   1.522   8.011  13.161  0.2279  0.4542 -0.7329
  200DOPC   H6R24817   1.500   8.052  13.060 -1.0524 -0.1297 -0.7049
  200DOPC   H6S24818   1.604   8.070  13.207  1.0344 -1.2809  0.1588
  200DOPC   C2724819   1.394   8.032  13.242  0.4696  0.3120  0.3325
  200DOPC   H7R24820   1.316   7.977  13.185  3.1128 -1.1725 -2.1526
  200DOPC   H7S24821   1.361   8.138  13.248  1.3765  0.5325  2.3908
  200DOPC   C2824822   1.398   7.987  13.384 -0.2488  0.0131 -0.2190
  200DOPC   H8R24823   1.424   7.880  13.397 -2.5947 -0.4151  1.9481
  200DOPC   H8S24824   1.293   8.002  13.417 -0.4735 -0.3942 -0.7471
  200DOPC   C2924825   1.506   8.050  13.475  0.5365  0.2427 -0.0252
  200DOPC   H9R24826   1.603   8.062  13.426 -0.1365  0.1315 -1.4532
  200DOPC  C21024827   1.495   8.092  13.602 -0.2355 -0.4333  0.7821
  200DOPC  H10R24828   1.588   8.124  13.651 -1.4842  3.7784  0.7618
  200DOPC  C21124829   1.368   8.085  13.677 -0.4045  0.3942 -0.6403
  200DOPC  H11R24830   1.338   7.978  13.683 -1.4720  0.6811 -0.7204
  200DOPC  H11S24831   1.289   8.136  13.619 -0.1889 -0.9567 -2.1869
  200DOPC  C21224832   1.383   8.139  13.816  0.6287 -0.3311  0.1725
  200DOPC  H12R24833   1.289   8.191  13.842  1.2721  0.2403  1.4111
  200DOPC  H12S24834   1.465   8.214  13.819 -0.1401  0.4896  1.9419
  200DOPC  C21324835   1.406   8.024  13.913 -0.1883 -0.3308 -0.3186
  200DOPC  H13R24836   1.499   7.969  13.888  1.3923  1.7364  0.7184
  200DOPC  H13S24837   1.327   7.946  13.908  1.3187 -2.2918  3.0930
  200DOPC  C21424838   1.424   8.067  14.056 -0.4763  0.0461 -0.0380
  200DOPC  H14R24839   1.333   8.111  14.102  0.5687 -1.2352  3.5967
  200DOPC  H14S24840   1.501   8.147  14.054 -0.6642  0.2361 -1.9744
  200DOPC  C21524841   1.475   7.956  14.149 -0.6966  0.6043 -0.0846
  200DOPC  H15R24842   1.560   7.903  14.100  0.8406  1.2742  1.7324
  200DOPC  H15S24843   1.397   7.879  14.169  0.6362 -0.7062  0.3258
  200DOPC  C21624844   1.506   8.015  14.294 -0.2255  0.2185  0.1807
  200DOPC  H16R24845   1.408   8.055  14.329 -0.4614 -1.1108  1.1377
  200DOPC  H16S24846   1.574   8.101  14.281 -1.2194  0.8497 -1.0896
  200DOPC  C21724847   1.564   7.919  14.394 -0.5435  0.3026 -0.6233
  200DOPC  H17R24848   1.518   7.818  14.390 -2.0068  0.9580 -0.9301
  200DOPC  H17S24849   1.544   7.966  14.493  0.1177 -0.3865 -0.1544
  200DOPC  C21824850   1.717   7.907  14.387 -0.2970  0.6170 -0.6932
  200DOPC  H18R24851   1.771   7.816  14.422 -0.6751  0.5271 -0.3299
  200DOPC  H18S24852   1.760   7.992  14.444 -0.5821  0.1081  0.3170
  200DOPC  H18T24853   1.742   7.924  14.281  0.6857 -1.6786 -0.8768
  200DOPC   C3324854   1.118   8.102  12.884  0.2979  0.0986  0.6527
  200DOPC   H3X24855   1.126   8.201  12.835  1.3648  0.0230  0.6293
  200DOPC   H3Y24856   1.200   8.104  12.959 -0.1766 -1.3699  1.2424
  200DOPC   C3424857   0.979   8.092  12.956 -0.7997  0.2034  0.0271
  200DOPC   H4X24858   0.976   7.990  12.999 -1.9046 -0.5693 -1.7771
  200DOPC   H4Y24859   0.890   8.089  12.890 -1.5668 -1.2588  1.0814
  200DOPC   C3524860   0.973   8.204  13.065  1.3327  0.6936 -0.3510
  200DOPC   H5X24861   0.873   8.215  13.110  1.2571  0.9502 -0.5743
  200DOPC   H5Y24862   1.004   8.294  13.007 -1.3041  0.9550 -1.5094
  200DOPC   C3624863   1.071   8.175  13.178  0.5559  0.8082 -0.6507
  200DOPC   H6X24864   1.068   8.067  13.203 -0.3161  1.0319  0.2680
  200DOPC   H6Y24865   1.170   8.205  13.139  0.4172 -0.7618 -2.3658
  200DOPC   C3724866   1.045   8.263  13.296 -0.5839 -0.0125 -0.4990
  200DOPC   H7X24867   1.035   8.365  13.252 -0.1071  0.6064  0.7475
  200DOPC   H7Y24868   0.942   8.243  13.333  0.1246 -0.8695  1.1536
  200DOPC   C3824869   1.144   8.256  13.413  0.6747 -0.2715 -0.3492
  200DOPC   H8X24870   1.251   8.253  13.382  0.5131  0.7048 -1.0483
  200DOPC   H8Y24871   1.124   8.162  13.468  1.1249 -0.5651 -0.6723
  200DOPC   C3924872   1.106   8.364  13.509  0.5960 -0.1141 -1.0355
  200DOPC   H9X24873   1.108   8.471  13.483  0.2632  0.3097  0.5666
  200DOPC  C31024874   1.028   8.345  13.616  0.2236  0.1164 -0.5739
  200DOPC  H10X24875   1.013   8.423  13.693  1.8189  1.0524 -1.1828
  200DOPC  C31124876   0.960   8.215  13.667  0.2356 -0.1015  0.0785
  200DOPC  H11X24877   1.036   8.135  13.683  1.5543  1.5941  3.2658
  200DOPC  H11Y24878   0.878   8.174  13.605 -0.7032 -1.3324  2.0541
  200DOPC  C31224879   0.900   8.228  13.804  0.0110  0.2805  0.0225
  200DOPC  H12X24880   0.828   8.148  13.827 -1.0625  1.3112  0.3365
  200DOPC  H12Y24881   0.842   8.323  13.806  3.2740  2.5612 -2.5411
  200DOPC  C31324882   0.999   8.245  13.913 -0.0679  0.2164  0.4437
  200DOPC  H13X24883   1.068   8.158  13.910 -1.2126 -0.9450  3.6601
  200DOPC  H13Y24884   1.057   8.338  13.899  1.2683 -0.7283 -0.5292
  200DOPC  C31424885   0.944   8.231  14.051  0.3233 -0.3666  0.0154
  200DOPC  H14X24886   0.867   8.310  14.064  1.4775  0.7525  0.1272
  200DOPC  H14Y24887   0.901   8.128  14.061  1.4878 -1.1743 -2.3783
  200DOPC  C31524888   1.050   8.257  14.162 -0.2618  0.2440  0.1491
  200DOPC  H15X24889   1.087   8.361  14.152 -0.5026  0.6301  2.6344
  200DOPC  H15Y24890   1.120   8.173  14.146 -2.2191 -0.9781 -3.1183
  200DOPC  C31624891   0.989   8.255  14.302  0.4353  0.4458  0.3129
  200DOPC  H16X24892   0.892   8.309  14.295 -0.4048 -0.9698  0.5815
  200DOPC  H16Y24893   0.981   8.147  14.329  0.7825  0.0341 -1.1531
  200DOPC  C31724894   1.079   8.316  14.411  0.1374 -0.3127 -0.7064
  200DOPC  H17X24895   1.092   8.424  14.388 -0.8249 -0.0509 -0.0903
  200DOPC  H17Y24896   1.020   8.308  14.505  0.1469  1.0936 -0.5679
  200DOPC  C31824897   1.213   8.257  14.429 -0.3148  0.8412  0.9361
  200DOPC  H18X24898   1.259   8.302  14.520 -0.4792 -2.6623  2.9397
  200DOPC  H18Y24899   1.205   8.148  14.447 -1.8856  0.5966 -0.9677
  200DOPC  H18Z24900   1.282   8.271  14.343 -1.4439  2.7457  0.2718
  201SOD    SOD24901   3.749   1.901  17.338  0.1445  0.5602  0.0934
  202SOD    SOD24902   2.641   1.676  11.282 -0.2277 -0.1000  0.2310
  203SOD    SOD24903   1.412   0.464  18.069  0.3232  0.2955 -0.9327
  204SOD    SOD24904   6.940   4.470  10.571  0.1393 -0.2352 -0.3876
  205SOD    SOD24905   0.802   4.598  17.783  0.2250 -0.1455  0.0431
  206SOD    SOD24906   0.491   3.657  12.435 -0.0330 -0.5310 -0.7355
  207SOD    SOD24907   6.367   2.410  12.190 -0.0638 -0.2941  0.2283
  208SOD    SOD24908   6.113   1.570  17.251 -0.0022  0.0737  0.0428
  209SOD    SOD24909   5.319   6.715  10.864 -0.3789  0.1813 -0.4157
  210SOD    SOD24910   5.404   7.461  17.167 -0.7516 -0.1209  0.7602
  211SOD    SOD24911   3.620   1.297  16.288 -0.1242  0.4266  0.1585
  212SOD    SOD24912   5.500   6.772  16.340  0.1441  0.5446  0.3205
  213SOD    SOD24913   6.216   6.221  11.053  0.2081  0.3950  0.5826
  214SOD    SOD24914   3.545   4.670  17.195 -0.2067 -0.6969 -0.3113
  215SOD    SOD24915   0.598   0.320  17.064  0.3002  0.2700 -0.4083
  216SOD    SOD24916   2.670   5.454  18.588  0.3049 -0.0490  0.0057
  217SOD    SOD24917   4.164   0.722  11.131  0.2536 -0.1730 -0.3711
  218SOD    SOD24918   4.777   5.531  17.068 -0.1923  0.1040  0.1759
  219SOD    SOD24919   1.757   1.220  17.214  0.1089 -0.1229 -0.0713
  220SOD    SOD24920   5.931   1.780  10.903 -0.1844 -0.3441  0.6823
  221SOD    SOD24921   6.810   1.577  11.517  0.1410 -0.2949 -0.2189
  222SOD    SOD24922   1.500   2.406  18.102 -0.1986 -0.5889  0.2789
  223SOD    SOD24923   5.920   5.545  11.771  0.2768  0.0515  0.1488
  224SOD    SOD24924   4.346   6.015  10.131  0.0758  0.0058 -0.0376
  225SOD    SOD24925   1.552   6.298  10.125  0.1875  0.0561 -0.1144
  226SOD    SOD24926   3.947   6.033  16.596 -0.3479  0.5924 -0.1245
  227CLA    CLA24927   1.441   4.651  10.474 -0.1604  0.0310 -0.2595
  228CLA    CLA24928   6.547   2.502  10.696  0.2799 -0.2308  0.3127
  229CLA    CLA24929   3.199   3.140  10.560  0.0056 -0.2472 -0.3368
  230CLA    CLA24930   6.330   0.041  17.298  0.1960 -0.4577 -0.5976
  231CLA    CLA24931   2.141   5.329  17.648  0.0635  0.0456 -0.1650
  232CLA    CLA24932   5.528   0.216  18.244  0.0833 -0.0550 -0.0600
  233CLA    CLA24933   4.390   1.381  17.761 -0.2362  0.2511  0.0089
  234CLA    CLA24934   4.461   5.635  16.701  0.0223 -0.4048  0.1756
  235CLA    CLA24935   4.015   2.625   9.840 -0.1323  0.2304 -0.0013
  236CLA    CLA24936   3.537   4.322  16.783 -0.1013  0.5189  0.0342
  237CLA    CLA24937   6.737   3.541  17.389 -0.2467 -0.1344  0.1962
  238CLA    CLA24938   0.238   6.508  11.093  0.2445 -0.1260 -0.4677
  239CLA    CLA24939   5.146   0.871  10.846 -0.8529  0.0129  0.2838
  240CLA    CLA24940   4.379   5.443  17.676 -0.1817  0.3339  0.4073
  241CLA    CLA24941   1.000   5.608  12.124  0.2092 -0.3873 -0.2122
  242CLA    CLA24942   5.141   3.217  18.467  0.2128 -0.1153 -0.0652
  243CLA    CLA24943   5.250   2.154  10.781  0.0491 -0.1295 -0.3122
  244CLA    CLA24944   3.729   0.034  11.257 -0.0759  0.1607  0.1966
  245CLA    CLA24945   1.576   2.236  10.304 -0.0353 -0.2124 -0.1942
  246CLA    CLA24946   2.727   1.347  18.203 -0.0367 -0.0037 -0.2017
  247CLA    CLA24947   7.354   4.383  10.270 -0.7476  0.3052  0.1364
  248CLA    CLA24948   6.855   6.712  10.973 -0.1162  0.0602  0.1182
  249CLA    CLA24949   4.271   0.355  10.039 -0.0589  0.3474  0.0697
  250CLA    CLA24950   1.694   5.364  17.839 -0.2256 -0.2424  0.2668
  251CLA    CLA24951   0.548   0.005  18.070  0.0981  0.0539 -0.0565
  252CLA    CLA24952   4.061   5.217  11.593 -0.3303 -0.0749  0.4744
  253TIP3   OH224953   2.904   5.254  18.967  0.0064  0.6443  0.2432
  253TIP3    H124954   2.865   5.193  18.905  1.1385  0.2504 -0.1023
  253TIP3    H224955   2.994   5.224  18.977  0.4286  1.9264  0.5045
  254TIP3   OH224956   5.883   3.214  17.481  0.0526 -0.0275  0.2352
  254TIP3    H124957   5.805   3.205  17.536 -0.3111  0.0998 -0.2499
  254TIP3    H224958   5.957   3.198  17.541 -0.3906 -1.6419  0.4090
  255TIP3   OH224959   3.138   1.430  16.762  0.0074  0.4990 -0.7764
  255TIP3    H124960   3.195   1.504  16.743  0.8769  0.6504  2.0027
  255TIP3    H224961   3.178   1.387  16.838 -0.9108 -2.3778 -1.7693
  256TIP3   OH224962   0.170   0.902  17.054 -0.5410 -0.0234  0.2880
  256TIP3    H124963   0.150   0.913  16.961 -1.0203  2.0167  0.5659
  256TIP3    H224964   0.166   0.808  17.069 -2.2064 -0.2944 -1.3940
  257TIP3   OH224965   7.439   7.069  17.953  0.4233  0.4164  0.2386
  257TIP3    H124966   7.364   7.124  17.929  0.1373 -0.4608 -0.9933
  257TIP3    H224967   7.452   7.085  18.047 -1.3330  0.5650  0.4919
  258TIP3   OH224968   0.325   3.488  18.414  0.2812 -0.4420  0.4796
  258TIP3    H124969   0.384   3.420  18.381 -3.0513 -2.3664 -2.2144
  258TIP3    H224970   0.255   3.440  18.457 -1.1624  1.4249  0.3241
  259TIP3   OH224971   5.852   1.346  19.165 -0.4133 -0.1641  0.0020
  259TIP3    H124972   5.801   1.409  19.114 -1.2369 -1.0201 -0.2665
  259TIP3    H224973   5.787   1.299  19.217 -0.0929 -2.1183 -1.2554
  260TIP3   OH224974   4.691   1.407  18.506  0.3744 -0.3683 -0.0342
  260TIP3    H124975   4.692   1.497  18.473  1.4043 -0.3968 -0.1115
  260TIP3    H224976   4.687   1.352  18.427 -1.4865 -0.4092  0.0343
  261TIP3   OH224977   0.997   3.119  18.062  0.4496 -0.0922  0.1377
  261TIP3    H124978   0.970   3.209  18.078 -0.5922 -0.2781 -0.5133
  261TIP3    H224979   0.954   3.068  18.131  0.7561 -0.1520  0.2913
  262TIP3   OH224980   4.100   5.170  18.831 -0.5347 -0.8437  0.0097
  262TIP3    H124981   4.005   5.162  18.820 -1.0327  2.2018  1.1839
  262TIP3    H224982   4.115   5.263  18.850  2.9817 -0.6767 -2.5322
  263TIP3   OH224983   0.944   1.337  18.051 -0.0114  0.5061  0.2486
  263TIP3    H124984   0.980   1.251  18.072 -0.5473  0.6218  1.7976
  263TIP3    H224985   0.884   1.321  17.978 -0.4624 -0.5327  0.8263
  264TIP3   OH224986   4.214   7.477  18.167  0.2905  0.1393 -0.2806
  264TIP3    H124987   4.233   7.539  18.096  1.0261 -0.2653 -0.4477
  264TIP3    H224988   4.164   7.407  18.125 -0.0555  0.3458 -0.2108
  265TIP3   OH224989   0.587   0.798  16.842  0.3273 -0.2063 -0.3862
  265TIP3    H124990   0.494   0.788  16.821  0.2472  0.6950 -0.4721
  265TIP3    H224991   0.591   0.785  16.937 -0.0156  0.5781 -0.2565
  266TIP3   OH224992   2.876   4.257  18.211 -0.3647  0.0620  0.0243
  266TIP3    H124993   2.904   4.166  18.221 -0.8910  0.0199  1.2235
  266TIP3    H224994   2.878   4.293  18.299  0.6350  1.4784 -0.5266
  267TIP3   OH224995   3.369   4.000  16.151 -0.0395  0.2564  0.1336
  267TIP3    H124996   3.305   3.961  16.091  0.2360  0.2284 -0.1408
  267TIP3    H224997   3.385   4.087  16.116  2.0992 -0.6535 -1.3800
  268TIP3   OH224998   6.693   4.521  17.641  0.5104  0.6410  0.2553
  268TIP3    H124999   6.788   4.522  17.655  0.6411 -0.7018 -0.4055
  268TIP3    H225000   6.679   4.451  17.578 -1.0076  0.2388  1.0010
  269TIP3   OH225001   3.866   6.391  16.485  0.4350  0.7810 -0.1026
  269TIP3    H125002   3.863   6.477  16.443 -0.4770 -0.5089 -2.9068
  269TIP3    H225003   3.779   6.380  16.523  0.2517  0.7518 -0.5237
  270TIP3   OH225004   3.235   3.117  18.524 -0.8117  0.2241 -0.2642
  270TIP3    H125005   3.199   3.172  18.593  0.2884 -0.8620  1.2409
  270TIP3    H225006   3.313   3.163  18.494 -0.0116 -0.3519  0.8443
  271TIP3   OH225007   2.463   1.497  18.128  0.3579 -0.2186  0.3124
  271TIP3    H125008   2.557   1.487  18.138  0.3250 -0.9871 -0.0439
  271TIP3    H225009   2.425   1.422  18.175 -0.0269 -0.3706 -0.2213
  272TIP3   OH225010   5.877   5.291  17.795  0.0558  0.2879  0.0697
  272TIP3    H125011   5.938   5.253  17.732  3.5717  2.6784  1.7255
  272TIP3    H225012   5.862   5.222  17.859  0.6246 -0.5087 -0.6329
  273TIP3   OH225013   4.809   7.219  17.112  0.0305 -0.4993 -0.4390
  273TIP3    H125014   4.750   7.295  17.112 -2.0382 -1.9977  1.0900
  273TIP3    H225015   4.768   7.157  17.051 -0.4084 -1.8294  1.1467
  274TIP3   OH225016   1.135   5.480  17.611  0.0168  0.5823 -0.6390
  274TIP3    H125017   1.148   5.463  17.704  3.9490  1.1470 -0.9231
  274TIP3    H225018   1.061   5.541  17.608 -2.0715 -1.5672  1.7641
  275TIP3   OH225019   2.317   1.187  17.926 -0.6060  0.1728 -0.3285
  275TIP3    H125020   2.330   1.221  18.015  0.4170  0.2126 -0.4861
  275TIP3    H225021   2.242   1.237  17.893 -0.5255  0.6905  0.2447
  276TIP3   OH225022   3.357   1.657  18.465  0.3147  0.0550 -0.1105
  276TIP3    H125023   3.279   1.711  18.450  0.5022  0.6420  0.9506
  276TIP3    H225024   3.324   1.567  18.469 -0.2409  0.2532 -0.1453
  277TIP3   OH225025   2.535   5.955  16.895 -0.9477  0.4708  0.0875
  277TIP3    H125026   2.537   5.919  16.806  0.0777 -1.1122  0.7002
  277TIP3    H225027   2.532   5.878  16.952  0.5361  1.3622  1.4560
  278TIP3   OH225028   5.903   3.765  18.452  0.1810 -0.1065  0.1691
  278TIP3    H125029   5.958   3.841  18.469 -0.2821  0.3702 -0.4664
  278TIP3    H225030   5.947   3.719  18.380  0.1837 -0.1761  0.2149
  279TIP3   OH225031   6.694   1.460  18.952  0.5987 -0.2449 -0.4461
  279TIP3    H125032   6.725   1.550  18.953 -0.6047  0.2160  1.4621
  279TIP3    H225033   6.604   1.466  18.920 -0.1876 -0.4235  1.5467
  280TIP3   OH225034   4.278   7.416  18.435  0.4168  0.4132  0.0816
  280TIP3    H125035   4.339   7.345  18.457  1.2953  1.2661  0.5199
  280TIP3    H225036   4.268   7.411  18.340  2.3780  1.1487 -0.2160
  281TIP3   OH225037   5.295   0.817  16.644 -0.0722  0.6925  0.1930
  281TIP3    H125038   5.270   0.886  16.706  1.8537  2.3925 -0.7584
  281TIP3    H225039   5.377   0.849  16.606  0.3888 -1.7217 -1.0266
  282TIP3   OH225040   7.273   4.136  18.461 -0.7851 -0.0028  0.7430
  282TIP3    H125041   7.310   4.049  18.474  2.5432  1.1086 -0.3046
  282TIP3    H225042   7.274   4.150  18.367 -0.5039  1.4448  0.9309
  283TIP3   OH225043   5.813   5.904  16.521  0.1254  0.2076  0.1910
  283TIP3    H125044   5.878   5.856  16.573 -1.0976 -0.4657  1.1593
  283TIP3    H225045   5.791   5.845  16.449  0.0319  0.1160  0.2938
  284TIP3   OH225046   7.460   3.448  12.801  0.5662 -0.2947  0.2114
  284TIP3    H125047   7.529   3.484  12.746  0.1223 -0.4660 -0.4761
  284TIP3    H225048   7.457   3.355  12.778 -0.4229 -0.1328 -0.3636
  285TIP3   OH225049   0.001   3.674  10.221 -0.3217 -0.0126 -0.7534
  285TIP3    H125050   0.025   3.658  10.313  1.1113  1.2860 -0.8749
  285TIP3    H225051  -0.054   3.599  10.198 -0.6188 -0.4242  1.1271
  286TIP3   OH225052   3.080   2.041  11.316  0.4758  0.4206 -0.8010
  286TIP3    H125053   3.014   2.095  11.358  0.1623  0.8403 -1.7907
  286TIP3    H225054   3.083   2.073  11.225 -0.4921 -1.9270 -1.7376
  287TIP3   OH225055   2.076   5.717  11.139 -0.1638 -0.4758  0.0319
  287TIP3    H125056   2.066   5.685  11.049 -2.2613 -0.3062  0.1497
  287TIP3    H225057   1.987   5.740  11.166  0.5931  0.6959  1.7134
  288TIP3   OH225058   4.367   1.624  10.651  0.0412  0.1425  0.4342
  288TIP3    H125059   4.331   1.545  10.611 -0.6516 -0.4742  2.1643
  288TIP3    H225060   4.295   1.687  10.648 -0.0449  0.0619  0.7817
  289TIP3   OH225061   1.546   3.687  11.277  0.4603 -0.0804  0.3862
  289TIP3    H125062   1.630   3.658  11.244  0.0991 -1.0539  0.2803
  289TIP3    H225063   1.566   3.726  11.362  0.7320 -3.0790  1.8440
  290TIP3   OH225064   6.969   7.155  12.568 -0.3706  0.0522 -0.5943
  290TIP3    H125065   7.025   7.131  12.494  1.0785  0.2611  0.4013
  290TIP3    H225066   6.884   7.175  12.528 -0.1896 -1.7465 -1.9800
  291TIP3   OH225067   4.527   0.562  10.562 -0.3836 -0.1379  0.7716
  291TIP3    H125068   4.545   0.485  10.508 -0.5532  0.3456  0.0133
  291TIP3    H225069   4.590   0.556  10.633 -0.5402 -1.0950  0.8448
  292TIP3   OH225070   4.867   4.224  11.263  0.3588 -0.4294  0.0821
  292TIP3    H125071   4.895   4.136  11.287 -1.1936 -0.7446  0.8984
  292TIP3    H225072   4.772   4.224  11.278  0.1094  0.9628 -1.2398
  293TIP3   OH225073   4.721   0.050  11.877  0.1388  0.1721  0.1339
  293TIP3    H125074   4.700  -0.042  11.896  0.6555 -0.0046 -0.1310
  293TIP3    H225075   4.652   0.100  11.921 -1.1742 -0.4097 -1.1866
  294TIP3   OH225076   6.750   3.229  12.666 -0.2308 -0.2650 -0.2291
  294TIP3    H125077   6.800   3.281  12.730 -0.6595  0.4735 -0.4789
  294TIP3    H225078   6.759   3.139  12.696 -0.7723  0.1033  1.1376
  295TIP3   OH225079   0.405   0.255   9.985  0.6012 -0.3012 -0.4470
  295TIP3    H125080   0.431   0.271   9.894  0.9650 -0.2022 -0.3275
  295TIP3    H225081   0.461   0.183  10.014  0.9168  0.0804 -0.1065
  296TIP3   OH225082   6.241   6.374  10.595 -0.5514  0.0122  0.4079
  296TIP3    H125083   6.300   6.299  10.602  0.4928  0.5505 -1.7698
  296TIP3    H225084   6.288   6.446  10.637  0.9154  0.6796 -2.1524
  297TIP3   OH225085   6.896   5.267   9.530  0.5035  0.5441 -0.1658
  297TIP3    H125086   6.802   5.268   9.548  0.0135  0.4031 -2.4311
  297TIP3    H225087   6.918   5.359   9.514  0.5674  0.4798 -0.4507
  298TIP3   OH225088   5.460   3.620  10.155 -0.3564 -0.2625  0.4446
  298TIP3    H125089   5.441   3.711  10.132  0.9901 -0.5034 -1.9306
  298TIP3    H225090   5.379   3.588  10.194 -0.8102  1.9717  1.4977
  299TIP3   OH225091   5.345   2.779   9.974  0.3521 -0.1825  0.3501
  299TIP3    H125092   5.250   2.768   9.966  0.5738 -1.0589 -1.6143
  299TIP3    H225093   5.368   2.840   9.903  1.4183 -1.0812 -0.1039
  300TIP3   OH225094   2.514   2.024  10.524 -0.3202  0.1582  0.6338
  300TIP3    H125095   2.521   1.944  10.472  0.0809 -0.0372  0.9834
  300TIP3    H225096   2.432   2.065  10.494  0.3675  0.5440 -0.8375
  301TIP3   OH225097   2.680   5.265  10.203  0.4834  0.7879 -0.1292
  301TIP3    H125098   2.624   5.252  10.127 -0.3264  0.5455  0.4839
  301TIP3    H225099   2.756   5.312  10.170  1.2347 -1.2484 -1.5381
  302TIP3   OH225100   4.431   4.946  10.388 -0.1712 -0.3164 -0.0899
  302TIP3    H125101   4.469   4.978  10.470  0.3261 -0.1084 -0.4005
  302TIP3    H225102   4.396   4.859  10.411 -1.5743  0.4307  0.7680
  303TIP3   OH225103   2.420   3.960  11.594  0.0785 -0.2418  0.0498
  303TIP3    H125104   2.418   4.049  11.631 -1.5374 -0.2453  0.0654
  303TIP3    H225105   2.488   3.963  11.527 -0.1252  1.0936 -0.1344
  304TIP3   OH225106   2.659   5.569  11.995  0.6777  0.3564 -0.1699
  304TIP3    H125107   2.729   5.577  12.060  0.4079  0.4592  0.1099
  304TIP3    H225108   2.645   5.658  11.963  0.5668  0.3596 -0.1122
  305TIP3   OH225109   7.025   4.291  11.135  0.9399  0.7655 -0.8619
  305TIP3    H125110   6.972   4.369  11.118  1.2081  0.9994 -0.6323
  305TIP3    H225111   7.107   4.325  11.170  0.8907  0.3554 -0.3479
  306TIP3   OH225112   6.807   0.249  10.799 -0.4880 -0.0108  0.3641
  306TIP3    H125113   6.741   0.311  10.829 -1.2242  0.3143 -1.7819
  306TIP3    H225114   6.854   0.224  10.879 -2.3152  0.7637  1.7654
  307TIP3   OH225115   2.578   7.117  11.852  0.1404  0.2079  0.1880
  307TIP3    H125116   2.484   7.106  11.837  0.0173 -1.1562  1.7360
  307TIP3    H225117   2.589   7.211  11.867 -0.8699  0.4672 -0.5701
  308TIP3   OH225118   3.336   2.555  10.705  0.8582 -0.1935 -0.2020
  308TIP3    H125119   3.368   2.525  10.620  1.0963  0.3676 -0.3169
  308TIP3    H225120   3.339   2.477  10.761 -0.3427 -0.8252 -0.9963
  309TIP3   OH225121   1.231   1.800  10.573 -0.0990  0.2355  0.3542
  309TIP3    H125122   1.173   1.766  10.504  2.2127 -0.2254 -1.4877
  309TIP3    H225123   1.199   1.888  10.590 -1.4426 -0.0636 -0.4424
  310TIP3   OH225124   1.352   1.981   9.998  0.0330 -0.6992 -0.0350
  310TIP3    H125125   1.311   2.067   9.989  0.9193 -0.2479  0.1745
  310TIP3    H225126   1.350   1.944   9.910 -2.3088 -1.3938  0.2535
  311TIP3   OH225127   2.480   5.476  11.303  0.2101 -0.8774  0.8471
  311TIP3    H125128   2.446   5.559  11.271  1.4062 -0.1592  1.3972
  311TIP3    H225129   2.534   5.499  11.379 -1.5090 -2.4002  2.6599
  312TIP3   OH225130   3.884   0.537  11.661 -0.6368  0.6300  0.1265
  312TIP3    H125131   3.895   0.528  11.756 -0.4151 -1.6497 -0.0684
  312TIP3    H225132   3.796   0.503  11.644  0.0175 -0.7305 -0.6632
  313TIP3   OH225133   0.632   3.833  12.438  0.5558 -0.0753 -0.3142
  313TIP3    H125134   0.601   3.923  12.426  1.0135  0.8589  3.7561
  313TIP3    H225135   0.722   3.833  12.407  0.1544  0.4872 -1.5109
  314TIP3   OH225136   2.912   5.204  10.560 -0.0513 -0.0118  0.0487
  314TIP3    H125137   2.957   5.288  10.566 -2.5948  1.5542 -1.1994
  314TIP3    H225138   2.928   5.175  10.470  0.6991 -0.8396  0.4327
  315TIP3   OH225139   0.967   4.110  11.589  0.1908  0.3582  0.1828
  315TIP3    H125140   1.034   4.093  11.656 -1.5623  1.1977  2.2898
  315TIP3    H225141   0.895   4.050  11.612 -2.0073  3.2704  1.5558
  316TIP3   OH225142   3.451   5.662  10.974  0.5281  0.2146 -0.5487
  316TIP3    H125143   3.413   5.653  11.061 -0.6370 -1.4145 -1.1822
  316TIP3    H225144   3.540   5.695  10.990 -0.7272  3.2350  1.0140
  317TIP3   OH225145   5.039   7.356  11.612  0.5894  0.8323 -0.9191
  317TIP3    H125146   5.037   7.449  11.591  1.2402  1.0556 -0.0617
  317TIP3    H225147   5.125   7.326  11.583 -0.0923  0.1935 -2.3568
  318TIP3   OH225148   5.475   5.940  11.435  0.3366  0.1435  0.4050
  318TIP3    H125149   5.478   5.846  11.450 -1.1015  0.0699  0.3634
  318TIP3    H225150   5.468   5.978  11.523 -1.1670  0.0868  0.3225
  319TIP3   OH225151   0.365   4.796   9.825 -0.2609  0.0942 -0.4158
  319TIP3    H125152   0.300   4.866   9.816 -0.4257 -0.0017  0.0254
  319TIP3    H225153   0.322   4.720   9.786  0.1921  0.4017 -1.5462
  320TIP3   OH225154   5.909   4.404  10.850  0.1627 -0.0363  0.1280
  320TIP3    H125155   5.986   4.383  10.797  1.2912  0.4086  1.5234
  320TIP3    H225156   5.834   4.390  10.791  1.3569  0.6568 -1.6348
  321TIP3   OH225157   7.231   2.274  12.486 -0.0668 -0.6141  0.1550
  321TIP3    H125158   7.170   2.337  12.524 -1.8007 -0.8980 -1.9567
  321TIP3    H225159   7.288   2.325  12.430 -0.2907 -0.6803 -0.1386
  322TIP3   OH225160   0.827   3.355  10.563  0.0543 -0.0342 -0.1981
  322TIP3    H125161   0.756   3.419  10.571  0.9325  0.9203  0.2978
  322TIP3    H225162   0.795   3.291  10.500 -2.2485 -1.0407  1.8361
  323TIP3   OH225163   3.111   4.334  16.532 -0.2680  0.0089  0.5095
  323TIP3    H125164   3.070   4.390  16.466 -0.2827 -0.6220 -0.0369
  323TIP3    H225165   3.197   4.314  16.496  0.1800  0.5939  1.2306
  324TIP3   OH225166   5.353   0.702  18.790  0.7511 -1.1940 -0.1671
  324TIP3    H125167   5.349   0.609  18.810  2.3396 -1.2298  0.1607
  324TIP3    H225168   5.441   0.715  18.754  1.0254  0.3720  0.9619
  325TIP3   OH225169   7.297   5.017  17.067 -0.1463 -0.1550 -0.1958
  325TIP3    H125170   7.385   5.049  17.091 -0.3945 -0.3972  1.1521
  325TIP3    H225171   7.238   5.080  17.109 -0.6253  0.0757 -1.2002
  326TIP3   OH225172   5.723   2.076  17.251 -0.0470 -0.2412  0.0526
  326TIP3    H125173   5.796   2.103  17.305 -0.8495  1.8131  0.1922
  326TIP3    H225174   5.738   2.117  17.166 -1.2705  0.6727  0.2437
  327TIP3   OH225175   0.659   0.792  16.563  0.1996  0.1809 -0.1685
  327TIP3    H125176   0.635   0.704  16.533 -0.8250  0.7034 -0.9710
  327TIP3    H225177   0.613   0.802  16.646  1.0131 -0.3428  0.3592
  328TIP3   OH225178   4.551   3.990  18.735 -0.0648 -0.0035 -0.1323
  328TIP3    H125179   4.585   3.980  18.824 -0.4742  2.1558  0.3211
  328TIP3    H225180   4.499   4.070  18.738  0.5309  0.5524 -2.4968
  329TIP3   OH225181   6.252   1.079  18.370  0.1374  0.1615  1.1805
  329TIP3    H125182   6.298   0.997  18.386 -0.3656 -1.2381 -3.1505
  329TIP3    H225183   6.322   1.142  18.353  0.4993  0.0663  2.2520
  330TIP3   OH225184   2.826   7.250  17.818 -0.3990  0.1559 -0.0630
  330TIP3    H125185   2.894   7.231  17.882 -2.5478 -0.4508  2.2111
  330TIP3    H225186   2.870   7.245  17.733  2.2571 -0.5640  1.2516
  331TIP3   OH225187   1.106   4.125  17.917 -0.0553 -0.2005 -0.0408
  331TIP3    H125188   1.166   4.088  17.982 -0.3320 -0.8938 -0.1764
  331TIP3    H225189   1.028   4.148  17.968 -0.1324 -0.4056 -0.0669
  332TIP3   OH225190   5.298   3.709  19.034 -0.0236  0.0223 -0.0497
  332TIP3    H125191   5.363   3.642  19.015 -0.7389 -0.6544 -0.1286
  332TIP3    H225192   5.341   3.791  19.010 -0.1132 -0.5876 -2.6124
  333TIP3   OH225193   2.519   3.385  17.768  0.5766 -0.3935  0.0791
  333TIP3    H125194   2.491   3.400  17.678  0.2465 -1.9238 -0.0875
  333TIP3    H225195   2.550   3.471  17.798  0.4952  0.1784 -1.4142
  334TIP3   OH225196   2.749   4.808  18.531 -0.3808 -0.0565 -0.1308
  334TIP3    H125197   2.728   4.876  18.467 -0.3445  0.4196  0.3569
  334TIP3    H225198   2.840   4.785  18.512 -0.1874  0.4881  0.1054
  335TIP3   OH225199   1.220   1.867  17.046  0.7416 -0.1373 -0.4694
  335TIP3    H125200   1.154   1.841  17.110  2.9898 -0.0332  2.0610
  335TIP3    H225201   1.255   1.950  17.079  2.4889 -0.4456 -1.3851
  336TIP3   OH225202   5.532   6.879  15.781  0.1240 -0.9094 -0.2408
  336TIP3    H125203   5.551   6.786  15.798  1.4218 -0.8876 -1.4299
  336TIP3    H225204   5.569   6.896  15.694 -2.0102  0.1945 -1.0053
  337TIP3   OH225205   1.265   5.582  18.499  0.3484 -0.1310 -0.1234
  337TIP3    H125206   1.186   5.528  18.491  0.2602 -0.3820  2.0147
  337TIP3    H225207   1.337   5.520  18.498  0.3730 -0.1090  0.3277
  338TIP3   OH225208   4.158   0.636  17.386 -0.0554  0.1261  0.1025
  338TIP3    H125209   4.206   0.717  17.371 -0.7218  0.3283 -1.0988
  338TIP3    H225210   4.131   0.640  17.477 -0.5135  1.5069 -0.0697
  339TIP3   OH225211   2.134   1.850  17.108 -0.6895  0.6394  0.6888
  339TIP3    H125212   2.206   1.895  17.065 -0.1528 -0.9662 -0.1870
  339TIP3    H225213   2.060   1.860  17.048  0.0025 -1.4159 -0.6343
  340TIP3   OH225214   4.790   7.030  16.572 -0.5710 -0.0424 -0.0328
  340TIP3    H125215   4.730   6.959  16.550  1.0835 -1.6364  0.3904
  340TIP3    H225216   4.866   7.016  16.515 -0.9968  2.6391 -1.4393
  341TIP3   OH225217   5.578   3.857  18.603 -0.5969 -0.4046  0.2799
  341TIP3    H125218   5.657   3.813  18.636 -0.6887 -1.5700 -0.9472
  341TIP3    H225219   5.533   3.888  18.682  1.9840  2.0084  0.9599
  342TIP3   OH225220   7.052   1.148  18.239 -0.1842  0.3179  0.1048
  342TIP3    H125221   7.035   1.056  18.216 -1.0252  0.1288  1.3615
  342TIP3    H225222   7.081   1.188  18.157  1.0786 -1.2572 -0.2783
  343TIP3   OH225223   3.203   2.332  16.171 -0.0212 -0.1610 -0.4306
  343TIP3    H125224   3.280   2.293  16.213 -0.3943  1.0142  1.4843
  343TIP3    H225225   3.240   2.389  16.103  1.0031  1.7141  1.5678
  344TIP3   OH225226   5.161   2.118  18.535 -0.2940  0.3838 -0.1528
  344TIP3    H125227   5.120   2.151  18.454 -0.4809 -0.2088 -0.3045
  344TIP3    H225228   5.093   2.066  18.576 -0.0007  0.1905  0.0882
  345TIP3   OH225229   2.490   6.612  16.572  0.3925  0.0775  0.7754
  345TIP3    H125230   2.575   6.656  16.565  0.7076 -0.5433  0.6531
  345TIP3    H225231   2.509   6.519  16.557 -0.5851  0.1478 -1.3024
  346TIP3   OH225232   4.215   4.612  18.663  0.0725  0.0441 -0.7334
  346TIP3    H125233   4.181   4.564  18.738 -2.0813  0.1031 -1.5954
  346TIP3    H225234   4.289   4.559  18.632  3.4566  1.8076  3.4304
  347TIP3   OH225235   5.530   1.676  18.533 -0.0333  0.4083 -0.0464
  347TIP3    H125236   5.622   1.665  18.555 -0.2111  0.0721  0.5798
  347TIP3    H225237   5.505   1.758  18.575 -0.2259  0.0609  0.5464
  348TIP3   OH225238   4.208   5.429  18.177 -0.3816  0.6217 -0.0902
  348TIP3    H125239   4.152   5.421  18.254 -0.3822 -2.5933 -0.3000
  348TIP3    H225240   4.289   5.383  18.202 -0.7887 -1.4414 -2.2900
  349TIP3   OH225241   4.347   3.790  17.638 -0.0700 -0.7747 -0.2105
  349TIP3    H125242   4.269   3.789  17.583 -0.0972  1.2603 -0.2955
  349TIP3    H225243   4.339   3.712  17.693 -0.7575 -2.0821 -2.0774
  350TIP3   OH225244   5.199   4.546  17.086 -0.8936  0.3833 -0.6440
  350TIP3    H125245   5.139   4.546  17.160  1.5961 -0.2972  1.5019
  350TIP3    H225246   5.186   4.632  17.045 -1.2002  1.4777  1.5860
  351TIP3   OH225247   1.333   6.662  18.504 -0.1748  0.1070  0.2478
  351TIP3    H125248   1.402   6.683  18.567  0.1201 -1.6257  0.5533
  351TIP3    H225249   1.293   6.582  18.538 -0.2148 -0.7024 -1.5843
  352TIP3   OH225250   5.517   6.020  18.659 -0.4641  0.4198  0.0508
  352TIP3    H125251   5.437   6.013  18.608  0.0580 -0.7689 -0.6490
  352TIP3    H225252   5.500   5.966  18.737 -0.3616  0.1898 -0.0841
  353TIP3   OH225253   3.671   4.529  19.079  0.2723  0.0887  0.3395
  353TIP3    H125254   3.750   4.580  19.097  0.9977 -0.5577 -0.9156
  353TIP3    H225255   3.697   4.467  19.012 -1.2740 -0.2300  0.0011
  354TIP3   OH225256   4.462   0.173  17.115  0.2683  0.0741 -0.0105
  354TIP3    H125257   4.392   0.164  17.179  0.3216 -0.4679 -0.0235
  354TIP3    H225258   4.419   0.205  17.036  0.1411  0.3641  0.1729
  355TIP3   OH225259   3.345   4.540  15.693  0.5876  0.2331 -0.2480
  355TIP3    H125260   3.313   4.454  15.719  0.0285  0.4963 -0.0459
  355TIP3    H225261   3.346   4.537  15.598  1.1269 -0.1926 -0.2346
  356TIP3   OH225262   1.232   2.649  17.892 -0.7475 -0.2826 -0.0716
  356TIP3    H125263   1.317   2.653  17.849 -0.6341  1.5829  0.2494
  356TIP3    H225264   1.248   2.597  17.971 -0.5059 -2.0332 -1.2311
  357TIP3   OH225265   1.413   4.645  17.871  0.2773  0.0448  0.2904
  357TIP3    H125266   1.332   4.688  17.899  1.0579  0.8670  1.3410
  357TIP3    H225267   1.482   4.707  17.891  1.4531 -1.6411  1.7987
  358TIP3   OH225268   2.444   3.034  17.789 -0.0092  0.3645  0.6127
  358TIP3    H125269   2.460   3.100  17.856  2.4183  1.4207 -0.8499
  358TIP3    H225270   2.418   3.084  17.712 -1.3130 -0.7045  0.3128
  359TIP3   OH225271   4.551   0.700  18.190 -0.1001 -0.2540 -0.0960
  359TIP3    H125272   4.617   0.659  18.246 -0.0018 -1.3095 -0.9491
  359TIP3    H225273   4.575   0.673  18.102 -0.1218  1.5629 -0.6923
  360TIP3   OH225274   0.570   3.518  17.527 -0.0250  0.4982 -0.3331
  360TIP3    H125275   0.530   3.508  17.613 -0.8961  3.1066 -0.3423
  360TIP3    H225276   0.554   3.435  17.483  1.3174 -1.2702  2.2978
  361TIP3   OH225277   1.858   2.765  16.918 -0.2033 -0.2732  0.1157
  361TIP3    H125278   1.769   2.801  16.919 -0.3281 -0.5449 -0.7285
  361TIP3    H225279   1.912   2.836  16.884 -0.2933 -0.5145 -0.5541
  362TIP3   OH225280   4.516   6.720  17.372  0.5740  0.2160 -0.2344
  362TIP3    H125281   4.540   6.736  17.281 -0.9774  1.3165 -0.4877
  362TIP3    H225282   4.425   6.692  17.369  0.5896 -0.0328  0.9644
  363TIP3   OH225283   6.224   2.724  16.859  0.2519 -0.0637  0.3650
  363TIP3    H125284   6.196   2.735  16.768 -0.8601 -0.5882  0.6306
  363TIP3    H225285   6.208   2.810  16.899  1.3226  0.3523 -0.0676
  364TIP3   OH225286   5.120   7.069  16.816  0.1445 -0.1050 -0.8357
  364TIP3    H125287   5.025   7.065  16.801  0.1427  0.0862 -0.8810
  364TIP3    H225288   5.130   7.114  16.900  0.1795 -0.5931 -0.5770
  365TIP3   OH225289   0.184   2.900  17.957  0.1631 -0.0284  0.0113
  365TIP3    H125290   0.118   2.835  17.931 -2.5883  2.2980  0.6711
  365TIP3    H225291   0.218   2.934  17.874 -1.5313  0.6299 -0.4578
  366TIP3   OH225292   2.784   0.847  16.157  0.1829  0.0384  0.2551
  366TIP3    H125293   2.874   0.816  16.149  0.7763  0.3394  3.9979
  366TIP3    H225294   2.793   0.937  16.190 -1.4809  0.0764  0.6853
  367TIP3   OH225295   2.862   1.172  16.638  0.8476  0.0693 -0.2274
  367TIP3    H125296   2.921   1.239  16.603  0.1184  0.2527 -1.1428
  367TIP3    H225297   2.812   1.217  16.706 -1.1365  1.1242 -2.2429
  368TIP3   OH225298   7.013   0.933  17.511 -0.0156 -0.3472 -0.7242
  368TIP3    H125299   6.938   0.882  17.481  0.6470 -0.2033 -2.7619
  368TIP3    H225300   7.042   0.981  17.433  1.2458  0.7910  0.4021
  369TIP3   OH225301   6.512   1.226  18.610  0.1854 -0.2239  0.2940
  369TIP3    H125302   6.420   1.245  18.624 -0.4268 -1.1087 -2.0297
  369TIP3    H225303   6.555   1.311  18.613 -0.8477  0.3050  0.5179
  370TIP3   OH225304   6.941   2.472  18.134  0.6442 -0.2782  0.8580
  370TIP3    H125305   7.035   2.466  18.116  0.6979  0.5910  0.8465
  370TIP3    H225306   6.933   2.543  18.196  0.0568 -0.8334  1.4280
  371TIP3   OH225307   6.264   1.798  19.125  0.5672 -0.1340  0.3201
  371TIP3    H125308   6.260   1.882  19.170 -1.0324  0.9836 -1.7267
  371TIP3    H225309   6.307   1.818  19.041 -1.3042 -0.9438 -0.8941
  372TIP3   OH225310   4.731   5.943  18.296 -0.2926  0.0695 -0.2549
  372TIP3    H125311   4.689   5.862  18.266  0.9365 -0.4055 -0.7306
  372TIP3    H225312   4.681   5.968  18.374 -0.8651 -0.9937 -0.2660
  373TIP3   OH225313   5.976   0.158  17.906  0.0257 -0.0087 -0.1701
  373TIP3    H125314   5.882   0.170  17.919  0.0936  0.1783  0.1423
  373TIP3    H225315   5.996   0.076  17.950  0.4314  1.0928  1.7814
  374TIP3   OH225316   2.094   5.447  16.750 -0.1321  0.6080  0.4692
  374TIP3    H125317   2.083   5.456  16.656  1.1051  1.2160  0.3627
  374TIP3    H225318   2.083   5.354  16.767 -1.7781  0.6877 -0.0664
  375TIP3   OH225319   0.841   4.178  18.066  0.2915  0.2139 -0.2966
  375TIP3    H125320   0.788   4.116  18.117  1.0807 -1.2643 -1.2167
  375TIP3    H225321   0.902   4.215  18.129 -0.7747  0.7529  0.4499
  376TIP3   OH225322   3.081   0.861  17.763  0.5971  0.3486  0.2546
  376TIP3    H125323   3.145   0.801  17.802 -0.7100 -1.2308  0.0752
  376TIP3    H225324   2.998   0.836  17.803  0.1859  3.0553  1.2764
  377TIP3   OH225325   7.457   6.744  17.119  0.0974  0.0150 -0.0513
  377TIP3    H125326   7.514   6.765  17.193  0.8051 -0.1865 -0.5250
  377TIP3    H225327   7.500   6.784  17.044 -0.0261 -0.7366 -0.5277
  378TIP3   OH225328   5.491   7.263  18.436 -0.0757 -0.1618 -0.9343
  378TIP3    H125329   5.458   7.248  18.524  1.2079 -0.8196 -0.5378
  378TIP3    H225330   5.413   7.257  18.380 -0.8721  0.0345  0.1138
  379TIP3   OH225331   1.432   5.503  16.271 -0.4494 -0.1213 -0.5559
  379TIP3    H125332   1.343   5.469  16.262 -0.6061  0.1199  0.0492
  379TIP3    H225333   1.477   5.475  16.190 -0.0536 -3.2451  0.5957
  380TIP3   OH225334   6.765   0.180  18.891  0.2671 -0.1263 -0.5633
  380TIP3    H125335   6.808   0.140  18.967  1.1991 -0.9945 -1.5244
  380TIP3    H225336   6.697   0.117  18.867  0.2914 -0.0873 -0.7351
  381TIP3   OH225337   3.069   1.076  17.163 -0.3145  0.0928  0.3251
  381TIP3    H125338   3.124   1.093  17.087 -2.3812  0.2830 -1.2142
  381TIP3    H225339   3.088   1.147  17.224  1.9003 -0.4590  0.3501
  382TIP3   OH225340   7.361   7.381  16.920  0.3561 -0.2560 -0.2770
  382TIP3    H125341   7.375   7.326  16.843  1.4680  0.3758 -0.5523
  382TIP3    H225342   7.436   7.440  16.921 -0.8100  1.2949 -0.0356
  383TIP3   OH225343   3.999   0.968  17.636 -0.2242  0.4564  0.3364
  383TIP3    H125344   4.059   1.042  17.642  1.0999 -0.5821  0.3738
  383TIP3    H225345   4.037   0.901  17.692 -1.3178 -0.3157  0.1956
  384TIP3   OH225346   3.899   4.936  16.375  0.0862  0.1473 -0.2358
  384TIP3    H125347   3.955   4.860  16.388  0.2554  0.1605 -0.8711
  384TIP3    H225348   3.868   4.929  16.285 -1.9950 -0.5568  0.4712
  385TIP3   OH225349   2.406   3.625  17.426  0.0532 -0.1623  0.4550
  385TIP3    H125350   2.433   3.692  17.489 -1.9587 -0.1559  1.3965
  385TIP3    H225351   2.459   3.548  17.448  1.3261  0.6663  0.3378
  386TIP3   OH225352   5.652   6.283  16.729 -0.6199  0.3817  0.0932
  386TIP3    H125353   5.643   6.247  16.640 -0.7941  1.1796 -0.2166
  386TIP3    H225354   5.727   6.236  16.766 -0.1090  0.5368 -0.7216
  387TIP3   OH225355   6.075   2.397  17.751 -0.2016  0.0087 -0.8943
  387TIP3    H125356   6.054   2.378  17.843 -1.2136 -0.0589 -1.1306
  387TIP3    H225357   6.100   2.313  17.714 -0.2802 -0.0530 -0.8078
  388TIP3   OH225358   2.805   3.119  18.113 -0.1604  0.1972  0.2875
  388TIP3    H125359   2.752   3.154  18.041 -1.8770 -0.8373  0.9822
  388TIP3    H225360   2.756   3.142  18.192  0.6777 -0.3908  0.9926
  389TIP3   OH225361   1.590   6.488  16.713 -0.0152  0.0045 -0.6742
  389TIP3    H125362   1.646   6.410  16.710 -0.0207  0.0250 -2.1577
  389TIP3    H225363   1.605   6.531  16.629 -3.1216 -0.5986 -1.6603
  390TIP3   OH225364   6.221   2.162  18.608 -0.6115 -0.3359  0.7178
  390TIP3    H125365   6.142   2.108  18.610 -1.4205  0.6627 -1.2377
  390TIP3    H225366   6.257   2.149  18.520 -0.7998  2.1780  0.1851
  391TIP3   OH225367   2.409   2.604  16.383  0.6384  0.2238 -0.0582
  391TIP3    H125368   2.430   2.690  16.418  0.3643 -0.5294  2.1443
  391TIP3    H225369   2.380   2.620  16.294  0.7888  2.3760  0.2327
  392TIP3   OH225370   3.226   7.222  17.340 -0.0744  0.4974 -0.3521
  392TIP3    H125371   3.163   7.168  17.388 -0.5565  0.8796 -0.5481
  392TIP3    H225372   3.271   7.272  17.408 -1.5757  1.9172 -0.3394
  393TIP3   OH225373   6.455   4.288  17.978 -0.7461  0.5365  0.3873
  393TIP3    H125374   6.444   4.375  17.938  0.1149 -0.1445 -1.4817
  393TIP3    H225375   6.503   4.305  18.059 -0.2840  1.7999 -0.1181
  394TIP3   OH225376   7.466   4.186  18.726 -0.2298  0.5103  0.3453
  394TIP3    H125377   7.538   4.229  18.772 -0.1639 -0.6274  1.3425
  394TIP3    H225378   7.435   4.252  18.664  0.7764  1.4967  0.8544
  395TIP3   OH225379   7.236   7.252  17.131 -0.1260 -0.0961 -0.5102
  395TIP3    H125380   7.270   7.315  17.067  0.8417 -0.5772 -0.4803
  395TIP3    H225381   7.296   7.178  17.128 -1.0201 -0.8605 -0.2422
  396TIP3   OH225382   2.344   5.778  17.797 -0.3974 -0.5054  0.0344
  396TIP3    H125383   2.327   5.724  17.720 -3.3185 -0.6027  0.6455
  396TIP3    H225384   2.353   5.867  17.762 -1.1108 -0.6352 -0.5064
  397TIP3   OH225385   2.053   0.910  16.429 -0.6203  0.2936 -0.0685
  397TIP3    H125386   2.053   0.839  16.365  0.3111 -0.8386  1.1141
  397TIP3    H225387   1.968   0.952  16.419 -0.0711  0.9782 -2.8690
  398TIP3   OH225388   6.236   7.290  16.743 -0.2091 -0.3809 -0.0112
  398TIP3    H125389   6.297   7.290  16.816 -1.4273 -0.1509  1.0252
  398TIP3    H225390   6.274   7.351  16.680 -0.2697  1.1678  1.3970
  399TIP3   OH225391   4.810   0.984  18.236 -0.3302  0.4225  0.3738
  399TIP3    H125392   4.807   0.906  18.182  0.4524 -0.4973  1.6038
  399TIP3    H225393   4.821   0.951  18.325 -1.0000  1.9050  1.0352
  400TIP3   OH225394   5.014   5.551  17.092  0.4602 -0.1015  0.0374
  400TIP3    H125395   5.094   5.541  17.041 -0.4150 -1.2085 -1.2005
  400TIP3    H225396   5.028   5.630  17.144  2.4775 -0.4802  0.1341
  401TIP3   OH225397   3.195   2.475  16.441 -0.7381 -0.6616  0.0534
  401TIP3    H125398   3.277   2.465  16.488 -1.7112 -1.2248  1.6975
  401TIP3    H225399   3.209   2.430  16.357  1.0935  0.5487 -0.3418
  402TIP3   OH225400   2.768   5.041  16.993  0.5925 -0.3503 -0.0912
  402TIP3    H125401   2.796   4.967  17.047 -1.4403 -1.0637  0.0655
  402TIP3    H225402   2.754   5.003  16.907  0.8209  0.1493 -0.3517
  403TIP3   OH225403   0.289   3.005  18.487 -0.2951 -0.2802 -0.0641
  403TIP3    H125404   0.368   3.014  18.541 -0.8504 -1.3225  0.9599
  403TIP3    H225405   0.283   3.088  18.440  0.7097  0.3061  0.7950
  404TIP3   OH225406   3.497   5.802  16.728 -0.3507  0.2644  0.2106
  404TIP3    H125407   3.479   5.888  16.690 -1.5237 -0.0540  0.0063
  404TIP3    H225408   3.536   5.751  16.657  0.0816  0.5272  0.2536
  405TIP3   OH225409   4.905   5.682  17.880  0.3927  0.9446 -0.1178
  405TIP3    H125410   4.956   5.609  17.845 -3.3195 -1.6246 -0.7688
  405TIP3    H225411   4.872   5.728  17.803 -1.8342 -0.2563  0.0264
  406TIP3   OH225412   6.895   2.054  15.971  0.6248  0.2549 -0.2682
  406TIP3    H125413   6.899   1.960  15.988 -0.1514  0.0241 -1.2835
  406TIP3    H225414   6.980   2.076  15.932  0.3300 -0.2841 -1.2393
  407TIP3   OH225415   3.129   4.658  17.412 -0.0567 -0.2450  0.6527
  407TIP3    H125416   3.133   4.564  17.393 -1.1996 -0.4198  1.1526
  407TIP3    H225417   3.115   4.662  17.507 -2.1949  0.3323  0.3570
  408TIP3   OH225418   7.393   6.726  18.898  0.2043  0.4679  0.0220
  408TIP3    H125419   7.445   6.686  18.968  0.8938 -0.0781 -0.7704
  408TIP3    H225420   7.448   6.798  18.866  0.8484 -0.5629 -1.3072
  409TIP3   OH225421   1.028   5.781  18.274 -0.0286 -0.3827  0.5136
  409TIP3    H125422   0.958   5.717  18.264 -0.3542 -0.0921  0.8937
  409TIP3    H225423   0.984   5.866  18.271  0.0561 -0.2221  2.4268
  410TIP3   OH225424   2.035   6.454  17.444 -0.9190 -0.6099 -0.6183
  410TIP3    H125425   2.117   6.487  17.407 -1.0944  1.2975  0.5570
  410TIP3    H225426   2.027   6.365  17.411  3.0041 -1.9070  1.3208
  411TIP3   OH225427   3.294   4.625  17.940  0.0502 -0.2853 -0.7975
  411TIP3    H125428   3.372   4.579  17.970  0.0624 -0.7597 -1.5381
  411TIP3    H225429   3.323   4.716  17.929  0.5411 -0.4889 -1.2235
  412TIP3   OH225430   6.190   0.627  18.951 -0.1801 -0.7756  0.0616
  412TIP3    H125431   6.104   0.668  18.959 -0.1207 -0.6909  0.2919
  412TIP3    H225432   6.249   0.687  18.997 -0.2129 -1.4840  1.0648
  413TIP3   OH225433   6.823   4.049  18.156 -0.2813 -0.3460  0.5308
  413TIP3    H125434   6.908   4.014  18.183  0.2840 -0.2346 -0.9844
  413TIP3    H225435   6.776   4.065  18.238 -0.6889 -4.7237  1.4240
  414TIP3   OH225436   0.614   3.134  16.870  0.5282  0.3100 -0.0638
  414TIP3    H125437   0.642   3.043  16.881  0.7239  0.4051  0.2319
  414TIP3    H225438   0.688   3.176  16.826  0.4461  0.3311 -0.1821
  415TIP3   OH225439   1.436   4.972  16.592 -0.1691 -0.1974  0.2053
  415TIP3    H125440   1.382   4.958  16.670 -1.2894 -0.6746 -0.6433
  415TIP3    H225441   1.374   4.991  16.522  0.8345  0.3436 -0.5652
  416TIP3   OH225442   4.513   7.302  17.689 -0.3705 -0.1056  0.0499
  416TIP3    H125443   4.528   7.212  17.661  2.8793  0.2045  0.4023
  416TIP3    H225444   4.525   7.301  17.784  0.1918  0.7360  0.0083
  417TIP3   OH225445   4.577   4.395  17.805  0.6047  0.2633  0.4611
  417TIP3    H125446   4.642   4.399  17.875  1.2857  0.4392 -0.1568
  417TIP3    H225447   4.565   4.302  17.788 -0.7367  0.1493  1.8425
  418TIP3   OH225448   3.231   1.318  17.270 -0.1725  0.2694  0.1480
  418TIP3    H125449   3.140   1.347  17.271 -0.1551  0.3443 -0.2219
  418TIP3    H225450   3.248   1.288  17.360 -1.1226 -1.5340 -0.2313
  419TIP3   OH225451   4.601   0.318  18.567  0.5792 -0.2765  0.1551
  419TIP3    H125452   4.516   0.282  18.594 -0.0528  0.4051 -0.8613
  419TIP3    H225453   4.658   0.242  18.561 -0.5175 -1.0481 -1.1609
  420TIP3   OH225454   6.017   7.457  18.136  0.2259 -0.2735  0.2494
  420TIP3    H125455   5.922   7.465  18.149  0.3310 -1.2752  1.8621
  420TIP3    H225456   6.055   7.493  18.216  1.2412  0.3912 -0.5053
  421TIP3   OH225457   3.622   7.027  16.472  0.3580  0.3991  0.3450
  421TIP3    H125458   3.638   6.945  16.425 -0.0967 -0.6989  2.0108
  421TIP3    H225459   3.539   7.059  16.436 -1.0195 -1.4522  1.6384
  422TIP3   OH225460   0.771   0.004  18.528 -0.4320 -0.0417 -0.1433
  422TIP3    H125461   0.733  -0.031  18.608  1.3752 -0.0413  0.7718
  422TIP3    H225462   0.725  -0.041  18.457 -0.6813 -1.5324  0.9293
  423TIP3   OH225463   4.885   4.278  17.883 -0.3171 -0.4091 -0.4178
  423TIP3    H125464   4.930   4.362  17.899 -0.9302 -0.0534 -0.5317
  423TIP3    H225465   4.817   4.275  17.949 -1.1939 -0.1556 -1.2790
  424TIP3   OH225466   1.545   5.640  17.127  0.3541 -0.4604  0.0195
  424TIP3    H125467   1.547   5.642  17.223  1.8138 -1.5056  0.0358
  424TIP3    H225468   1.634   5.616  17.101  0.2612  0.7987 -1.6452
  425TIP3   OH225469   6.586   5.665  16.819 -0.0185 -0.1365  0.2591
  425TIP3    H125470   6.679   5.650  16.805  0.1218  0.9399 -0.0385
  425TIP3    H225471   6.543   5.624  16.744  0.1486 -1.2160  0.7303
  426TIP3   OH225472   7.058   1.132  17.306 -0.1429  0.0040  0.0138
  426TIP3    H125473   7.046   1.202  17.370 -1.1102  0.0776 -0.2294
  426TIP3    H225474   7.149   1.105  17.316  0.6097  2.0902 -0.6985
  427TIP3   OH225475   7.332   3.864  18.380 -0.2016  0.1928  0.3688
  427TIP3    H125476   7.257   3.813  18.410  1.0532 -1.3255  1.0771
  427TIP3    H225477   7.379   3.806  18.320 -1.0591  2.1362 -2.3937
  428TIP3   OH225478   0.460   7.175  17.339 -0.6158 -0.3685 -0.3754
  428TIP3    H125479   0.476   7.199  17.430  0.2699  0.9395 -0.8390
  428TIP3    H225480   0.423   7.087  17.343  0.3567 -0.7399  1.1888
  429TIP3   OH225481   0.591   0.242  16.839  0.3446  0.6185 -0.2486
  429TIP3    H125482   0.521   0.250  16.774  1.4543 -0.6919 -1.6822
  429TIP3    H225483   0.662   0.296  16.805  0.0932  1.9280  1.1893
  430TIP3   OH225484   2.941   2.332  17.744 -0.5759  0.7755 -0.4471
  430TIP3    H125485   2.961   2.326  17.837 -1.5722 -1.0498 -0.3061
  430TIP3    H225486   2.919   2.424  17.729  3.1316  1.9492  0.3044
  431TIP3   OH225487   6.964   2.067  18.348 -0.1368  0.1107  0.1499
  431TIP3    H125488   6.958   2.064  18.253  1.2832  0.8229  0.0144
  431TIP3    H225489   6.948   2.159  18.370  0.5787  0.1512  0.5106
  432TIP3   OH225490   1.085   1.085  18.127  0.3439 -0.7655  0.6895
  432TIP3    H125491   1.075   1.025  18.201  0.0521 -1.8464 -0.2023
  432TIP3    H225492   1.166   1.056  18.084  0.3621 -0.3189  0.4190
  433TIP3   OH225493   1.002   2.888  16.348  0.5567 -0.1615 -0.3259
  433TIP3    H125494   1.058   2.917  16.276  1.9445 -0.6273  0.5370
  433TIP3    H225495   0.915   2.879  16.308  1.1781  0.0952 -1.8096
  434TIP3   OH225496   2.863   6.093  18.476 -0.0102  0.1314 -0.0431
  434TIP3    H125497   2.800   6.021  18.473  0.5507 -0.3812  0.1862
  434TIP3    H225498   2.811   6.171  18.460 -1.6032  0.3043  4.4098
  435TIP3   OH225499   0.591   2.073  16.783 -0.1717  0.2702  0.0602
  435TIP3    H125500   0.649   2.111  16.717  0.4175 -0.1207  0.3392
  435TIP3    H225501   0.513   2.128  16.782  1.3516  2.6485  1.7275
  436TIP3   OH225502   3.029   3.242  17.109 -0.1402 -0.3018 -0.5997
  436TIP3    H125503   3.062   3.186  17.179 -0.3026  1.5533  1.0517
  436TIP3    H225504   3.099   3.306  17.095  0.6774 -1.6566 -3.4803
  437TIP3   OH225505   1.841   2.332  18.578  0.2622 -0.6400 -0.2513
  437TIP3    H125506   1.861   2.252  18.530 -0.9245 -0.6560 -0.7396
  437TIP3    H225507   1.869   2.314  18.667  2.4963 -0.6220 -0.8876
  438TIP3   OH225508   4.282   7.014  16.436  0.2638 -0.6070 -0.5540
  438TIP3    H125509   4.299   7.095  16.387  1.3614  0.0512  0.8393
  438TIP3    H225510   4.237   6.958  16.373 -2.0010  1.6294 -1.0962
  439TIP3   OH225511   0.131   1.673  18.769  0.1529  0.2597 -0.0257
  439TIP3    H125512   0.139   1.604  18.703 -0.5579  0.7380 -0.6297
  439TIP3    H225513   0.052   1.650  18.817 -0.6431  1.1613 -0.8637
  440TIP3   OH225514   2.420   2.627  17.172 -0.2836  0.3519 -0.4359
  440TIP3    H125515   2.431   2.548  17.225 -0.6398  1.0464  0.7334
  440TIP3    H225516   2.358   2.602  17.104 -0.2902 -0.4152 -0.1563
  441TIP3   OH225517   4.991   3.980  18.275  0.7772  0.2556 -0.0622
  441TIP3    H125518   4.939   4.060  18.283 -1.4599 -1.0852 -0.3933
  441TIP3    H225519   5.011   3.956  18.366 -0.1396  0.2311  0.1475
  442TIP3   OH225520   4.181   3.737  18.050 -0.0413  0.1130  0.0129
  442TIP3    H125521   4.132   3.658  18.071 -1.6199  1.4210  1.5110
  442TIP3    H225522   4.130   3.779  17.981 -1.3074  1.6788  1.8497
  443TIP3   OH225523   0.880   3.206  17.377 -0.4887 -0.0672 -0.4967
  443TIP3    H125524   0.882   3.289  17.424  3.8010 -0.5281  0.4881
  443TIP3    H225525   0.873   3.140  17.446 -1.5393 -0.6238 -1.1141
  444TIP3   OH225526   4.082   3.467  17.535  0.4637  0.4293 -0.0199
  444TIP3    H125527   4.018   3.473  17.606 -0.2696  1.6499 -0.7552
  444TIP3    H225528   4.140   3.395  17.561 -0.0588  0.5566  1.5796
  445TIP3   OH225529   0.937   1.914  19.067 -0.1291  0.0133 -0.1507
  445TIP3    H125530   0.950   2.002  19.101  0.2463 -0.8105  2.0250
  445TIP3    H225531   1.018   1.867  19.090 -0.1853 -0.8354 -1.5531
  446TIP3   OH225532   1.702   5.314  16.558  0.3898 -0.2704 -0.1348
  446TIP3    H125533   1.615   5.307  16.518 -0.4189  0.3394  1.4258
  446TIP3    H225534   1.697   5.260  16.637  0.2375  2.3501  1.8138
  447TIP3   OH225535   4.647   5.268  17.724 -0.2584 -0.6439  0.2058
  447TIP3    H125536   4.586   5.340  17.709  0.3934 -0.1038  0.0650
  447TIP3    H225537   4.719   5.284  17.663 -0.5091 -1.9226 -0.4610
  448TIP3   OH225538   5.998   5.765  17.220 -0.6490  0.0469 -0.0608
  448TIP3    H125539   6.063   5.722  17.275 -0.0039  0.7812 -0.2188
  448TIP3    H225540   5.964   5.696  17.164 -1.4767 -0.7623  1.3946
  449TIP3   OH225541   6.828   6.871  17.680  0.2681 -0.9643  0.1813
  449TIP3    H125542   6.875   6.917  17.749  0.7706 -1.2382  0.0256
  449TIP3    H225543   6.761   6.934  17.651 -0.5546 -1.1945  1.5372
  450TIP3   OH225544   7.116   5.131  16.415  0.2349  0.3635 -0.0411
  450TIP3    H125545   7.204   5.167  16.425  0.9235 -1.4613  0.9970
  450TIP3    H225546   7.122   5.076  16.336  0.7912 -1.6838  1.3474
  451TIP3   OH225547   2.200   1.806  18.768 -0.5017 -0.4430  0.2169
  451TIP3    H125548   2.218   1.844  18.682  0.2318 -1.6143 -0.1797
  451TIP3    H225549   2.283   1.764  18.793 -1.0135 -1.0080  1.0193
  452TIP3   OH225550   6.289   1.483  17.346  0.3492  0.0242  0.1558
  452TIP3    H125551   6.360   1.475  17.281  0.1486 -0.4059 -0.0154
  452TIP3    H225552   6.310   1.419  17.413  0.6447  0.5860  0.6082
  453TIP3   OH225553   0.993   5.465  18.538 -0.2371 -0.4290  0.0065
  453TIP3    H125554   0.923   5.500  18.592 -0.0431  1.5620 -0.9224
  453TIP3    H225555   0.948   5.411  18.472 -0.7261 -0.4905  0.3832
  454TIP3   OH225556   2.753   5.213  17.731 -0.0652  0.2689  0.2085
  454TIP3    H125557   2.753   5.197  17.825  0.4372  0.9790  0.3333
  454TIP3    H225558   2.663   5.238  17.711 -0.4966 -1.1357  0.2666
  455TIP3   OH225559   0.663   5.892  16.087 -0.7186 -0.6352  0.5838
  455TIP3    H125560   0.701   5.979  16.094 -1.9471 -0.0075 -0.2913
  455TIP3    H225561   0.569   5.906  16.095 -0.8660 -2.0567  1.8796
  456TIP3   OH225562   6.192   3.282  17.100  0.3340  0.7790 -0.0684
  456TIP3    H125563   6.274   3.258  17.056 -0.0144 -0.2027 -0.2094
  456TIP3    H225564   6.197   3.377  17.110  1.4251  0.7521 -0.2033
  457TIP3   OH225565   2.783   0.925  17.776 -0.2350 -0.6161  0.8165
  457TIP3    H125566   2.859   0.982  17.791 -0.1094 -0.6612  0.3686
  457TIP3    H225567   2.716   0.959  17.835 -0.1406 -0.0346  0.5979
  458TIP3   OH225568   3.310   1.380  18.460  0.0530 -0.1475  0.1810
  458TIP3    H125569   3.233   1.358  18.512 -0.0856 -0.1431 -0.0229
  458TIP3    H225570   3.359   1.298  18.453 -0.3552 -0.3470 -0.3983
  459TIP3   OH225571   6.169   4.888  17.281 -0.3975 -0.6601  0.6191
  459TIP3    H125572   6.189   4.879  17.188 -2.0686 -2.5973  0.3616
  459TIP3    H225573   6.141   4.800  17.308  0.3190 -0.2175  3.0367
  460TIP3   OH225574   4.668   5.501  17.282 -0.5643 -0.2149  0.0904
  460TIP3    H125575   4.587   5.465  17.246 -0.4049 -1.8810  1.2853
  460TIP3    H225576   4.643   5.586  17.316 -2.1918 -1.2698  1.6930
  461TIP3   OH225577   5.798   0.397  18.654  0.1789 -0.0492 -0.0297
  461TIP3    H125578   5.834   0.308  18.663  0.6329  0.1900  0.5917
  461TIP3    H225579   5.846   0.449  18.719 -0.5969  0.4970  0.1214
  462TIP3   OH225580   6.429   5.226  18.487 -0.0574  0.7291 -0.4096
  462TIP3    H125581   6.387   5.144  18.460  0.9361 -0.3132  1.0552
  462TIP3    H225582   6.358   5.277  18.528 -0.5398  0.3085 -0.7121
  463TIP3   OH225583   1.162   4.991  17.134  0.3473 -0.9142  0.3524
  463TIP3    H125584   1.236   4.974  17.075  0.7929 -2.1709  1.2431
  463TIP3    H225585   1.103   4.917  17.120  0.6725 -1.4759  1.7917
  464TIP3   OH225586   5.693   3.000  15.913 -0.2283  0.5616 -0.1827
  464TIP3    H125587   5.637   2.923  15.910  0.8567 -0.2560 -0.1045
  464TIP3    H225588   5.696   3.025  16.006  1.2236 -0.7047  0.1507
  465TIP3   OH225589   4.118   3.404  16.858  0.6547  0.1392 -0.0124
  465TIP3    H125590   4.061   3.462  16.808  0.2232  0.1346  0.4652
  465TIP3    H225591   4.060   3.336  16.891  0.8855  0.2734  0.6905
  466TIP3   OH225592   2.802   4.419  16.694  0.0948 -0.2381 -0.7433
  466TIP3    H125593   2.826   4.337  16.650 -0.1488 -0.3826 -0.6065
  466TIP3    H225594   2.886   4.464  16.707  0.2793 -0.6675 -0.4143
  467TIP3   OH225595   5.456   5.268  16.305 -0.0582 -0.7076 -0.4222
  467TIP3    H125596   5.458   5.213  16.227 -2.9123 -2.2196  0.4443
  467TIP3    H225597   5.424   5.353  16.274 -0.0172 -0.9300 -1.0742
  468TIP3   OH225598   4.742   0.878  17.846 -0.3320 -0.3277 -0.7718
  468TIP3    H125599   4.815   0.818  17.860 -1.8650 -2.3809 -1.0457
  468TIP3    H225600   4.751   0.905  17.754  0.8038  0.5133 -0.4317
  469TIP3   OH225601   0.215   6.336  16.067 -0.0695 -0.3786  0.4209
  469TIP3    H125602   0.299   6.293  16.049  0.9553  1.1155  1.4284
  469TIP3    H225603   0.154   6.295  16.005  1.3645 -1.5666 -0.2820
  470TIP3   OH225604   5.326   5.955  16.271  0.3099 -0.0650 -0.6074
  470TIP3    H125605   5.237   5.985  16.287  0.1759 -0.4099 -0.7003
  470TIP3    H225606   5.366   5.950  16.358 -0.1177 -1.0118 -0.4529
  471TIP3   OH225607   6.046   4.755  16.257  0.1108 -0.4484 -0.6085
  471TIP3    H125608   5.999   4.832  16.288  0.1396 -1.8608  3.5323
  471TIP3    H225609   5.985   4.682  16.270  2.1361 -1.8850  1.8388
  472TIP3   OH225610   0.870   6.151  17.636 -0.1373 -0.7325 -0.0509
  472TIP3    H125611   0.963   6.134  17.619 -0.1723 -0.9164 -0.0622
  472TIP3    H225612   0.863   6.155  17.731 -0.2489 -1.4840 -0.0256
  473TIP3   OH225613   4.239   1.139  17.630 -0.3930  0.4220 -0.2163
  473TIP3    H125614   4.314   1.080  17.639 -1.1021 -0.4211  0.3706
  473TIP3    H225615   4.260   1.214  17.686  0.6102  0.8454 -1.1256
  474TIP3   OH225616   0.032   0.661  18.205  0.2520 -0.1932  0.0543
  474TIP3    H125617   0.056   0.656  18.112  0.2636  1.5113 -0.0554
  474TIP3    H225618  -0.058   0.630  18.208  0.4517 -0.8535 -0.4183
  475TIP3   OH225619   0.186   4.297  18.875 -0.2107 -0.0190 -0.1688
  475TIP3    H125620   0.270   4.286  18.831  0.0703  0.9336  0.0944
  475TIP3    H225621   0.182   4.390  18.896 -0.6929 -0.3095  1.1146
  476TIP3   OH225622   5.818   6.800  18.377 -0.1784 -0.4701  0.3484
  476TIP3    H125623   5.758   6.860  18.333  0.3805  0.3516  0.6805
  476TIP3    H225624   5.845   6.847  18.456 -0.9999 -1.8406  1.4822
  477TIP3   OH225625   7.410   6.840  17.637 -0.0483 -0.2168 -0.2968
  477TIP3    H125626   7.341   6.780  17.666  1.1542 -1.2730  0.5322
  477TIP3    H225627   7.420   6.902  17.709  1.4387 -1.5155  0.7010
  478TIP3   OH225628   7.394   2.410  16.547 -0.0890 -0.3852  0.0904
  478TIP3    H125629   7.476   2.449  16.578 -0.8760  1.9790 -0.5206
  478TIP3    H225630   7.331   2.482  16.551 -1.6320 -1.5641 -1.4177
  479TIP3   OH225631   2.256   2.732  17.643  0.2568 -0.1273 -0.0993
  479TIP3    H125632   2.169   2.698  17.623  0.1760  0.0318 -0.0287
  479TIP3    H225633   2.279   2.785  17.567 -1.5104  3.3308  1.4835
  480TIP3   OH225634   6.542   2.571  18.634 -0.2388 -0.0396 -0.1842
  480TIP3    H125635   6.497   2.582  18.718  0.5676 -1.2270  0.4397
  480TIP3    H225636   6.472   2.571  18.569 -0.9513  0.1539  0.5630
  481TIP3   OH225637   1.580   0.505  17.534  0.3047 -0.1194 -0.2027
  481TIP3    H125638   1.674   0.490  17.538  0.4966  0.9216 -0.5878
  481TIP3    H225639   1.542   0.417  17.529  1.2876 -0.5259 -0.7857
  482TIP3   OH225640   2.322   5.187  18.102 -0.2215 -0.2958  0.1819
  482TIP3    H125641   2.388   5.191  18.172 -1.0223 -0.1199  0.9496
  482TIP3    H225642   2.298   5.279  18.087 -1.4976 -0.4354  1.1167
  483TIP3   OH225643   1.295   6.853  17.002 -0.2643 -0.4873 -0.3456
  483TIP3    H125644   1.387   6.842  16.976 -0.0302 -0.7699  0.5365
  483TIP3    H225645   1.253   6.895  16.927  0.6802  0.0110 -0.6162
  484TIP3   OH225646   1.687   2.115  17.251  0.2830 -0.7851 -0.2557
  484TIP3    H125647   1.606   2.165  17.236  0.1017 -1.3270 -1.1493
  484TIP3    H225648   1.727   2.157  17.327 -0.0796  0.4505 -0.7217
  485TIP3   OH225649   5.677   3.554  17.341 -0.1634 -0.7286 -0.6319
  485TIP3    H125650   5.733   3.550  17.419 -0.7291 -1.0149 -0.2309
  485TIP3    H225651   5.686   3.644  17.310 -1.2146 -0.1203  0.7334
  486TIP3   OH225652   3.961   5.608  18.828  0.4091 -0.2395 -0.2729
  486TIP3    H125653   3.905   5.560  18.889  0.5842 -0.4482 -0.2752
  486TIP3    H225654   4.018   5.541  18.790 -0.4068 -0.2921 -1.4580
  487TIP3   OH225655   5.147   4.760  18.353 -0.1603  0.3685 -0.1538
  487TIP3    H125656   5.100   4.818  18.293 -1.2285 -1.7946 -1.5493
  487TIP3    H225657   5.202   4.706  18.296 -0.4491 -1.0957  0.8976
  488TIP3   OH225658   6.802   1.875  16.949 -0.8309 -0.1949  0.0457
  488TIP3    H125659   6.727   1.859  16.892 -0.7415 -0.6991  0.0646
  488TIP3    H225660   6.764   1.885  17.036 -0.9877  0.7696 -0.1149
  489TIP3   OH225661   5.338   1.421  18.310  0.0406 -0.4182 -0.1467
  489TIP3    H125662   5.329   1.434  18.404 -1.8207  1.0202 -0.4580
  489TIP3    H225663   5.417   1.369  18.300  0.4556 -0.3300  2.1840
  490TIP3   OH225664   4.792   2.932  17.189  0.5142 -0.1421 -0.2188
  490TIP3    H125665   4.879   2.954  17.224  1.5438 -1.1009 -2.0043
  490TIP3    H225666   4.734   2.999  17.224  2.1560  1.0653  0.3101
  491TIP3   OH225667   5.204   1.917  17.275 -0.0642  0.3032  0.0637
  491TIP3    H125668   5.127   1.967  17.248 -0.4993 -0.2342  0.2974
  491TIP3    H225669   5.277   1.978  17.263 -0.5306  0.8460 -0.0776
  492TIP3   OH225670   6.927   4.028  16.860  0.0564  0.5879  0.2944
  492TIP3    H125671   6.972   4.082  16.924 -2.8051  0.6744  2.4257
  492TIP3    H225672   6.898   3.951  16.910 -0.5703 -0.3212 -1.3923
  493TIP3   OH225673   2.457   3.154  17.476  0.2145  0.0464 -0.1474
  493TIP3    H125674   2.528   3.090  17.481 -0.4917 -0.6876  2.5838
  493TIP3    H225675   2.391   3.114  17.419  0.5311 -0.8658  0.1147
  494TIP3   OH225676   0.701   5.480  17.114 -0.3667 -0.1893 -0.1562
  494TIP3    H125677   0.777   5.428  17.141  0.9060  2.1891  1.1530
  494TIP3    H225678   0.689   5.458  17.022 -0.1075 -2.9644  0.3752
  495TIP3   OH225679   7.184   1.590  18.782 -0.0351 -0.5517  0.3945
  495TIP3    H125680   7.226   1.570  18.698 -0.7495  0.2076 -0.1541
  495TIP3    H225681   7.257   1.599  18.844  0.6422  0.7865 -0.5490
  496TIP3   OH225682   5.573   4.301  17.035  0.3853 -0.3456  0.0498
  496TIP3    H125683   5.536   4.372  17.087 -0.1900 -1.4870  1.2320
  496TIP3    H225684   5.498   4.254  16.999  0.7317 -0.9555  0.0984
  497TIP3   OH225685   2.748   1.797  16.700  0.0690  0.1522 -0.1243
  497TIP3    H125686   2.806   1.721  16.705 -1.2528 -0.8445  0.8669
  497TIP3    H225687   2.775   1.843  16.621  2.9612  0.3891  0.9012
  498TIP3   OH225688   2.900   2.173  18.433 -0.3473  0.0658 -0.4670
  498TIP3    H125689   2.912   2.091  18.482 -0.6378 -0.0794 -0.6342
  498TIP3    H225690   2.845   2.227  18.490  0.1820  0.3100 -0.1747
  499TIP3   OH225691   1.582   4.451  18.165 -0.0718 -0.1553 -0.5946
  499TIP3    H125692   1.625   4.373  18.202  1.3696  0.6157 -0.5734
  499TIP3    H225693   1.653   4.500  18.124 -1.0716  0.8165 -1.2061
  500TIP3   OH225694   1.987   1.239  17.254  0.8575  0.6856  0.5180
  500TIP3    H125695   2.051   1.265  17.188 -0.9347 -0.7207 -1.9333
  500TIP3    H225696   2.035   1.181  17.313  1.8369 -0.5478 -1.4088
  501TIP3   OH225697   2.070   6.737  16.871  0.3529 -0.6545  0.2056
  501TIP3    H125698   2.091   6.784  16.952  0.5833 -0.6579  0.1466
  501TIP3    H225699   2.154   6.706  16.838  0.4926  0.8862 -0.9878
  502TIP3   OH225700   1.266   2.345  17.732  0.1606  0.2416 -0.2965
  502TIP3    H125701   1.320   2.266  17.731  0.9848  0.5533  3.4921
  502TIP3    H225702   1.199   2.327  17.798  0.1119  2.4943  0.3727
  503TIP3   OH225703   7.187   0.282  16.763  0.6811 -0.6626 -0.3359
  503TIP3    H125704   7.208   0.252  16.674  1.5596  0.1784 -0.4249
  503TIP3    H225705   7.217   0.372  16.765 -0.5171 -0.2607  0.4168
  504TIP3   OH225706   7.000   4.168  16.000 -0.2544  0.0825 -0.2598
  504TIP3    H125707   6.994   4.127  16.087  0.0669 -0.0828 -0.3157
  504TIP3    H225708   6.908   4.181  15.974 -0.4020 -1.9038 -0.8650
  505TIP3   OH225709   6.187   0.094  18.372  0.0204 -0.3011  0.4719
  505TIP3    H125710   6.251   0.134  18.430  2.3332 -1.7190 -0.9277
  505TIP3    H225711   6.160   0.014  18.417  0.3200 -0.4173  0.4424
  506TIP3   OH225712   4.397   6.087  16.381 -0.3604 -0.2628  0.2439
  506TIP3    H125713   4.348   6.015  16.419 -2.5781  0.6514 -0.7067
  506TIP3    H225714   4.412   6.147  16.454 -2.1160  0.1694  0.2971
  507TIP3   OH225715   2.934   1.157  17.870 -1.2802 -0.4229 -0.6014
  507TIP3    H125716   2.960   1.199  17.788  1.6148 -0.5843  0.1420
  507TIP3    H225717   2.974   1.211  17.938 -0.2639 -2.4535  0.5120
  508TIP3   OH225718   4.280   1.110  17.215 -0.5907  0.1093 -0.1378
  508TIP3    H125719   4.225   1.175  17.258  1.5335  1.5767  0.4887
  508TIP3    H225720   4.282   1.138  17.123 -0.2155  0.5560  0.0035
  509TIP3   OH225721   5.487   3.208  17.479  0.0766 -0.4851 -0.0793
  509TIP3    H125722   5.502   3.115  17.491  0.9256 -0.4901 -1.0633
  509TIP3    H225723   5.549   3.250  17.539 -1.2173 -0.5364  1.3423
  510TIP3   OH225724   1.843   1.242  16.615  0.3069  0.1606 -0.1768
  510TIP3    H125725   1.785   1.210  16.684  0.1257 -0.0609 -0.4322
  510TIP3    H225726   1.824   1.187  16.539  1.1559 -0.2065 -0.1421
  511TIP3   OH225727   2.045   6.880  18.491  0.2762  0.0598  0.4466
  511TIP3    H125728   2.014   6.798  18.453 -1.3056 -0.1953  2.1548
  511TIP3    H225729   1.970   6.940  18.485  0.9273  0.9138  0.5776
  512TIP3   OH225730   3.755   1.753  18.808  0.2129  0.2299 -0.5065
  512TIP3    H125731   3.698   1.697  18.755  0.7495  0.9095 -1.8563
  512TIP3    H225732   3.832   1.699  18.824 -0.1309 -0.1307 -0.0408
  513TIP3   OH225733   0.998   0.071  17.684 -0.1243  0.3657 -0.0469
  513TIP3    H125734   0.967   0.045  17.771  0.2242 -1.4815 -0.4211
  513TIP3    H225735   0.923   0.113  17.643 -0.8303 -0.2651  0.5635
  514TIP3   OH225736   7.399   0.890  16.525 -0.1652  0.1616 -0.2075
  514TIP3    H125737   7.364   0.978  16.525 -0.8231 -0.0767 -1.3196
  514TIP3    H225738   7.453   0.886  16.445 -2.3775 -1.2474 -1.7428
  515TIP3   OH225739   4.581   7.010  17.664 -0.2918 -0.2093 -0.3753
  515TIP3    H125740   4.653   6.947  17.669 -0.0559  0.0278 -0.7292
  515TIP3    H225741   4.522   6.974  17.599 -0.6026 -0.5108  0.0678
  516TIP3   OH225742   4.134   4.929  18.949  0.2867 -0.6978  0.8790
  516TIP3    H125743   4.223   4.901  18.927  0.6463  1.4144 -0.6056
  516TIP3    H225744   4.138   5.025  18.950 -2.1471 -0.5233 -0.0290
  517TIP3   OH225745   4.664   3.294  16.835 -0.1382  0.3384  0.3766
  517TIP3    H125746   4.737   3.272  16.893 -0.4057 -1.7674 -0.0337
  517TIP3    H225747   4.592   3.315  16.895 -0.3996 -1.7779  0.8855
  518TIP3   OH225748   5.324   6.281  17.306 -0.1322 -0.1930  0.8780
  518TIP3    H125749   5.251   6.294  17.367 -2.8471 -1.5463 -1.8294
  518TIP3    H225750   5.319   6.188  17.283  2.6529 -0.3899  0.7306
  519TIP3   OH225751   6.913   0.548  17.130 -0.2555  0.3506  0.0057
  519TIP3    H125752   6.917   0.600  17.050 -0.8113  0.2810 -0.0753
  519TIP3    H225753   6.892   0.611  17.199  3.1313  0.9595  0.6612
  520TIP3   OH225754   4.131   2.276  17.924  0.2250  0.8592 -0.0758
  520TIP3    H125755   4.139   2.185  17.898 -0.2886  1.1426 -1.3026
  520TIP3    H225756   4.045   2.303  17.891  0.0463  1.5829  0.9220
  521TIP3   OH225757   3.297   2.703  18.592 -0.1753  0.3560  0.3028
  521TIP3    H125758   3.312   2.769  18.659 -1.3485  1.9845 -0.9436
  521TIP3    H225759   3.202   2.700  18.582 -0.0499 -0.1196 -0.9817
  522TIP3   OH225760   2.505   1.116  18.335  0.4613  0.0026  0.2386
  522TIP3    H125761   2.556   1.189  18.299 -0.1307  0.7117  0.8048
  522TIP3    H225762   2.559   1.082  18.406  0.6096  0.0617  0.1567
  523TIP3   OH225763   2.899   0.015  17.022 -0.1108 -0.6628 -0.0875
  523TIP3    H125764   2.827   0.078  17.022 -0.5935 -1.1549 -2.0386
  523TIP3    H225765   2.977   0.069  17.009 -0.1496 -0.1925  1.4172
  524TIP3   OH225766   2.022   5.906  18.335 -0.2908 -0.2382  0.1484
  524TIP3    H125767   1.941   5.865  18.304 -1.6434  2.6241 -0.3787
  524TIP3    H225768   2.008   5.918  18.429 -1.1021  1.4152 -0.1474
  525TIP3   OH225769   5.167   7.471  17.661  0.2384 -0.4218  0.5956
  525TIP3    H125770   5.156   7.483  17.755  0.9659  2.1903  0.3990
  525TIP3    H225771   5.251   7.426  17.653 -0.7044 -2.4498  1.1983
  526TIP3   OH225772   1.197   1.772  17.793  0.2161  0.3094  0.7798
  526TIP3    H125773   1.135   1.705  17.821  0.0713 -0.3276 -0.9262
  526TIP3    H225774   1.275   1.723  17.768  1.0059  1.0078  1.7898
  527TIP3   OH225775   3.501   4.716  17.460 -0.0147  0.2597  0.1481
  527TIP3    H125776   3.586   4.710  17.504  0.4258 -2.3313 -0.8454
  527TIP3    H225777   3.488   4.809  17.443  2.8908  0.6817 -0.1896
  528TIP3   OH225778   5.075   1.040  17.180 -0.2659  0.4387  0.1641
  528TIP3    H125779   5.096   1.134  17.181 -0.1936  0.4239 -0.1585
  528TIP3    H225780   5.075   1.016  17.088  1.6889 -0.3252  0.3161
  529TIP3   OH225781   6.762   1.435  16.284  0.2932 -0.2232 -0.1233
  529TIP3    H125782   6.784   1.525  16.310 -0.0714 -0.0468 -0.4251
  529TIP3    H225783   6.841   1.403  16.241 -0.2783  0.6801 -1.9300
  530TIP3   OH225784   2.713   6.639  18.678 -0.1778  0.3455  0.2368
  530TIP3    H125785   2.692   6.579  18.606  0.5623 -1.1190  1.1759
  530TIP3    H225786   2.639   6.631  18.739 -0.2044  0.5999  0.2404
  531TIP3   OH225787   3.180   2.605  19.017  0.4217  0.0151 -0.1300
  531TIP3    H125788   3.270   2.608  19.047  0.7173 -1.2808 -0.8223
  531TIP3    H225789   3.151   2.516  19.035 -1.2719  0.8182  1.5560
  532TIP3   OH225790   3.481   4.614  18.309 -0.5230 -0.1414 -0.2111
  532TIP3    H125791   3.459   4.549  18.242  0.6750 -0.3492 -0.4256
  532TIP3    H225792   3.574   4.601  18.324 -0.6001  0.5096  0.8629
  533TIP3   OH225793   6.516   6.074  17.493  0.0016  0.5332 -0.0467
  533TIP3    H125794   6.526   5.982  17.467  0.1137  0.4469  0.2948
  533TIP3    H225795   6.593   6.117  17.457  2.0676 -0.2296  3.0453
  534TIP3   OH225796   3.616   3.037  17.551  0.5329 -0.0431  0.2612
  534TIP3    H125797   3.573   3.056  17.467 -0.9603  0.8544  1.1988
  534TIP3    H225798   3.581   2.952  17.577 -0.0613  0.3116  0.6304
  535TIP3   OH225799   2.503   4.458  17.478 -0.4701 -0.4727 -0.0684
  535TIP3    H125800   2.466   4.385  17.527  0.7393 -1.6731 -0.8683
  535TIP3    H225801   2.598   4.448  17.486 -0.2609  0.2415 -1.2749
  536TIP3   OH225802   5.043   4.334  18.262 -0.1426 -0.6242  0.0427
  536TIP3    H125803   5.098   4.314  18.337 -0.0024 -1.0024 -0.1564
  536TIP3    H225804   5.085   4.410  18.221 -0.4780 -0.1221  0.6033
  537TIP3   OH225805   2.062   2.864  17.449 -0.1347  0.3799  0.3907
  537TIP3    H125806   2.012   2.831  17.374 -0.1954 -1.4519  1.1826
  537TIP3    H225807   2.141   2.903  17.411  0.4831 -1.6964 -0.5911
  538TIP3   OH225808   5.278   6.593  17.757 -0.0414  0.6198 -0.5026
  538TIP3    H125809   5.372   6.573  17.766 -0.2913 -0.5116 -0.2752
  538TIP3    H225810   5.272   6.643  17.676  0.8135  1.0919 -0.2904
  539TIP3   OH225811   2.865   5.357  16.737 -0.4308  0.4771 -0.2950
  539TIP3    H125812   2.943   5.315  16.702 -1.1188 -0.6719 -0.4981
  539TIP3    H225813   2.882   5.365  16.831  0.3035  1.0902 -0.4745
  540TIP3   OH225814   2.829   0.674  18.545  0.2195  0.3583  0.1212
  540TIP3    H125815   2.773   0.696  18.470  0.0529 -0.4435 -0.0014
  540TIP3    H225816   2.856   0.759  18.580 -0.0160  0.7489 -0.6092
  541TIP3   OH225817   0.937   0.898  18.288  0.0936  0.3563  0.0010
  541TIP3    H125818   0.846   0.885  18.263  0.2712 -0.6444 -0.1724
  541TIP3    H225819   0.950   0.839  18.363  0.4975  0.7763  0.2686
  542TIP3   OH225820   5.476   6.729  17.144 -0.0408 -0.1030 -0.1543
  542TIP3    H125821   5.447   6.800  17.086 -1.3768  1.2192  1.9971
  542TIP3    H225822   5.423   6.653  17.117  0.4013  0.0657 -1.5633
  543TIP3   OH225823   3.114   2.648  16.968 -0.5859  0.3480  0.1042
  543TIP3    H125824   3.138   2.728  17.015  1.3432 -0.4940  0.6766
  543TIP3    H225825   3.120   2.671  16.875  3.2253  0.1774  0.1283
  544TIP3   OH225826   7.480   5.430  18.290 -0.0629  0.7676  0.4218
  544TIP3    H125827   7.528   5.353  18.262 -1.2353  0.2291 -0.1932
  544TIP3    H225828   7.479   5.488  18.214 -2.0055 -0.0742 -0.2728
  545TIP3   OH225829   1.966   4.258  17.267  0.3165  0.0606  0.6462
  545TIP3    H125830   2.051   4.301  17.269  0.0476  0.6071  0.3848
  545TIP3    H225831   1.986   4.165  17.283  1.1224 -0.0654 -0.9221
  546TIP3   OH225832   0.370   6.732  16.598 -0.2990  0.3514 -0.3280
  546TIP3    H125833   0.407   6.773  16.676 -0.2316  1.2985 -0.8369
  546TIP3    H225834   0.407   6.644  16.597 -2.0006 -0.4824  1.8927
  547TIP3   OH225835   4.095   6.767  16.685 -0.6078  0.0103 -0.0625
  547TIP3    H125836   4.023   6.722  16.730 -0.5709 -1.7412 -1.6249
  547TIP3    H225837   4.053   6.841  16.641 -0.8099  1.1405  1.8954
  548TIP3   OH225838   5.765   6.844  17.025 -0.3115 -0.3357 -1.0949
  548TIP3    H125839   5.696   6.820  17.088  1.7062 -0.5434  1.1937
  548TIP3    H225840   5.787   6.761  16.983  0.6270 -0.9340  0.4640
  549TIP3   OH225841   6.018   1.491  16.332  0.4453 -0.2922 -0.3426
  549TIP3    H125842   6.046   1.582  16.339 -0.7965  0.0304  0.6147
  549TIP3    H225843   5.926   1.495  16.306 -0.0971 -1.2003  1.2778
  550TIP3   OH225844   4.080   6.899  18.471  0.4075  0.2227 -0.3544
  550TIP3    H125845   4.170   6.924  18.488  0.4033  1.0424 -1.4352
  550TIP3    H225846   4.073   6.809  18.504  1.1268  0.7337  1.2648
  551TIP3   OH225847   5.409   1.442  17.348 -0.6280 -0.0700  0.1942
  551TIP3    H125848   5.359   1.523  17.357 -0.4319 -0.0610  1.2524
  551TIP3    H225849   5.407   1.423  17.254 -1.7672  0.4615  0.0977
  552TIP3   OH225850   5.835   1.925  18.288 -0.0589 -0.0682  0.2727
  552TIP3    H125851   5.764   1.861  18.284 -1.0922  1.0469  0.1945
  552TIP3    H225852   5.915   1.872  18.284 -0.8402 -1.4814  2.0178
  553TIP3   OH225853   0.149   2.585  17.424 -0.1464 -0.0868 -0.3409
  553TIP3    H125854   0.211   2.618  17.489  1.4459 -1.5024 -1.0555
  553TIP3    H225855   0.161   2.490  17.426  1.5997 -0.1485 -4.1148
  554TIP3   OH225856   3.170   4.543  18.568  0.1496 -0.2334 -0.3726
  554TIP3    H125857   3.254   4.589  18.562  0.0456 -0.0161 -0.1683
  554TIP3    H225858   3.188   4.456  18.532  0.9100 -0.7940  1.2539
  555TIP3   OH225859   0.307   2.139  17.522 -0.4060 -0.1991  0.1450
  555TIP3    H125860   0.270   2.055  17.494 -1.6293  0.2589  0.3368
  555TIP3    H225861   0.289   2.142  17.616 -1.1777  0.6672 -0.0212
  556TIP3   OH225862   5.629   2.302  18.536  0.3579  0.1722  0.6667
  556TIP3    H125863   5.659   2.287  18.446  1.3387 -2.5101  1.3530
  556TIP3    H225864   5.541   2.338  18.525  0.7296  0.6256 -1.3592
  557TIP3   OH225865   0.977   0.202  18.478  0.1301  0.0699  0.7188
  557TIP3    H125866   0.966   0.237  18.567 -0.7181  1.2335  0.1888
  557TIP3    H225867   0.914   0.130  18.473 -0.5799  0.6716  0.7458
  558TIP3   OH225868   5.917   4.604  18.038  0.2613  1.0769 -0.2901
  558TIP3    H125869   5.988   4.631  17.981  0.4907  0.0285 -0.5230
  558TIP3    H225870   5.947   4.521  18.076 -0.4359  1.1046  0.3437
  559TIP3   OH225871   3.474   2.272  18.671  0.6568  0.1376 -0.1428
  559TIP3    H125872   3.392   2.317  18.692  1.4347  2.1873 -1.2017
  559TIP3    H225873   3.536   2.304  18.737  1.3249  1.0149 -1.1591
  560TIP3   OH225874   3.453   3.714  16.075  0.3203 -0.3922 -0.4822
  560TIP3    H125875   3.427   3.622  16.081 -2.9550  0.3245 -1.5431
  560TIP3    H225876   3.473   3.727  15.983  1.1898 -0.1048 -0.2624
  561TIP3   OH225877   1.348   4.183  18.883  0.1821 -0.5152 -0.0624
  561TIP3    H125878   1.254   4.198  18.887  0.2756  0.3752 -0.7509
  561TIP3    H225879   1.387   4.270  18.896  0.8496 -0.6199 -1.1946
  562TIP3   OH225880   5.888   4.088  18.830 -0.1976 -0.4648 -0.6240
  562TIP3    H125881   5.914   4.180  18.835 -0.2809 -0.4831  0.1917
  562TIP3    H225882   5.969   4.039  18.841 -0.3153 -0.4990  0.1351
  563TIP3   OH225883   6.810   1.936  17.752 -0.0724 -0.7705  0.0022
  563TIP3    H125884   6.845   1.858  17.795 -0.5590 -1.1522 -0.2860
  563TIP3    H225885   6.872   1.954  17.682  0.6559 -0.2204  0.7618
  564TIP3   OH225886   7.319   4.238  17.170 -0.0586 -0.2480 -0.4041
  564TIP3    H125887   7.362   4.315  17.133  0.7527 -1.0687 -1.2152
  564TIP3    H225888   7.230   4.268  17.190  0.7664  1.3927  1.0560
  565TIP3   OH225889   5.691   5.405  16.990 -0.6523  0.1287 -0.0501
  565TIP3    H125890   5.702   5.351  17.069 -1.3462 -0.3548 -0.2740
  565TIP3    H225891   5.712   5.346  16.918 -0.1948  0.5206 -0.2451
  566TIP3   OH225892   5.830   0.067  17.339 -0.2197 -0.4149  0.2380
  566TIP3    H125893   5.817   0.091  17.431  1.0801  0.8347  0.1239
  566TIP3    H225894   5.904   0.007  17.340  0.6153  0.5925 -0.1039
  567TIP3   OH225895   0.796   2.139  16.603 -0.0377  0.2066  0.4316
  567TIP3    H125896   0.851   2.149  16.681  0.1432 -1.0644  0.4915
  567TIP3    H225897   0.858   2.140  16.530 -0.1624  0.9609  0.3357
  568TIP3   OH225898   6.950   4.751  18.571 -0.3772  0.0868  0.3327
  568TIP3    H125899   6.878   4.780  18.627 -1.7644 -1.5472 -0.5128
  568TIP3    H225900   6.935   4.658  18.559  0.9575  0.0289 -1.2304
  569TIP3   OH225901   1.958   4.772  18.669 -0.1103  0.1969  0.2563
  569TIP3    H125902   1.865   4.784  18.690 -0.3119  1.9217 -1.3225
  569TIP3    H225903   2.004   4.823  18.736 -0.3545  0.1259  0.4803
  570TIP3   OH225904   2.208   4.796  17.124  0.4316  0.3236 -0.5625
  570TIP3    H125905   2.134   4.757  17.171  0.5217  0.7432 -0.0621
  570TIP3    H225906   2.241   4.725  17.069 -1.2660  0.5293 -1.9500
  571TIP3   OH225907   1.019   2.245  17.903  0.2567 -0.2119  0.4089
  571TIP3    H125908   1.036   2.246  17.998  0.7063 -1.1587  0.3418
  571TIP3    H225909   0.970   2.164  17.889 -0.1678  0.1289 -0.1228
  572TIP3   OH225910   4.439   5.380  17.267  0.6538 -0.3189  0.0127
  572TIP3    H125911   4.418   5.291  17.239  3.1403 -1.3364  1.0859
  572TIP3    H225912   4.356   5.416  17.299 -0.5777 -1.9034 -1.2686
  573TIP3   OH225913   0.296   5.856  17.337  0.6075  0.8944 -0.0940
  573TIP3    H125914   0.329   5.819  17.255  0.9459 -0.3272  0.5706
  573TIP3    H225915   0.374   5.873  17.389  0.3219  0.3949  0.5019
  574TIP3   OH225916   2.201   5.603  16.194  0.3405 -0.1744 -0.0860
  574TIP3    H125917   2.213   5.647  16.110  1.1946 -0.3542 -0.0617
  574TIP3    H225918   2.290   5.585  16.225  0.0776  0.8598  1.3690
  575TIP3   OH225919   4.080   0.992  16.662 -0.0112  0.3966 -0.3399
  575TIP3    H125920   4.045   1.050  16.595  1.0009  1.2710 -0.1520
  575TIP3    H225921   4.073   0.904  16.624 -0.2298  0.7912 -1.2381
  576TIP3   OH225922   3.975   4.648  18.551 -0.0879 -0.0498  0.0099
  576TIP3    H125923   4.048   4.630  18.611 -0.3037 -2.4601 -0.3600
  576TIP3    H225924   4.015   4.696  18.479  0.8233  0.0036  0.5352
  577TIP3   OH225925   5.545   5.484  18.345  0.1046  0.0057  0.0779
  577TIP3    H125926   5.527   5.473  18.252  1.2315 -0.0483 -0.1468
  577TIP3    H225927   5.573   5.576  18.354  1.5870 -0.4198  0.0676
  578TIP3   OH225928   5.470   2.402  17.670 -0.3655 -0.1853 -0.0819
  578TIP3    H125929   5.492   2.343  17.597  1.9941  0.7498 -0.2125
  578TIP3    H225930   5.554   2.439  17.697 -1.3882  0.7211  2.0893
  579TIP3   OH225931   7.388   3.296  18.053  0.0166  0.3996 -0.1234
  579TIP3    H125932   7.433   3.283  17.970  0.4451 -0.6896  0.2645
  579TIP3    H225933   7.457   3.288  18.119 -0.5755 -0.3140  0.4245
  580TIP3   OH225934   2.293   6.353  17.244  0.1718 -0.2671  0.7448
  580TIP3    H125935   2.246   6.270  17.251  0.4052 -0.5218 -0.5437
  580TIP3    H225936   2.362   6.347  17.310 -0.7530 -0.4379  1.7299
  581TIP3   OH225937   1.476   2.488  17.519  0.3732 -0.3715  1.0469
  581TIP3    H125938   1.390   2.493  17.477  1.2316 -2.6193 -1.2255
  581TIP3    H225939   1.474   2.406  17.568  0.7415  0.3358  2.3015
  582TIP3   OH225940   3.871   0.545  17.384 -0.0139 -0.1236 -0.4059
  582TIP3    H125941   3.962   0.530  17.358  0.0179 -0.8773  0.1206
  582TIP3    H225942   3.865   0.640  17.395  0.2115  0.1403 -2.2506
  583TIP3   OH225943   4.717   1.151  17.420  0.5217 -0.1537  0.4131
  583TIP3    H125944   4.667   1.173  17.498 -0.2807 -0.1982 -0.0793
  583TIP3    H225945   4.678   1.202  17.350  2.9283  1.9748  0.4700
  584TIP3   OH225946   3.187   2.666  17.875 -0.0033  0.2961  0.1842
  584TIP3    H125947   3.247   2.607  17.921  0.0078 -0.4215 -0.7170
  584TIP3    H225948   3.199   2.644  17.783 -0.1143  1.6149 -0.1657
  585TIP3   OH225949   2.723   6.554  17.354 -0.0344 -0.0090 -0.1093
  585TIP3    H125950   2.715   6.541  17.259 -0.2062 -1.7101  0.0983
  585TIP3    H225951   2.807   6.515  17.377 -0.1893  0.0048  0.5012
  586TIP3   OH225952   5.304   2.641  18.832  0.0818  0.0307 -0.3786
  586TIP3    H125953   5.321   2.645  18.738 -0.5987  0.4206 -0.4892
  586TIP3    H225954   5.273   2.729  18.855 -0.9284 -0.3981 -0.0281
  587TIP3   OH225955   2.618   4.565  18.482  0.4168  0.6058  1.0649
  587TIP3    H125956   2.646   4.523  18.400 -0.7725  0.2961  0.8037
  587TIP3    H225957   2.687   4.629  18.500  0.8284  0.5035 -0.0407
  588TIP3   OH225958   2.213   5.000  16.913  0.3043 -0.5415 -0.3560
  588TIP3    H125959   2.206   4.951  16.995 -1.4599 -0.7560 -0.5929
  588TIP3    H225960   2.140   5.061  16.915  2.2658  1.9659 -0.2318
  589TIP3   OH225961   1.930   5.315  17.017 -0.0337  0.2254  0.2748
  589TIP3    H125962   1.980   5.293  16.939  0.2445 -2.6539  1.1352
  589TIP3    H225963   1.965   5.257  17.085 -2.6539  0.0159  1.6010
  590TIP3   OH225964   4.640   4.977  16.748  0.9110 -0.0094 -0.0070
  590TIP3    H125965   4.712   4.978  16.811  0.4858  2.0867  0.5045
  590TIP3    H225966   4.676   5.016  16.669  0.8762 -0.8089 -0.4314
  591TIP3   OH225967   3.002   4.421  19.073  0.0455  0.2162 -0.3235
  591TIP3    H125968   3.051   4.484  19.127  2.1773 -1.4385 -0.2076
  591TIP3    H225969   3.019   4.449  18.983 -0.5208  0.8355 -0.2512
  592TIP3   OH225970   5.599   3.800  17.839  0.1977 -0.7942  0.7223
  592TIP3    H125971   5.507   3.822  17.824  0.7362  0.9969 -0.2312
  592TIP3    H225972   5.623   3.745  17.765  0.6445  1.2387 -0.7294
  593TIP3   OH225973   1.968   3.449  18.360 -0.2611 -0.8447 -0.2012
  593TIP3    H125974   1.924   3.382  18.412 -0.6553  0.8203  1.7296
  593TIP3    H225975   1.947   3.532  18.404 -0.1434  0.6326 -2.7049
  594TIP3   OH225976   2.936   2.415  17.008 -0.2658  0.5203 -0.2751
  594TIP3    H125977   2.991   2.342  17.037 -0.3212  1.0880  1.3738
  594TIP3    H225978   2.991   2.492  17.021 -1.2680  1.0561  1.0129
  595TIP3   OH225979   6.055   1.751  16.389  0.1565  0.6498 -0.5316
  595TIP3    H125980   5.969   1.785  16.413  0.8801  2.0693  0.2431
  595TIP3    H225981   6.106   1.830  16.368  1.6369 -0.0219  0.3647
  596TIP3   OH225982   2.428   1.954  17.004 -0.0348  0.1360 -0.0124
  596TIP3    H125983   2.494   2.019  17.028  1.5981 -0.8027 -1.6934
  596TIP3    H225984   2.478   1.876  16.981 -1.8974 -1.5948  1.3728
  597TIP3   OH225985   0.017   1.028  18.746  0.3245  0.1448 -0.3775
  597TIP3    H125986   0.069   0.983  18.679  2.1120 -0.3596  1.2464
  597TIP3    H225987   0.072   1.026  18.824 -0.4675  3.2431  0.3799
  598TIP3   OH225988   0.222   4.894  19.067 -0.3071  0.0592 -0.0730
  598TIP3    H125989   0.229   4.890  18.972  1.1869 -1.3724  0.0478
  598TIP3    H225990   0.139   4.939  19.083 -0.4949  0.5175 -2.0325
  599TIP3   OH225991   3.317   0.548  18.648 -0.0641  0.1087 -0.0039
  599TIP3    H125992   3.404   0.577  18.623 -0.1600  1.2051  0.8753
  599TIP3    H225993   3.328   0.455  18.671  1.1429  0.5372  1.2950
  600TIP3   OH225994   1.340   5.554  17.417 -0.1337  0.0434  0.3977
  600TIP3    H125995   1.254   5.544  17.458 -0.6766 -1.3135 -1.0040
  600TIP3    H225996   1.395   5.488  17.460  0.1733  0.7370  1.1097
  601TIP3   OH225997   2.430   1.659  18.785 -0.1002  0.4141  0.6754
  601TIP3    H125998   2.508   1.707  18.810  0.7486 -1.1691  1.1945
  601TIP3    H225999   2.433   1.656  18.689  0.6546  0.0893  0.7042
  602TIP3   OH226000   2.290   5.741  15.965  0.0470  0.1057  0.3444
  602TIP3    H126001   2.214   5.796  15.944 -1.4933 -2.6280 -1.9241
  602TIP3    H226002   2.365   5.789  15.931 -0.9937  1.5689  0.0320
  603TIP3   OH226003   1.456   6.633  18.089  0.6752 -0.0539  0.5790
  603TIP3    H126004   1.521   6.613  18.155  1.0533 -1.7820 -0.2653
  603TIP3    H226005   1.395   6.559  18.092  0.2340  0.2529 -0.4249
  604TIP3   OH226006   6.037   0.858  18.608  0.5778 -0.1356 -0.1739
  604TIP3    H126007   6.040   0.774  18.563  0.8566  0.1160 -0.6408
  604TIP3    H226008   6.122   0.865  18.652  1.9595  1.3250 -2.8302
  605TIP3   OH226009   7.380   1.162  16.183  0.0763  0.1562  0.5645
  605TIP3    H126010   7.417   1.248  16.202  2.3178 -0.8328  1.0155
  605TIP3    H226011   7.455   1.103  16.184 -1.3294 -1.7453 -0.2192
  606TIP3   OH226012   5.786   3.427  17.105 -0.7610 -0.1443 -0.1192
  606TIP3    H126013   5.865   3.450  17.154 -0.5854 -0.9987  0.0082
  606TIP3    H226014   5.715   3.443  17.167 -0.7523  1.1259 -0.4020
  607TIP3   OH226015   5.725   2.025  17.762 -0.0349  0.2614 -0.0871
  607TIP3    H126016   5.744   1.986  17.676  0.6283  3.6007 -1.6073
  607TIP3    H226017   5.773   1.970  17.824 -0.3333 -2.1102 -1.8156
  608TIP3   OH226018   0.780   7.425  17.348 -0.7050  0.1681  0.5924
  608TIP3    H126019   0.740   7.473  17.421 -2.6625 -0.7530  0.1992
  608TIP3    H226020   0.828   7.354  17.390 -1.4774 -0.1153  1.0262
  609TIP3   OH226021   4.319   1.514  17.483 -1.2498 -0.1347  0.1119
  609TIP3    H126022   4.355   1.466  17.558 -1.0469 -1.6522 -0.9115
  609TIP3    H226023   4.330   1.607  17.507  1.1701 -0.5288  0.8940
  610TIP3   OH226024   6.819   0.523  16.313  0.3144  0.3890 -0.4405
  610TIP3    H126025   6.833   0.543  16.220 -0.0221  0.0280 -0.5680
  610TIP3    H226026   6.907   0.523  16.350  0.6808 -1.6166 -1.1937
  611TIP3   OH226027   6.968   0.927  18.937 -0.2863  0.5677 -0.2675
  611TIP3    H126028   6.933   0.933  19.026 -0.1360  0.1293 -0.1811
  611TIP3    H226029   6.951   1.014  18.900 -1.2990  0.4290 -0.1666
  612TIP3   OH226030   6.962   3.433  18.208 -0.2202  0.1493 -0.2168
  612TIP3    H126031   6.923   3.352  18.240  0.5385 -0.0881  0.1317
  612TIP3    H226032   6.912   3.503  18.250 -0.3711 -0.1481  0.0982
  613TIP3   OH226033   2.481   1.232  18.701 -0.1256  0.3523 -0.1377
  613TIP3    H126034   2.421   1.196  18.766  1.2875 -1.3330  0.3138
  613TIP3    H226035   2.536   1.293  18.751 -1.7916  2.3883 -0.6776
  614TIP3   OH226036   1.861   5.239  17.602 -0.2214 -0.3817  0.6183
  614TIP3    H126037   1.943   5.284  17.619  1.5563 -2.6912 -1.1666
  614TIP3    H226038   1.801   5.271  17.670  2.4817  0.4681  2.7754
  615TIP3   OH226039   4.708   4.746  16.593  0.1219  0.9315 -0.0184
  615TIP3    H126040   4.654   4.820  16.621 -1.3110 -0.4476  1.0199
  615TIP3    H226041   4.654   4.700  16.529  0.7144  0.3735 -0.1263
  616TIP3   OH226042   6.742   3.899  17.044  0.5170  0.0221 -0.0355
  616TIP3    H126043   6.705   3.988  17.041 -0.9490 -0.5395  0.6350
  616TIP3    H226044   6.682   3.850  17.101  1.8264 -1.1697  0.3600
  617TIP3   OH226045   3.365   2.292  18.325 -0.2334  0.3192 -0.4325
  617TIP3    H126046   3.341   2.199  18.331 -0.9126  0.4977 -0.2601
  617TIP3    H226047   3.305   2.336  18.385  0.7933  0.7505  0.3182
  618TIP3   OH226048   3.764   5.507  17.067 -0.4743 -0.0362  0.3002
  618TIP3    H126049   3.707   5.557  17.127 -0.6592  0.2213 -0.0821
  618TIP3    H226050   3.852   5.517  17.104 -0.5940  0.0727  0.5630
  619TIP3   OH226051   3.736   4.686  16.544 -0.4426  0.3096 -0.2108
  619TIP3    H126052   3.737   4.665  16.637  1.9369 -0.9514 -0.4462
  619TIP3    H226053   3.801   4.756  16.534 -1.1567  0.9112 -0.8601
  620TIP3   OH226054   4.216   4.354  17.873  0.0411 -0.1215 -0.2434
  620TIP3    H126055   4.165   4.300  17.813 -1.6234  2.0603 -0.8922
  620TIP3    H226056   4.241   4.294  17.944 -1.4519 -1.7851 -1.0551
  621TIP3   OH226057   3.546   3.087  17.824  0.5937  0.1130 -0.3473
  621TIP3    H126058   3.571   3.067  17.733  5.2604 -1.1125  0.9676
  621TIP3    H226059   3.512   3.004  17.858  2.3903 -0.5432 -0.0428
  622TIP3   OH226060   5.667   2.160  18.303 -0.7848 -0.0755  0.0148
  622TIP3    H126061   5.636   2.180  18.215 -1.4037 -1.0006  0.0123
  622TIP3    H226062   5.725   2.084  18.292 -0.1801  0.3370  0.2961
  623TIP3   OH226063   0.790   3.385  18.454  1.1641  0.0478 -0.5579
  623TIP3    H126064   0.818   3.432  18.375  1.4050  1.0875  0.1153
  623TIP3    H226065   0.776   3.455  18.519  0.7039 -0.7631  0.2348
  624TIP3   OH226066   7.218   3.210  16.003 -0.2611  0.3215  0.5309
  624TIP3    H126067   7.188   3.252  15.922  1.9755 -0.8251 -1.0130
  624TIP3    H226068   7.152   3.143  16.022  0.9431 -2.0201 -2.6389
  625TIP3   OH226069   3.216   3.262  18.827 -0.1025  0.3172  0.5741
  625TIP3    H126070   3.296   3.307  18.856  0.7937 -0.0348 -1.2168
  625TIP3    H226071   3.174   3.324  18.767 -1.5182  0.7224  1.9151
  626TIP3   OH226072   4.708   5.837  18.017 -0.1037  0.7753 -0.1739
  626TIP3    H126073   4.701   5.796  18.104  0.8130  1.0256  0.0247
  626TIP3    H226074   4.777   5.788  17.973 -1.6630 -0.4382 -1.4023
  627TIP3   OH226075   3.397   2.114  17.582 -0.4913 -0.8484 -0.5505
  627TIP3    H126076   3.417   2.160  17.500 -1.1847  0.2614 -0.1249
  627TIP3    H226077   3.327   2.166  17.622 -0.5259 -1.6697  0.5013
  628TIP3   OH226078   2.061   1.372  18.726  0.2059 -0.2015  0.5362
  628TIP3    H126079   2.122   1.335  18.663  1.3563  0.9295  0.9414
  628TIP3    H226080   2.114   1.389  18.804 -0.9400 -0.5277  1.4319
  629TIP3   OH226081   4.735   7.472  16.476 -0.4553  0.4961  0.2260
  629TIP3    H126082   4.743   7.560  16.438  0.5949 -0.1673 -1.1769
  629TIP3    H226083   4.648   7.443  16.450 -1.0165  1.2936  1.1376
  630TIP3   OH226084   2.150   1.606  17.729  0.0362 -0.4257  0.9501
  630TIP3    H126085   2.219   1.545  17.754 -0.4531 -0.7609  1.5152
  630TIP3    H226086   2.162   1.619  17.635  1.3057  0.0753  1.1567
  631TIP3   OH226087   5.276   5.788  16.617 -0.0619 -0.3559  0.0662
  631TIP3    H126088   5.305   5.876  16.596 -0.7486 -0.2464 -0.4652
  631TIP3    H226089   5.275   5.742  16.533  0.6000 -0.9655  0.3822
  632TIP3   OH226090   6.967   3.885  17.741  0.3898  0.0671 -0.0767
  632TIP3    H126091   6.934   3.804  17.702  0.0713  0.8900 -1.5973
  632TIP3    H226092   6.889   3.938  17.758  0.6655  0.5317 -0.2324
  633TIP3   OH226093   6.939   0.066  19.101  0.4031 -0.2111  0.0480
  633TIP3    H126094   6.960   0.157  19.121 -0.4970 -0.0439  0.2688
  633TIP3    H226095   7.022   0.028  19.073  1.1193  0.2798  1.4249
  634TIP3   OH226096   2.344   0.191  18.465 -0.0858 -0.3807 -0.1757
  634TIP3    H126097   2.299   0.214  18.546 -0.9919 -0.6031 -0.6034
  634TIP3    H226098   2.312   0.103  18.444  2.2194 -1.5007  0.6648
  635TIP3   OH226099   3.857   1.145  17.308  0.2963  0.2469 -0.1480
  635TIP3    H126100   3.941   1.102  17.293  0.2496 -0.0259  0.3282
  635TIP3    H226101   3.792   1.077  17.294  0.2029  0.2417  0.2798
  636TIP3   OH226102   6.137   5.095  17.441  0.7822  0.6794 -0.2407
  636TIP3    H126103   6.083   5.050  17.504  1.7091  1.9971  1.5846
  636TIP3    H226104   6.155   5.030  17.373 -2.2495 -0.0488 -0.4690
  637TIP3   OH226105   4.569   4.137  17.747  0.1700 -0.1301 -0.2678
  637TIP3    H126106   4.570   4.148  17.652 -0.3708 -1.7868 -0.4956
  637TIP3    H226107   4.481   4.107  17.767  0.3261  0.0598  0.7417
  638TIP3   OH226108   4.938   1.695  19.127  0.3854 -0.9181  0.3136
  638TIP3    H126109   4.946   1.600  19.118 -1.3503 -0.9452 -1.6422
  638TIP3    H226110   4.846   1.713  19.112  0.7746  1.1354  0.1216
  639TIP3   OH226111   6.251   5.416  18.585  0.1071 -0.4339 -0.1155
  639TIP3    H126112   6.260   5.505  18.616  0.8903 -0.7281  0.5390
  639TIP3    H226113   6.173   5.417  18.530 -0.3868  0.4533  0.5835
  640TIP3   OH226114   3.251   4.341  18.816 -0.1825  0.3992 -1.1116
  640TIP3    H126115   3.337   4.358  18.777 -0.9826  1.6428 -2.3833
  640TIP3    H226116   3.203   4.294  18.748 -0.6944  0.1782 -0.6030
  641TIP3   OH226117   0.343   3.009  17.735  0.0155 -0.3780 -0.1823
  641TIP3    H126118   0.411   2.959  17.780  0.9499  0.7305 -0.3150
  641TIP3    H226119   0.317   2.953  17.661  0.3112 -1.0925  0.2435
  642TIP3   OH226120   2.405   0.124  17.995 -0.4246  0.0903  0.4599
  642TIP3    H126121   2.422   0.129  17.901 -1.5013 -0.7175  0.1973
  642TIP3    H226122   2.479   0.074  18.030 -1.0838 -1.5071 -0.3191
  643TIP3   OH226123   2.802   5.965  17.126 -0.0613 -0.3889  0.0798
  643TIP3    H126124   2.890   5.966  17.087  0.4260  1.3155  1.1155
  643TIP3    H226125   2.788   5.873  17.151  1.1459 -0.8141 -0.7002
  644TIP3   OH226126   4.853   0.394  17.872  0.6814  0.4482 -0.0719
  644TIP3    H126127   4.942   0.417  17.845  1.1694  0.6495  1.5818
  644TIP3    H226128   4.808   0.371  17.791  2.1473  0.6548 -0.9757
  645TIP3   OH226129   3.801   0.431  18.572 -0.2378 -0.2753  0.0970
  645TIP3    H126130   3.813   0.351  18.622 -0.5375  0.4281  1.3255
  645TIP3    H226131   3.880   0.438  18.518  1.0916  0.0444  2.0242
  646TIP3   OH226132   0.699   4.826  17.430 -0.1725 -0.1465 -0.2041
  646TIP3    H126133   0.769   4.764  17.409  1.0455  1.2035 -0.2999
  646TIP3    H226134   0.689   4.879  17.351 -0.6965  0.2371  0.1136
  647TIP3   OH226135   0.586   3.550  16.876 -0.2000  0.1527 -0.0083
  647TIP3    H126136   0.658   3.522  16.932 -1.5944 -0.5259  1.5165
  647TIP3    H226137   0.553   3.630  16.918 -0.4798  0.3517 -0.5884
  648TIP3   OH226138   4.009   6.205  17.651  0.1233 -0.8118 -0.2666
  648TIP3    H126139   4.017   6.279  17.592 -0.9110 -0.8845 -0.5096
  648TIP3    H226140   4.096   6.164  17.650 -0.0140 -1.1555 -2.1884
  649TIP3   OH226141   2.818   7.228  17.459  0.3248 -0.7530  0.9591
  649TIP3    H126142   2.789   7.292  17.394 -0.7670 -0.0225  2.1336
  649TIP3    H226143   2.801   7.143  17.419 -1.7394 -0.3279  0.8639
  650TIP3   OH226144   0.755   4.363  17.865  0.3655  0.3150 -0.0586
  650TIP3    H126145   0.787   4.284  17.908  1.0115 -0.6533 -2.1713
  650TIP3    H226146   0.662   4.366  17.886  0.8208  0.4446  2.1442
  651TIP3   OH226147   2.375   2.273  17.743  0.0620 -0.0872 -0.1397
  651TIP3    H126148   2.335   2.222  17.814 -1.4272  0.2320 -0.6940
  651TIP3    H226149   2.468   2.276  17.765  0.0522 -2.1900  0.4306
  652TIP3   OH226150   2.853   4.902  17.209 -0.2048  0.2661 -0.1500
  652TIP3    H126151   2.892   4.975  17.258 -1.1446  0.7112 -0.0337
  652TIP3    H226152   2.824   4.840  17.276  3.8789 -2.0953 -0.2751
  653TIP3   OH226153   2.216   6.082  17.201 -0.1610 -0.7859  0.3086
  653TIP3    H126154   2.305   6.075  17.235 -0.1783 -0.4871  0.4163
  653TIP3    H226155   2.198   5.996  17.164  0.5388 -0.5615 -0.5910
  654TIP3   OH226156   6.471   3.168  18.543 -0.8912 -0.0409 -0.2658
  654TIP3    H126157   6.394   3.211  18.507 -0.3797 -0.0410 -1.4010
  654TIP3    H226158   6.532   3.162  18.470  0.8653  1.4345  0.9658
  655TIP3   OH226159   3.967   6.712  18.747 -0.5728  0.1850 -0.4815
  655TIP3    H126160   4.060   6.689  18.756  0.7204  4.5364 -0.5182
  655TIP3    H226161   3.942   6.677  18.662  0.5384 -2.3175  0.1367
  656TIP3   OH226162   4.045   5.074  18.436 -0.0143 -0.4904  0.6649
  656TIP3    H126163   4.003   5.031  18.361  0.2061 -0.8503  0.7477
  656TIP3    H226164   4.097   5.144  18.397 -0.6951 -0.0281  0.5597
  657TIP3   OH226165   1.252   6.311  17.779  0.0178 -0.1421  0.3107
  657TIP3    H126166   1.306   6.390  17.784 -0.9437  0.5535  0.2454
  657TIP3    H226167   1.164   6.342  17.803 -0.0104 -1.5847  2.3080
  658TIP3   OH226168   7.307   4.741  17.707  0.0621 -0.0610  0.1869
  658TIP3    H126169   7.238   4.679  17.731 -0.2783  0.4437  0.5219
  658TIP3    H226170   7.284   4.822  17.753  1.2508 -0.0879  0.8496
  659TIP3   OH226171   0.332   2.190  18.091  0.3081  0.5666  0.0650
  659TIP3    H126172   0.279   2.144  18.156  1.7404  1.6977  2.1252
  659TIP3    H226173   0.400   2.128  18.067 -0.2184  0.1532 -0.4165
  660TIP3   OH226174   4.438   2.210  17.051  0.0097  0.0406 -0.3118
  660TIP3    H126175   4.470   2.261  16.977  0.4080 -0.9622 -0.8619
  660TIP3    H226176   4.514   2.200  17.108 -0.4463  1.3275  0.5631
  661TIP3   OH226177   3.014   2.859  17.977  0.4380  0.7567 -0.1378
  661TIP3    H126178   3.034   2.937  17.925 -0.9404  0.0076 -1.9051
  661TIP3    H226179   3.072   2.792  17.942 -0.0657  0.4038 -0.3178
  662TIP3   OH226180   2.008   1.533  18.345  0.4918  0.1340 -0.4755
  662TIP3    H126181   1.989   1.543  18.438 -1.8523  0.8948 -0.9802
  662TIP3    H226182   1.955   1.458  18.318 -0.4715  1.1722 -1.5842
  663TIP3   OH226183   5.942   7.453  16.839 -0.3161 -0.4792  0.5209
  663TIP3    H126184   6.016   7.457  16.900  0.4062  1.6661 -0.3931
  663TIP3    H226185   5.983   7.455  16.752 -1.3954 -1.2346 -0.0213
  664TIP3   OH226186   4.686   2.707  17.080  0.6246  0.7778 -0.4723
  664TIP3    H126187   4.761   2.659  17.113  0.8778  1.2230 -0.3965
  664TIP3    H226188   4.682   2.787  17.133 -1.4650 -0.4107  1.3323
  665TIP3   OH226189   2.521   0.256  18.748 -0.1943  0.3466 -0.1208
  665TIP3    H126190   2.524   0.294  18.836 -0.9905 -0.0236  0.0748
  665TIP3    H226191   2.430   0.264  18.721 -0.6178 -2.1700  0.2813
  666TIP3   OH226192   3.711   6.137  17.491 -0.0865 -0.1103 -0.3812
  666TIP3    H126193   3.687   6.058  17.540  1.6283 -0.9349 -0.7667
  666TIP3    H226194   3.805   6.146  17.508 -0.2797  1.9466 -0.2436
  667TIP3   OH226195   1.470   2.443  17.876  0.1746  0.3961 -0.2622
  667TIP3    H126196   1.526   2.505  17.830 -0.4090  1.3971  0.3428
  667TIP3    H226197   1.391   2.436  17.821 -0.2829  1.1592  0.2767
  668TIP3   OH226198   1.282   0.064  18.310  0.3418  0.3368  0.0193
  668TIP3    H126199   1.191   0.051  18.336  0.1384  0.2278 -0.7178
  668TIP3    H226200   1.282   0.052  18.215  1.6396 -2.6829  0.2823
  669TIP3   OH226201   6.569   6.986  17.743 -0.5537  0.3143 -0.0598
  669TIP3    H126202   6.526   7.068  17.767  0.5717  0.7460  0.5628
  669TIP3    H226203   6.555   6.978  17.649 -1.1793  0.9215 -0.0250
  670TIP3   OH226204   4.310   7.427  17.558  0.4106  0.0641  0.3044
  670TIP3    H126205   4.301   7.509  17.605 -0.7442 -0.2878  0.7471
  670TIP3    H226206   4.378   7.379  17.605 -0.1189  0.0738  1.1068
  671TIP3   OH226207   6.597   0.703  17.588  0.4827  0.1403 -0.3796
  671TIP3    H126208   6.669   0.705  17.651 -0.0265 -0.0635  0.2211
  671TIP3    H226209   6.622   0.765  17.521  0.6950  0.9335  0.4160
  672TIP3   OH226210   4.650   4.982  17.652 -0.7299 -0.2922 -0.0215
  672TIP3    H126211   4.655   4.992  17.557  1.2117  0.8939  0.1666
  672TIP3    H226212   4.651   5.071  17.685 -2.0913 -0.6592  1.1403
  673TIP3   OH226213   1.060   1.055  18.763  0.4898 -0.0519  0.4502
  673TIP3    H126214   1.063   1.117  18.691 -2.5634 -0.9852 -0.6236
  673TIP3    H226215   0.977   1.073  18.808  2.0247  0.1563  3.5218
  674TIP3   OH226216   1.232   0.414  17.198 -0.5627  0.4967 -0.6145
  674TIP3    H126217   1.170   0.390  17.130  0.1356 -0.4457 -0.9394
  674TIP3    H226218   1.304   0.351  17.189 -0.1976  0.7010  0.6312
  675TIP3   OH226219   7.280   4.173  17.700  0.0030  0.0816  0.6076
  675TIP3    H126220   7.225   4.234  17.652  0.7678  0.7943  0.6040
  675TIP3    H226221   7.222   4.102  17.726 -0.8698  0.7344  0.4643
  676TIP3   OH226222   2.533   1.221  17.642 -0.2234  0.3297 -0.2756
  676TIP3    H126223   2.449   1.194  17.605 -1.1271  0.6119  1.5179
  676TIP3    H226224   2.536   1.179  17.728  0.9445  1.2788  0.1687
  677TIP3   OH226225   6.303   7.025  16.359  0.4802  0.1410 -0.0084
  677TIP3    H126226   6.371   6.965  16.326 -0.2064  0.6644 -2.5868
  677TIP3    H226227   6.342   7.112  16.350  0.8562  0.2723  2.2015
  678TIP3   OH226228   1.243   2.371  16.985  0.0775 -0.4279  0.2837
  678TIP3    H126229   1.248   2.428  16.908  0.7906  0.6022  1.0551
  678TIP3    H226230   1.213   2.429  17.055 -1.9910 -1.6767  0.5092
  679TIP3   OH226231   3.007   0.454  18.007 -0.1905 -1.0606  0.2500
  679TIP3    H126232   3.078   0.440  17.944  0.9483 -0.3719  1.3341
  679TIP3    H226233   2.972   0.366  18.024 -0.4045 -1.2760 -1.1765
  680TIP3   OH226234   3.594   4.339  18.237 -0.0653  0.1132  0.1117
  680TIP3    H126235   3.678   4.385  18.241  0.3003 -0.5921  1.4314
  680TIP3    H226236   3.570   4.327  18.329 -0.5609 -1.5435 -0.1958
  681TIP3   OH226237   6.335   4.816  16.270 -0.0025  0.2516 -0.8341
  681TIP3    H126238   6.258   4.770  16.237  0.8126 -1.8314 -0.0308
  681TIP3    H226239   6.409   4.774  16.226  0.8987 -0.5317  1.2725
  682TIP3   OH226240   4.246   5.718  18.416  0.1937 -0.4122 -0.0219
  682TIP3    H126241   4.213   5.793  18.467 -1.5231 -0.7167 -0.6336
  682TIP3    H226242   4.323   5.688  18.465 -0.2534  0.5233  1.3080
  683TIP3   OH226243   6.576   1.353  17.262  0.2455  0.0368 -0.1036
  683TIP3    H126244   6.662   1.371  17.224  0.0261 -0.3869 -0.8208
  683TIP3    H226245   6.591   1.356  17.357  1.2386 -0.8769 -0.2129
  684TIP3   OH226246   3.346   2.545  17.072 -0.1349  0.2594  0.0405
  684TIP3    H126247   3.267   2.590  17.043 -0.2712 -0.0513 -0.0711
  684TIP3    H226248   3.417   2.606  17.054 -0.4279  0.8583  0.8446
  685TIP3   OH226249   4.954   3.059  17.418  0.5887 -0.3079 -0.2545
  685TIP3    H126250   5.029   3.078  17.361  2.8136 -0.6286  2.3246
  685TIP3    H226251   4.981   3.093  17.504 -2.0714 -0.8925  0.9071
  686TIP3   OH226252   6.457   0.886  17.941 -0.0813 -0.9580 -0.0795
  686TIP3    H126253   6.493   0.803  17.910 -0.2531 -1.2641  0.5059
  686TIP3    H226254   6.473   0.885  18.036  0.1287 -0.2108 -0.0958
  687TIP3   OH226255   1.313   2.211  18.105 -0.0086  0.3295 -0.2358
  687TIP3    H126256   1.241   2.217  18.167 -0.3836  1.1468 -0.7358
  687TIP3    H226257   1.309   2.121  18.072 -0.3982  0.1773  0.2111
  688TIP3   OH226258   1.362   3.019  18.159  0.0834 -0.1976  0.5651
  688TIP3    H126259   1.444   3.010  18.207 -0.6232  0.0346  1.8653
  688TIP3    H226260   1.299   2.965  18.208 -0.6839  0.1026 -0.0597
  689TIP3   OH226261   4.503   2.390  17.572 -0.0437  0.0381  0.0001
  689TIP3    H126262   4.487   2.299  17.548 -1.2808  0.7250 -2.0450
  689TIP3    H226263   4.436   2.410  17.638 -0.3474 -0.2860 -0.2073
  690TIP3   OH226264   0.222   6.726  18.719 -0.4084  0.1282  0.2394
  690TIP3    H126265   0.245   6.771  18.637  0.8944 -0.8904  0.0114
  690TIP3    H226266   0.306   6.709  18.761 -0.9525 -0.9293  0.9383
  691TIP3   OH226267   2.070   2.319  17.311  0.6234 -0.1026  0.1813
  691TIP3    H126268   2.156   2.316  17.352  1.1418  0.8688 -0.7840
  691TIP3    H226269   2.017   2.256  17.361  0.9991  1.5144  2.7864
  692TIP3   OH226270   1.974   0.249  17.422 -0.3566 -0.0902  0.5211
  692TIP3    H126271   2.010   0.252  17.334  0.4095  0.6128  0.8495
  692TIP3    H226272   2.021   0.177  17.465 -0.4800 -0.2046  0.4643
  693TIP3   OH226273   5.731   7.478  18.190 -0.4810  0.3304  0.3657
  693TIP3    H126274   5.669   7.550  18.198  1.5566  2.1875  0.3001
  693TIP3    H226275   5.692   7.420  18.124 -2.4381  1.0390  0.8376
  694TIP3   OH226276   2.887   4.456  18.034  0.7150  0.2120 -0.3304
  694TIP3    H126277   2.955   4.521  18.056 -0.9027  1.1017  2.5744
  694TIP3    H226278   2.898   4.388  18.100  0.1709 -0.7697 -1.2316
  695TIP3   OH226279   1.142   6.823  17.647  0.0811  0.8282  0.1241
  695TIP3    H126280   1.109   6.818  17.736 -2.9970 -0.1390 -0.9479
  695TIP3    H226281   1.125   6.913  17.619  2.1062  1.4807  0.7827
  696TIP3   OH226282   1.372   2.865  18.431 -0.4647  0.2736 -0.6762
  696TIP3    H126283   1.291   2.885  18.479 -0.9699 -0.7607 -1.0542
  696TIP3    H226284   1.442   2.886  18.493 -1.0769 -0.3958  0.2912
  697TIP3   OH226285   5.170   6.428  16.753  0.5258 -0.1911 -0.5579
  697TIP3    H126286   5.122   6.462  16.829 -1.0076 -1.7327 -0.7831
  697TIP3    H226287   5.222   6.356  16.787 -0.9612 -1.5745 -1.0751
  698TIP3   OH226288   6.330   5.941  17.888  0.5083  0.3956 -0.3557
  698TIP3    H126289   6.240   5.967  17.905 -0.2781 -2.0207 -0.3327
  698TIP3    H226290   6.328   5.845  17.890  2.9617  0.2481 -1.0013
  699TIP3   OH226291   2.009   4.620  17.228 -0.0074  0.1868 -0.9649
  699TIP3    H126292   1.992   4.545  17.170 -1.6154 -0.4562  0.2688
  699TIP3    H226293   2.078   4.590  17.287 -0.5330 -0.2813 -0.5798
  700TIP3   OH226294   4.390   1.528  17.202 -0.0404  0.2389  0.1539
  700TIP3    H126295   4.329   1.523  17.129 -0.1168 -1.2363  0.2901
  700TIP3    H226296   4.341   1.574  17.271 -0.3986  0.5495 -0.3044
  701TIP3   OH226297   5.364   2.696  18.527  0.0700 -0.1891  0.3346
  701TIP3    H126298   5.424   2.642  18.475 -0.1371 -0.3985  0.3123
  701TIP3    H226299   5.359   2.779  18.479  1.6905  0.4708  1.2316
  702TIP3   OH226300   2.784   2.020  18.206  0.5452 -0.9726 -0.2334
  702TIP3    H126301   2.875   1.992  18.216  1.0638  0.9658  1.0412
  702TIP3    H226302   2.777   2.098  18.261 -1.3755  0.0847 -1.8595
  703TIP3   OH226303   1.259   2.994  16.137 -0.3881 -0.2358 -0.1010
  703TIP3    H126304   1.175   3.034  16.117 -0.7718 -1.2387 -0.5052
  703TIP3    H226305   1.284   2.948  16.057  0.0975 -0.7163  0.3185
  704TIP3   OH226306   1.222   4.693  17.299  0.0607 -0.0537 -0.2408
  704TIP3    H126307   1.228   4.698  17.204  0.0539 -1.5404 -0.3439
  704TIP3    H226308   1.246   4.781  17.330  2.7816 -0.2863 -1.4868
  705TIP3   OH226309   3.762   5.060  17.596  0.3817  0.3056 -0.5630
  705TIP3    H126310   3.834   5.056  17.533  2.2268  0.6795  1.4082
  705TIP3    H226311   3.726   5.148  17.586 -1.1392 -0.4765 -2.8546
  706TIP3   OH226312   0.506   3.915  18.174 -0.1469  0.6290 -0.7398
  706TIP3    H126313   0.472   3.924  18.085  2.2089 -0.6424 -1.8537
  706TIP3    H226314   0.428   3.918  18.229 -1.8298  0.1426 -2.9255
  707TIP3   OH226315   0.144   6.535  18.389 -0.0002  0.0883 -0.1091
  707TIP3    H126316   0.085   6.574  18.454  1.9913 -0.7259  2.3568
  707TIP3    H226317   0.160   6.447  18.422  1.8290 -0.0413 -1.2304
  708TIP3   OH226318   3.861   4.446  16.402  0.1604  0.0727  0.6165
  708TIP3    H126319   3.831   4.389  16.331  0.6575 -0.4249  0.8009
  708TIP3    H226320   3.848   4.395  16.481  1.3113 -0.0778  0.7185
  709TIP3   OH226321   3.465   3.006  18.248  0.3655 -0.3474 -0.1790
  709TIP3    H126322   3.392   2.948  18.270 -0.5646  0.8846  0.0777
  709TIP3    H226323   3.470   3.003  18.152  0.4517 -0.9861 -0.1591
  710TIP3   OH226324   0.895   2.485  17.361 -0.2079  0.6453 -0.4643
  710TIP3    H126325   0.886   2.451  17.450  0.9739 -2.0556 -1.2698
  710TIP3    H226326   0.819   2.451  17.314  0.0575  0.6133 -0.8772
  711TIP3   OH226327   6.937   5.795  18.235 -0.1277  0.1572 -0.3456
  711TIP3    H126328   6.945   5.831  18.147  1.8263 -0.3888 -0.4449
  711TIP3    H226329   6.966   5.866  18.293  0.9077 -0.2464 -0.3419
  712TIP3   OH226330   6.355   2.039  16.796  0.5865 -0.4574  0.1000
  712TIP3    H126331   6.405   2.043  16.715  1.6849  0.8003  0.7951
  712TIP3    H226332   6.347   2.131  16.824  0.1042 -0.8506  1.3211
  713TIP3   OH226333   2.270   7.414  18.376 -0.1463  0.1225 -0.3413
  713TIP3    H126334   2.201   7.397  18.439 -1.9323 -1.3262 -2.5191
  713TIP3    H226335   2.224   7.444  18.297  1.7248 -0.5726 -1.7857
  714TIP3   OH226336   3.646   2.328  18.003  0.0400  0.0286  0.3277
  714TIP3    H126337   3.574   2.366  17.952  0.3289 -0.4689 -0.4542
  714TIP3    H226338   3.604   2.300  18.085 -0.7446 -0.5859 -0.2624
  715TIP3   OH226339   0.034   6.488  16.626 -0.1748  0.2652  0.0001
  715TIP3    H126340   0.107   6.465  16.683 -0.3862 -2.2601 -0.6403
  715TIP3    H226341  -0.044   6.464  16.675 -0.5992  2.2330  0.3696
  716TIP3   OH226342   1.398   0.287  18.204  0.0526 -0.9356 -0.5453
  716TIP3    H126343   1.334   0.278  18.274 -0.6038 -0.3520 -1.0649
  716TIP3    H226344   1.458   0.213  18.217  1.3384  0.4070  2.0379
  717TIP3   OH226345   1.610   0.344  16.619 -0.1070 -0.4119 -0.3331
  717TIP3    H126346   1.608   0.313  16.529  1.4064 -0.3676 -0.3916
  717TIP3    H226347   1.613   0.439  16.612  1.8828 -0.4491 -0.2922
  718TIP3   OH226348   5.263   3.992  17.130 -0.0945 -0.2028 -0.2261
  718TIP3    H126349   5.260   3.915  17.074  0.1877 -0.1782 -0.2771
  718TIP3    H226350   5.179   3.991  17.177  0.5577 -1.4771  1.0124
  719TIP3   OH226351   4.639   0.551  18.426 -0.8396  0.6169  0.1806
  719TIP3    H126352   4.631   0.485  18.495 -0.2435 -0.2063 -0.5127
  719TIP3    H226353   4.724   0.592  18.441 -0.3293 -0.1435 -0.5358
  720TIP3   OH226354   6.386   1.585  18.207 -0.0929 -0.3932 -0.0354
  720TIP3    H126355   6.397   1.635  18.126 -1.6272 -1.9148 -1.2684
  720TIP3    H226356   6.475   1.561  18.234  0.5456  1.5213 -0.3339
  721TIP3   OH226357   0.096   2.836  18.753  0.1334 -0.0019 -0.2883
  721TIP3    H126358   0.045   2.803  18.827  1.8640 -0.0902  0.8993
  721TIP3    H226359   0.040   2.905  18.715 -2.0151 -1.8373 -0.7075
  722TIP3   OH226360   1.022   5.782  18.597 -0.4628  0.4068 -0.2216
  722TIP3    H126361   1.079   5.811  18.526  1.7802 -0.8902  0.9231
  722TIP3    H226362   1.032   5.686  18.598 -1.5469  0.2786  0.9513
  723TIP3   OH226363   5.832   5.720  17.901  0.0433  0.3409  0.5894
  723TIP3    H126364   5.757   5.709  17.843  0.5783 -0.3206  0.0025
  723TIP3    H226365   5.794   5.730  17.988 -0.7679  1.3698  0.1337
  724TIP3   OH226366   4.741   6.138  16.375  0.1573  0.6289  0.2484
  724TIP3    H126367   4.771   6.196  16.305 -0.2826 -0.4508 -0.8466
  724TIP3    H226368   4.737   6.051  16.336  0.2143 -0.0648  1.7020
  725TIP3   OH226369   2.168   6.339  16.988 -0.1721 -0.2480  0.3982
  725TIP3    H126370   2.239   6.369  17.045 -0.1097  1.3668 -0.4533
  725TIP3    H226371   2.198   6.255  16.953  1.2247  0.2868  0.2520
  726TIP3   OH226372   0.924   4.647  16.757  0.4038  0.2548 -0.0738
  726TIP3    H126373   0.955   4.683  16.673 -0.1685  1.1619  0.0997
  726TIP3    H226374   0.830   4.638  16.746  0.3729  0.0459  0.3588
  727TIP3   OH226375   4.537   6.428  18.389  0.3314 -0.0832  0.3004
  727TIP3    H126376   4.469   6.394  18.449 -1.4034 -0.5738 -1.8230
  727TIP3    H226377   4.492   6.496  18.339  1.7744  0.3960 -0.3832
  728TIP3   OH226378   3.821   4.992  18.582  0.3652  0.5235  0.2520
  728TIP3    H126379   3.893   5.050  18.558 -0.0059  0.5928 -0.7243
  728TIP3    H226380   3.802   4.943  18.502 -1.9665  1.9058 -0.1307
  729TIP3   OH226381   0.983   5.583  16.824  0.0607  0.0678  0.7551
  729TIP3    H126382   0.943   5.619  16.745  1.5404 -0.4635 -0.3012
  729TIP3    H226383   0.918   5.522  16.858 -0.1641 -0.5816 -0.7466
  730TIP3   OH226384   5.218   2.358  17.724 -0.2361  0.5161  0.3491
  730TIP3    H126385   5.311   2.381  17.714 -0.6216  1.3111 -1.8856
  730TIP3    H226386   5.173   2.408  17.656 -2.2267 -0.4566  0.8691
  731TIP3   OH226387   4.045   2.694  16.552 -0.4409 -0.4027  0.2903
  731TIP3    H126388   4.031   2.683  16.458 -1.6466 -0.4323  0.4657
  731TIP3    H226389   4.137   2.669  16.565 -0.7011 -1.9394 -0.6359
  732TIP3   OH226390   1.685   3.778  17.134 -0.2337  0.4357 -0.1612
  732TIP3    H126391   1.679   3.833  17.212  0.4927 -0.7925  0.7962
  732TIP3    H226392   1.688   3.689  17.167  1.5880 -0.0724 -1.4871
  733TIP3   OH226393   0.336   3.301  17.762  0.0787 -0.1384  0.1618
  733TIP3    H126394   0.312   3.212  17.736  0.4264  0.3584 -2.0311
  733TIP3    H226395   0.285   3.358  17.705  1.0291  1.0390  0.4499
  734TIP3   OH226396   6.069   4.964  16.755 -0.2331 -0.4272  0.2364
  734TIP3    H126397   6.161   4.939  16.757 -0.4851 -1.4633  2.4332
  734TIP3    H226398   6.047   4.971  16.662  1.5396 -2.1234 -0.3617
  735TIP3   OH226399   2.042   0.500  18.289 -0.2178 -0.0151 -0.0129
  735TIP3    H126400   2.035   0.464  18.378  0.1016 -0.7881 -0.2918
  735TIP3    H226401   2.131   0.534  18.285 -0.9785  2.2817  0.7676
  736TIP3   OH226402   5.622   5.067  17.534  0.5434  0.1236 -0.6619
  736TIP3    H126403   5.586   5.101  17.616 -0.1970  0.6067 -1.1777
  736TIP3    H226404   5.648   4.977  17.555 -2.3882 -0.8016 -0.6327
  737TIP3   OH226405   6.163   1.860  17.839 -0.0780  0.1854  0.3396
  737TIP3    H126406   6.076   1.825  17.856 -0.3701  1.4078  1.4861
  737TIP3    H226407   6.201   1.875  17.926  1.7219 -1.3204 -0.1059
  738TIP3   OH226408   5.291   2.468  17.343  0.2445 -0.7880  0.4182
  738TIP3    H126409   5.382   2.441  17.352 -0.0901 -2.3138 -0.4291
  738TIP3    H226410   5.240   2.393  17.372 -0.7365 -0.6229 -0.7755
  739TIP3   OH226411   1.126   2.568  16.164  0.3854 -0.2016 -0.2876
  739TIP3    H126412   1.196   2.632  16.182  0.5172 -0.1179 -1.0596
  739TIP3    H226413   1.049   2.622  16.144  0.3856 -0.2878 -0.5204
  740TIP3   OH226414   4.972   1.961  18.625 -0.1435  0.2539  0.1757
  740TIP3    H126415   4.959   1.979  18.718 -3.0721 -0.8914  0.0954
  740TIP3    H226416   5.013   1.875  18.622  0.6637  0.6203  0.3785
  741TIP3   OH226417   1.755   5.500  18.584 -0.2030 -0.7555 -0.4598
  741TIP3    H126418   1.846   5.469  18.584 -0.4008 -1.3639  0.4006
  741TIP3    H226419   1.753   5.571  18.648 -0.1356 -0.1108 -1.1622
  742TIP3   OH226420   6.381   4.599  18.459 -0.5245  0.6118  0.1519
  742TIP3    H126421   6.309   4.657  18.483 -0.1365  0.6030  1.4187
  742TIP3    H226422   6.458   4.656  18.459 -0.5930  0.7757 -1.8915
  743TIP3   OH226423   5.098   5.063  18.357  0.3305 -0.2488  0.0529
  743TIP3    H126424   5.057   5.147  18.334  0.8420  0.0431  0.1990
  743TIP3    H226425   5.078   5.052  18.449  0.6326 -0.0735  0.1409
  744TIP3   OH226426   2.426   7.209  17.698 -0.5246  0.7420 -0.2107
  744TIP3    H126427   2.412   7.244  17.786 -0.3873  0.0520  0.0897
  744TIP3    H226428   2.444   7.116  17.711 -0.8106  0.5659 -0.9918
  745TIP3   OH226429   2.241   4.021  17.171 -0.7082 -0.3267  0.3780
  745TIP3    H126430   2.299   3.945  17.184 -0.0499  0.1338  0.1981
  745TIP3    H226431   2.272   4.085  17.235 -0.5261  0.2027 -0.2263
  746TIP3   OH226432   7.179   6.690  17.685  0.2319  0.1484 -0.5362
  746TIP3    H126433   7.139   6.644  17.759  0.4831  0.8973  0.0853
  746TIP3    H226434   7.105   6.730  17.639  0.2456  1.8769  0.8468
  747TIP3   OH226435   1.363   5.344  17.913 -0.4470  0.0846 -0.3867
  747TIP3    H126436   1.455   5.363  17.893 -0.5947 -0.1406 -1.3447
  747TIP3    H226437   1.342   5.402  17.986  0.9712 -1.1481  1.0908
  748TIP3   OH226438   4.720   7.465  17.605  0.0058 -0.9903 -0.6530
  748TIP3    H126439   4.639   7.430  17.643 -0.8084  1.5363  0.1025
  748TIP3    H226440   4.720   7.433  17.515 -1.7732 -1.1415 -0.6298
  749TIP3   OH226441   3.785   5.264  15.872  0.8820  0.4924  0.1078
  749TIP3    H126442   3.722   5.195  15.892  0.6800  0.2322 -1.3484
  749TIP3    H226443   3.870   5.222  15.883  0.8308  0.7848  1.8646
  750TIP3   OH226444   3.576   3.605  18.063 -0.5019  0.1050 -0.2785
  750TIP3    H126445   3.644   3.537  18.059 -0.0590  0.5872 -1.9403
  750TIP3    H226446   3.624   3.687  18.053 -1.1211  0.6160  0.8569
  751TIP3   OH226447   0.346   2.733  16.280 -0.1959 -0.3096  0.0019
  751TIP3    H126448   0.358   2.775  16.195  1.2889  0.2946  0.4717
  751TIP3    H226449   0.277   2.668  16.266 -0.1964  0.0065 -1.5752
  752TIP3   OH226450   4.573   4.144  17.069  0.4565  0.1577  0.6215
  752TIP3    H126451   4.661   4.157  17.104 -0.0765  0.7187  1.8506
  752TIP3    H226452   4.567   4.204  16.995  0.8703  0.6560  0.9844
  753TIP3   OH226453   3.069   4.054  18.298  0.5437 -0.3397  0.2750
  753TIP3    H126454   3.106   4.010  18.374  2.2800  1.9717  0.9095
  753TIP3    H226455   3.118   4.136  18.292  0.7740 -0.5530 -3.5795
  754TIP3   OH226456   0.325   1.850  17.779 -0.1953 -0.9797  0.1426
  754TIP3    H126457   0.387   1.919  17.800  0.6911 -2.1202  1.4910
  754TIP3    H226458   0.247   1.871  17.831 -0.7221  0.0793 -1.0251
  755TIP3   OH226459   1.239   5.080  18.080 -0.1341  0.2329  0.2893
  755TIP3    H126460   1.161   5.121  18.045 -0.1793 -0.6350 -0.6948
  755TIP3    H226461   1.278   5.146  18.138 -0.2681  1.5876 -1.1070
  756TIP3   OH226462   1.246   0.798  18.193 -0.0130 -0.0017 -0.1010
  756TIP3    H126463   1.276   0.718  18.234  0.2322 -0.0261 -0.3266
  756TIP3    H226464   1.151   0.788  18.188 -0.0382 -0.0288  0.3879
  757TIP3   OH226465   4.300   2.269  18.184 -0.1673 -0.6040 -0.2529
  757TIP3    H126466   4.267   2.309  18.264 -0.0519 -2.0616  0.5699
  757TIP3    H226467   4.237   2.293  18.116 -1.0321 -0.5211  0.5714
  758TIP3   OH226468   3.904   3.051  17.496 -0.0105 -0.4239 -0.0686
  758TIP3    H126469   3.930   2.996  17.570  0.7433  2.1849  1.7546
  758TIP3    H226470   3.809   3.059  17.506  0.2246  1.0161  1.5628
  759TIP3   OH226471   1.539   1.899  18.012  0.0898  0.6255  0.5648
  759TIP3    H126472   1.454   1.942  17.996  0.0391  0.6679  0.9335
  759TIP3    H226473   1.557   1.916  18.105  0.9627  1.4327  0.2619
  760TIP3   OH226474   2.923   4.000  17.270 -0.3973  0.1590 -0.2308
  760TIP3    H126475   2.913   4.070  17.205 -0.6919  1.2791  0.9854
  760TIP3    H226476   3.006   4.019  17.313 -0.1647 -0.6208 -0.3336
  761TIP3   OH226477   3.570   2.474  17.642 -0.3493  0.2643 -0.1052
  761TIP3    H126478   3.657   2.491  17.679  0.0852 -1.3373 -0.3206
  761TIP3    H226479   3.518   2.445  17.717 -0.1830 -0.5322 -0.2964
  762TIP3   OH226480   3.407   6.049  16.669  0.0280 -0.3760  0.0699
  762TIP3    H126481   3.472   6.111  16.635  0.8627 -0.4693  1.4202
  762TIP3    H226482   3.345   6.037  16.596  1.3931 -0.1327 -1.1880
  763TIP3   OH226483   1.332   6.565  16.163  0.3669 -0.3544 -0.0966
  763TIP3    H126484   1.367   6.636  16.109 -2.5083 -0.6932 -2.6918
  763TIP3    H226485   1.262   6.605  16.214  0.8179 -0.7351  0.8435
  764TIP3   OH226486   7.030   6.505  18.350 -0.1818 -0.1480 -0.4243
  764TIP3    H126487   7.068   6.435  18.298  0.7209  0.0328 -0.0235
  764TIP3    H226488   7.020   6.578  18.288 -0.4706 -0.4018 -0.6784
  765TIP3   OH226489   6.978   5.350  17.870  0.2613  0.1698 -0.3697
  765TIP3    H126490   7.000   5.267  17.913  3.3961  1.5599  1.0721
  765TIP3    H226491   6.932   5.400  17.938  0.4625  0.4402 -0.4329
  766TIP3   OH226492   4.104   5.258  15.822 -0.1502  0.3607  0.0583
  766TIP3    H126493   4.082   5.277  15.731 -1.0760 -1.8957 -0.2701
  766TIP3    H226494   4.124   5.164  15.823 -0.3594  0.2714  2.2041
  767TIP3   OH226495   0.314   2.504  17.097 -0.5597  0.0463  0.2140
  767TIP3    H126496   0.324   2.588  17.143 -0.2687  0.2770 -0.2685
  767TIP3    H226497   0.229   2.512  17.054 -0.8017 -0.1436  0.6416
  768TIP3   OH226498   4.503   3.501  17.569  0.0075 -0.4417 -0.3095
  768TIP3    H126499   4.573   3.548  17.615  0.5595 -2.0358  0.5773
  768TIP3    H226500   4.423   3.525  17.617  0.0744  0.6294 -0.7195
  769TIP3   OH226501   1.603   6.789  17.044 -0.1359 -0.3067  0.1447
  769TIP3    H126502   1.680   6.787  16.987  0.7999 -0.0430  1.3588
  769TIP3    H226503   1.554   6.710  17.020 -0.2593  0.2716 -1.6461
  770TIP3   OH226504   3.147   5.416  18.666 -0.6247 -0.1251 -0.2398
  770TIP3    H126505   3.184   5.448  18.584  2.9199 -3.4852 -0.2423
  770TIP3    H226506   3.184   5.473  18.733 -0.3118  0.2322 -0.7113
  771TIP3   OH226507   3.988   1.721  18.590 -0.2870 -0.3254 -0.3987
  771TIP3    H126508   3.899   1.749  18.567  0.0672  1.0871 -0.1431
  771TIP3    H226509   4.045   1.784  18.546  0.4541  2.4893  3.8698
  772TIP3   OH226510   5.147   5.668  16.403 -0.1558  0.0584  0.3289
  772TIP3    H126511   5.160   5.694  16.312 -2.1769 -0.3326 -0.1216
  772TIP3    H226512   5.054   5.685  16.419  0.1592  0.0828  2.3159
  773TIP3   OH226513   7.372   1.901  18.094  0.1483 -0.4046 -0.1585
  773TIP3    H126514   7.403   1.986  18.126 -0.7078 -0.1066 -0.0919
  773TIP3    H226515   7.387   1.841  18.167 -3.0347  0.5347  1.4156
  774TIP3   OH226516   7.156   0.036  16.807 -0.4430  0.9647 -0.0557
  774TIP3    H126517   7.219  -0.016  16.857  1.2006  1.8261 -1.1414
  774TIP3    H226518   7.196   0.123  16.801 -0.6923  0.9751 -2.6166
  775TIP3   OH226519   0.531   4.096  17.003  0.0589 -0.6439 -0.8256
  775TIP3    H126520   0.449   4.076  17.047 -1.0878  0.7372 -2.2503
  775TIP3    H226521   0.510   4.095  16.910  1.7126 -0.4591 -1.2354
  776TIP3   OH226522   2.154   3.221  18.510  0.3113  0.0996  0.6483
  776TIP3    H126523   2.234   3.272  18.526  0.6814  0.6617 -2.4374
  776TIP3    H226524   2.161   3.191  18.420 -1.8980 -1.9098  1.0223
  777TIP3   OH226525   6.880   4.481  18.578 -0.4929 -0.2971 -0.4368
  777TIP3    H126526   6.937   4.409  18.551  0.3668  0.1941  0.0398
  777TIP3    H226527   6.798   4.465  18.531 -0.1344 -1.2804 -0.7564
  778TIP3   OH226528   3.024   5.299  17.979  0.2210  0.2361  0.8198
  778TIP3    H126529   3.097   5.261  17.931  0.0018  0.6814  0.1191
  778TIP3    H226530   2.950   5.242  17.960  0.3263 -0.0830  1.3419
  779TIP3   OH226531   5.568   5.348  18.551 -0.0469 -0.0324  0.1497
  779TIP3    H126532   5.561   5.423  18.610 -0.9030 -0.9456  1.2534
  779TIP3    H226533   5.549   5.384  18.464  0.7153  1.2390  0.4826
  780TIP3   OH226534   2.760   3.111  17.233 -0.4052 -0.4482  0.4226
  780TIP3    H126535   2.744   3.198  17.196  1.2304 -0.3898 -0.2282
  780TIP3    H226536   2.838   3.122  17.287 -1.1576 -1.1615  1.7040
  781TIP3   OH226537   4.242   3.057  18.892 -0.0239 -0.4250  0.2608
  781TIP3    H126538   4.244   3.077  18.799 -2.3600 -1.8025 -0.1675
  781TIP3    H226539   4.148   3.054  18.914  0.4680  0.1893  2.7329
  782TIP3   OH226540   5.018   5.159  17.594 -0.0168  0.2018 -0.0510
  782TIP3    H126541   5.082   5.230  17.594  0.5756 -0.3163 -0.3375
  782TIP3    H226542   4.938   5.199  17.560  0.3850  0.6704 -0.4662
  783TIP3   OH226543   1.677   5.865  18.219 -0.5603  0.2756 -0.4657
  783TIP3    H126544   1.662   5.781  18.174 -1.0419 -0.7608  1.5105
  783TIP3    H226545   1.681   5.842  18.311  0.7132  2.2794  0.0398
  784TIP3   OH226546   1.532   2.104  16.138 -0.1463  0.3997  0.4814
  784TIP3    H126547   1.626   2.092  16.149  0.2749  3.0356  0.4084
  784TIP3    H226548   1.502   2.024  16.094  2.6024  0.8108 -2.4999
  785TIP3   OH226549   7.376   4.854  18.249 -0.0251 -0.2948 -0.7881
  785TIP3    H126550   7.330   4.801  18.184  0.4543 -0.3912 -1.0550
  785TIP3    H226551   7.348   4.818  18.333  0.4307 -1.1020 -0.9681
  786TIP3   OH226552   6.868   0.431  17.541 -1.1688 -0.4679  0.4559
  786TIP3    H126553   6.808   0.361  17.566  0.0809 -1.6264  0.3445
  786TIP3    H226554   6.955   0.393  17.553 -0.4619  0.9133 -0.0855
  787TIP3   OH226555   7.208   5.443  18.390  0.0718  0.9799 -0.0108
  787TIP3    H126556   7.229   5.533  18.414 -1.3924  1.3995 -0.1713
  787TIP3    H226557   7.292   5.404  18.365  1.1965  1.4271  2.7123
  788TIP3   OH226558   5.201   5.295  17.811  0.2846  0.3694  0.2142
  788TIP3    H126559   5.130   5.246  17.854  0.0391  0.4788 -0.0698
  788TIP3    H226560   5.279   5.271  17.862 -0.0424  0.7040  0.8942
  789TIP3   OH226561   6.159   3.397  18.721  0.2187 -0.5596  0.0474
  789TIP3    H126562   6.094   3.367  18.658  0.9057 -1.7177 -0.1299
  789TIP3    H226563   6.147   3.340  18.797  0.8497 -0.6236  0.1080
  790TIP3   OH226564   0.832   3.681  18.859 -0.3601 -0.6217 -0.2146
  790TIP3    H126565   0.924   3.708  18.855 -0.3453 -0.5796  0.3422
  790TIP3    H226566   0.825   3.632  18.940 -0.8234 -0.6525 -0.2724
  791TIP3   OH226567   0.908   0.760  16.478 -0.0423 -0.8916 -0.2409
  791TIP3    H126568   0.939   0.850  16.469 -1.2572 -0.4397 -0.1434
  791TIP3    H226569   0.824   0.769  16.524 -1.2625 -1.8650 -2.1809
  792TIP3   OH226570   3.120   4.591  18.131 -0.2866 -0.8425 -0.3486
  792TIP3    H126571   3.075   4.673  18.152 -1.0584 -0.5811 -2.6884
  792TIP3    H226572   3.186   4.617  18.067  0.8443 -1.7708  0.4206
  793TIP3   OH226573   5.200   6.811  16.575  0.3063  0.3138  0.4046
  793TIP3    H126574   5.170   6.795  16.664 -0.2552 -1.2886 -0.0465
  793TIP3    H226575   5.294   6.794  16.578  0.3333  0.5077  0.7300
  794TIP3   OH226576   5.281   6.852  18.559  0.4806  0.1632 -0.0205
  794TIP3    H126577   5.355   6.867  18.500 -0.5903 -0.6138 -1.6319
  794TIP3    H226578   5.228   6.931  18.550 -0.6344 -0.7293 -1.5951
  795TIP3   OH226579   5.590   1.734  17.421 -0.2395 -0.6973  0.4113
  795TIP3    H126580   5.603   1.646  17.455 -0.4427 -0.7660  0.3086
  795TIP3    H226581   5.558   1.784  17.496 -1.2076 -0.9761  0.1899
  796TIP3   OH226582   1.708   7.247  17.038 -0.3678 -0.1358  0.1040
  796TIP3    H126583   1.638   7.185  17.062 -0.0744 -0.9270 -1.0187
  796TIP3    H226584   1.663   7.329  17.022 -1.0086 -0.5633 -0.3126
  797TIP3   OH226585   0.265   1.122  18.517 -0.9992 -0.4671 -0.4583
  797TIP3    H126586   0.189   1.101  18.462 -1.5429 -0.0754  0.1343
  797TIP3    H226587   0.254   1.067  18.595 -1.2300  0.3384  0.0893
  798TIP3   OH226588   0.135   0.800  17.367  0.6116 -0.1333 -0.1917
  798TIP3    H126589   0.047   0.767  17.346  1.2879 -2.5335  0.3475
  798TIP3    H226590   0.180   0.802  17.283  0.4782 -0.3789 -0.2705
  799TIP3   OH226591   2.464   6.040  17.299 -0.0716 -0.4567  0.1424
  799TIP3    H126592   2.503   5.967  17.251  0.2152  0.2714 -0.7715
  799TIP3    H226593   2.535   6.105  17.304 -0.2310 -0.3547  1.1918
  800TIP3   OH226594   3.358   1.626  18.050 -0.1807  0.1089 -0.1748
  800TIP3    H126595   3.361   1.532  18.069 -0.3302 -0.0792 -1.0248
  800TIP3    H226596   3.449   1.654  18.054 -0.3592  0.5448  2.8597
  801TIP3   OH226597   4.712   1.615  17.345  0.1760  0.0613 -0.1267
  801TIP3    H126598   4.653   1.611  17.270  0.9679  0.3918 -0.7919
  801TIP3    H226599   4.655   1.610  17.421 -0.6873  0.1991 -0.7469
  802TIP3   OH226600   4.025   6.166  16.417  0.4301 -0.4717  0.1196
  802TIP3    H126601   3.994   6.254  16.435  0.4756 -0.5135  0.4092
  802TIP3    H226602   4.066   6.172  16.331  1.1414 -0.0204  0.4711
  803TIP3   OH226603   4.445   4.579  16.503 -0.6917 -0.8549 -0.5570
  803TIP3    H126604   4.386   4.646  16.537  0.4042  0.1097 -0.5010
  803TIP3    H226605   4.434   4.583  16.408 -0.3862 -0.3624 -0.5726
  804TIP3   OH226606   4.868   1.585  18.085  0.2257 -0.3337  0.1658
  804TIP3    H126607   4.892   1.571  18.176 -2.3460  1.6323  1.2939
  804TIP3    H226608   4.879   1.500  18.043  1.2487 -1.3524  2.3615
  805TIP3   OH226609   2.927   2.842  18.717 -0.4696 -0.7047  0.3227
  805TIP3    H126610   2.972   2.917  18.757  0.0239 -0.2780 -0.9635
  805TIP3    H226611   2.926   2.776  18.786  1.5358 -0.4768  0.6460
  806TIP3   OH226612   4.571   7.472  18.500  0.1645 -0.0924 -0.0853
  806TIP3    H126613   4.494   7.465  18.557  0.5784  1.2248  0.6941
  806TIP3    H226614   4.598   7.382  18.485 -1.1790 -0.5520  0.1103
  807TIP3   OH226615   7.214   3.741  16.523 -0.2109  0.2607 -0.3442
  807TIP3    H126616   7.127   3.703  16.515  0.6421 -1.5850 -1.5895
  807TIP3    H226617   7.220   3.804  16.452 -0.6639  0.7239  0.0200
  808TIP3   OH226618   1.825   2.097  18.019 -0.4226  0.4080  0.0203
  808TIP3    H126619   1.806   2.018  17.968 -0.0346 -0.4066  1.1107
  808TIP3    H226620   1.853   2.161  17.954  0.4914 -0.7444 -0.7631
  809TIP3   OH226621   7.437   7.043  17.414 -0.3235 -0.9300 -0.0767
  809TIP3    H126622   7.423   7.094  17.494  2.3524 -0.3836  0.1230
  809TIP3    H226623   7.488   6.967  17.442  0.6510 -0.7402 -1.2602
  810TIP3   OH226624   3.297   2.251  18.068 -0.0481 -0.1547 -0.0437
  810TIP3    H126625   3.325   2.272  18.157 -0.4147 -1.0200  0.2930
  810TIP3    H226626   3.216   2.201  18.080  0.4157 -1.1299 -0.8048
  811TIP3   OH226627   5.923   3.908  17.290 -0.6065  0.6650  0.6635
  811TIP3    H126628   5.864   3.950  17.227  0.1562  1.5168  0.5007
  811TIP3    H226629   6.007   3.901  17.244 -0.8062 -1.5059  0.5060
  812TIP3   OH226630   0.299   2.843  16.791  0.3549 -0.5574 -0.1072
  812TIP3    H126631   0.276   2.900  16.718  2.4298  0.6708  0.1296
  812TIP3    H226632   0.223   2.847  16.849 -0.9098 -0.7510 -1.6823
  813TIP3   OH226633   4.353   6.886  16.789  0.1211  0.0870  0.4119
  813TIP3    H126634   4.373   6.979  16.790 -1.0200  0.3532  0.7894
  813TIP3    H226635   4.260   6.882  16.811  0.0483 -1.1143 -0.0518
  814TIP3   OH226636   3.763   2.831  16.522 -0.0859  0.0169  0.3653
  814TIP3    H126637   3.722   2.852  16.438 -1.6024 -2.7542  0.2904
  814TIP3    H226638   3.857   2.823  16.501 -0.6629 -3.1086 -1.7913
  815TIP3   OH226639   3.123   4.504  16.978 -0.3638  0.2875 -0.1503
  815TIP3    H126640   3.097   4.444  16.908 -0.0283 -0.3696  0.2798
  815TIP3    H226641   3.044   4.555  16.995 -0.4945  0.3485 -0.8963
  816TIP3   OH226642   5.413   6.455  18.343  0.6200  1.1963  0.5107
  816TIP3    H126643   5.484   6.390  18.339  1.0358  1.6866 -0.2716
  816TIP3    H226644   5.341   6.409  18.387  0.4361 -0.2413 -1.2075
  817TIP3   OH226645   4.993   1.199  18.463  0.1883 -0.3258 -0.6192
  817TIP3    H126646   5.060   1.164  18.405  0.5601 -0.4996 -0.0886
  817TIP3    H226647   4.935   1.125  18.479  0.4635 -0.4552 -0.2269
  818TIP3   OH226648   7.141   4.496  18.411 -0.7486  0.3420  0.0305
  818TIP3    H126649   7.147   4.467  18.320 -0.8842 -0.8854  0.3952
  818TIP3    H226650   7.102   4.422  18.457  2.8141 -0.6497  1.7946
  819TIP3   OH226651   4.022   3.752  17.810  0.0175  0.1036 -0.1589
  819TIP3    H126652   3.958   3.823  17.818 -0.3654 -0.3776  1.2954
  819TIP3    H226653   3.969   3.672  17.801  0.4400 -0.0253 -1.9607
  820TIP3   OH226654   4.087   3.469  18.067 -0.2936  0.7067 -0.0511
  820TIP3    H126655   4.107   3.387  18.022 -2.7908  0.4562 -0.8728
  820TIP3    H226656   4.102   3.450  18.160  0.2963 -0.3038 -0.3395
  821TIP3   OH226657   2.679   2.453  17.092  0.0266  0.0985 -0.2127
  821TIP3    H126658   2.762   2.427  17.053 -0.5155 -0.2168 -1.1773
  821TIP3    H226659   2.612   2.414  17.036 -0.7815  0.0558  0.7434
  822TIP3   OH226660   4.705   3.951  18.515  0.1055  0.5051  0.4198
  822TIP3    H126661   4.653   3.986  18.443 -0.2264  1.7965  1.2561
  822TIP3    H226662   4.651   3.965  18.593  0.0034 -1.7872  0.8451
  823TIP3   OH226663   4.761   3.178  15.993  0.2432  0.1614  0.3541
  823TIP3    H126664   4.713   3.096  15.999  0.2035  0.1870  0.3921
  823TIP3    H226665   4.759   3.202  15.901 -0.5974  0.6299  0.4864
  824TIP3   OH226666   3.686   5.893  17.646 -0.1307 -0.3444  0.0137
  824TIP3    H126667   3.749   5.826  17.619  0.6446  0.6862 -0.8305
  824TIP3    H226668   3.614   5.844  17.686  0.7669 -1.6177  0.1361
  825TIP3   OH226669   1.728   2.496  18.406 -0.2122  0.1595 -0.3732
  825TIP3    H126670   1.805   2.507  18.351  0.8778  2.7234  1.4851
  825TIP3    H226671   1.761   2.458  18.487 -0.9611  0.8436  0.2683
  826TIP3   OH226672   4.660   6.631  17.108 -0.0404 -0.3579 -0.0193
  826TIP3    H126673   4.723   6.558  17.107 -0.0974 -0.4045 -0.5687
  826TIP3    H226674   4.588   6.601  17.054 -0.1139  0.0649 -0.1595
  827TIP3   OH226675   3.458   3.842  18.299 -0.3662 -0.0530 -0.9731
  827TIP3    H126676   3.511   3.766  18.319  0.5366  0.8610  0.3287
  827TIP3    H226677   3.515   3.900  18.249  0.0334  1.0385  0.6350
  828TIP3   OH226678   3.801   3.542  16.203 -0.3713 -0.3840  0.0476
  828TIP3    H126679   3.785   3.553  16.109  0.1764  0.6886  0.0594
  828TIP3    H226680   3.735   3.596  16.246  0.2910  0.3151  0.2204
  829TIP3   OH226681   1.492   6.791  18.975  0.1999  0.1810  0.3439
  829TIP3    H126682   1.412   6.836  18.999  0.0734  0.3061 -0.3037
  829TIP3    H226683   1.464   6.718  18.920  0.4979  0.0092  0.4131
  830TIP3   OH226684   6.508   3.775  18.203 -0.1041  0.1654  0.0269
  830TIP3    H126685   6.429   3.820  18.175  0.2881  0.1477 -1.1533
  830TIP3    H226686   6.579   3.816  18.153  0.3914 -1.0584 -0.3155
  831TIP3   OH226687   2.747   5.091  17.998 -0.3183 -0.0300  0.4011
  831TIP3    H126688   2.773   5.038  18.073 -0.2602  2.8362  2.5845
  831TIP3    H226689   2.672   5.045  17.961 -0.9135 -1.1209  2.7879
  832TIP3   OH226690   3.476   3.019  16.991 -0.1783  0.0833  0.5746
  832TIP3    H126691   3.478   2.929  16.958  2.4617  0.6201 -1.0208
  832TIP3    H226692   3.384   3.046  16.983 -0.5873 -1.6368 -1.2896
  833TIP3   OH226693   6.657   7.132  18.800  0.2217  0.0030  0.2427
  833TIP3    H126694   6.742   7.174  18.812 -0.5618  1.9330 -0.6376
  833TIP3    H226695   6.673   7.040  18.823  2.4006  0.4121  0.6144
  834TIP3   OH226696   2.487   2.056  18.488  0.1592 -0.2619 -0.3047
  834TIP3    H126697   2.488   2.046  18.393 -0.4906  2.5378 -0.7013
  834TIP3    H226698   2.397   2.034  18.513  0.7271 -2.5475 -0.0437
  835TIP3   OH226699   0.840   5.336  16.870 -0.5296  0.1341  0.5161
  835TIP3    H126700   0.792   5.283  16.806  1.1925  0.4725 -1.1753
  835TIP3    H226701   0.877   5.273  16.931 -0.1601 -0.4616 -0.3057
  836TIP3   OH226702   1.277   0.088  17.744  0.4920  0.4842 -0.1551
  836TIP3    H126703   1.321   0.070  17.661 -1.1871  3.9440 -2.0436
  836TIP3    H226704   1.183   0.081  17.723  0.0196  1.5004  1.4108
  837TIP3   OH226705   4.453   3.128  17.829 -0.0797 -0.3010 -0.3388
  837TIP3    H126706   4.515   3.154  17.760  0.6104 -0.8170  0.0702
  837TIP3    H226707   4.461   3.198  17.895 -0.2730 -0.1289 -0.4987
  838TIP3   OH226708   0.343   1.692  17.268 -0.3130 -0.7369  0.3154
  838TIP3    H126709   0.327   1.620  17.206  1.1860  0.8188 -2.0213
  838TIP3    H226710   0.406   1.656  17.331 -1.0936 -2.0453  0.3918
  839TIP3   OH226711   0.589   0.870  18.734 -0.4987  0.4590  0.0493
  839TIP3    H126712   0.625   0.912  18.812  1.7330  0.1344 -0.7181
  839TIP3    H226713   0.495   0.883  18.740 -0.4707 -0.0483  3.0752
  840TIP3   OH226714   0.572   6.996  16.805 -0.5563 -0.4116  0.0826
  840TIP3    H126715   0.549   6.971  16.895 -1.6619  3.2410  0.9901
  840TIP3    H226716   0.612   6.917  16.768 -1.7929 -2.6904  3.1183
  841TIP3   OH226717   1.726   0.204  18.358  0.0357 -0.8008  0.6429
  841TIP3    H126718   1.805   0.240  18.318 -0.6110  2.0255  1.6220
  841TIP3    H226719   1.676   0.169  18.284  1.2655 -0.7538 -0.2517
  842TIP3   OH226720   7.410   4.605  18.925  0.2548  0.7389 -0.7075
  842TIP3    H126721   7.377   4.690  18.899 -0.0412  0.3376 -1.6763
  842TIP3    H226722   7.494   4.624  18.967 -0.9418  1.7264  1.4226
  843TIP3   OH226723   6.189   5.528  17.170 -0.3642 -0.0603  0.4644
  843TIP3    H126724   6.199   5.444  17.214  0.2198 -0.1096  0.2572
  843TIP3    H226725   6.279   5.562  17.164 -0.7084  1.2044  1.7679
  844TIP3   OH226726   0.709   0.853  18.119  0.2057  0.5209 -0.2778
  844TIP3    H126727   0.694   0.759  18.121  0.6002  0.4706  1.1919
  844TIP3    H226728   0.773   0.865  18.048  0.4611 -0.3641 -0.2143
  845TIP3   OH226729   3.590   2.063  18.418  0.4481 -0.4301 -0.0994
  845TIP3    H126730   3.612   2.069  18.325  1.5125 -0.3576  0.1487
  845TIP3    H226731   3.516   2.124  18.428 -1.8466 -2.7686 -1.5034
  846TIP3   OH226732   6.274   0.438  18.781 -0.1439 -0.1355  0.4497
  846TIP3    H126733   6.369   0.424  18.777  0.0643  1.3909 -1.0103
  846TIP3    H226734   6.260   0.485  18.863  0.5056  0.5615  0.1702
  847TIP3   OH226735   5.845   1.307  18.548 -0.4012 -0.2158  0.3830
  847TIP3    H126736   5.925   1.254  18.553  0.0646  0.4336 -0.1090
  847TIP3    H226737   5.843   1.354  18.631 -0.8740 -1.0753  0.8695
  848TIP3   OH226738   3.115   0.457  17.277 -0.7339 -0.2232  0.5719
  848TIP3    H126739   3.164   0.449  17.359 -1.0126 -1.9794  0.6043
  848TIP3    H226740   3.037   0.507  17.301  0.5097  1.7525  0.7252
  849TIP3   OH226741   6.332   1.535  19.090  0.5004  0.5267 -0.2116
  849TIP3    H126742   6.329   1.630  19.097  2.2440  0.9408 -3.2691
  849TIP3    H226743   6.240   1.508  19.085 -0.0317  2.4345 -2.3941
  850TIP3   OH226744   0.151   1.468  18.568  0.1627  0.2734 -0.4791
  850TIP3    H126745   0.141   1.375  18.587 -0.2378  0.3395 -0.3707
  850TIP3    H226746   0.067   1.496  18.534 -0.0303  0.8094  0.3870
  851TIP3   OH226747   6.130   3.913  18.444 -0.0631  0.2666 -0.0129
  851TIP3    H126748   6.116   3.966  18.365  0.8741 -1.5765 -1.4987
  851TIP3    H226749   6.190   3.965  18.497 -0.6769  1.5332 -0.5213
  852TIP3   OH226750   3.274   1.267  16.568  0.3075 -0.0294  0.3760
  852TIP3    H126751   3.284   1.173  16.583 -2.5532 -0.8544 -1.8453
  852TIP3    H226752   3.205   1.294  16.628 -1.9092 -0.4554 -1.7793
  853TIP3   OH226753   0.479   2.786  17.872 -0.1060  0.2814  0.1832
  853TIP3    H126754   0.444   2.702  17.903 -1.3514  0.8978  0.4999
  853TIP3    H226755   0.574   2.771  17.867 -0.1599 -0.7445  1.5054
  854TIP3   OH226756   6.216   3.157  18.085 -0.0978  0.0990 -0.0309
  854TIP3    H126757   6.278   3.227  18.067 -0.6167  0.3339 -0.9746
  854TIP3    H226758   6.237   3.090  18.019 -1.4745  0.6048 -1.0233
  855TIP3   OH226759   6.690   0.297  18.502 -0.0215 -0.0867  0.0750
  855TIP3    H126760   6.778   0.264  18.485 -0.5338 -1.5690  0.0810
  855TIP3    H226761   6.699   0.392  18.505  1.1044 -0.0300 -2.6244
  856TIP3   OH226762   4.897   5.733  18.767  0.8233 -0.1541  0.1731
  856TIP3    H126763   4.970   5.740  18.828 -0.5126 -1.0188  1.9706
  856TIP3    H226764   4.819   5.735  18.823 -0.4972 -0.3506 -1.5771
  857TIP3   OH226765   2.089   3.964  18.171 -0.1625  0.3025  0.8175
  857TIP3    H126766   2.091   3.970  18.075  0.7049 -1.5145  0.6812
  857TIP3    H226767   2.006   4.003  18.195 -0.4699  0.6660 -0.6967
  858TIP3   OH226768   2.261   0.868  18.894 -0.4002 -0.5941 -0.0641
  858TIP3    H126769   2.283   0.865  18.987 -0.5515  1.4906  0.0719
  858TIP3    H226770   2.335   0.914  18.853 -1.8771  1.6055 -0.4197
  859TIP3   OH226771   0.922   6.938  16.931  0.3574  0.8266 -0.3912
  859TIP3    H126772   0.995   6.969  16.877 -0.2091  0.6440 -1.2844
  859TIP3    H226773   0.850   6.925  16.869  0.7065 -2.9022 -0.2043
  860TIP3   OH226774   2.020   7.413  16.374 -0.1845  0.1188 -0.4421
  860TIP3    H126775   2.070   7.342  16.334 -0.1514  0.8150 -1.6825
  860TIP3    H226776   1.997   7.380  16.461  0.7853 -0.9581 -0.5725
  861TIP3   OH226777   5.708   0.645  16.999  0.4027 -0.2156 -0.2906
  861TIP3    H126778   5.801   0.645  16.977  0.7443  0.3096  1.0809
  861TIP3    H226779   5.698   0.718  17.060 -0.6103 -1.2802  0.8481
  862TIP3   OH226780   3.908   2.064  18.134  0.0447 -0.2408 -0.7559
  862TIP3    H126781   3.990   2.014  18.129 -0.2687 -0.8225 -0.1480
  862TIP3    H226782   3.849   2.020  18.073 -0.6641 -1.4562  0.7522
  863TIP3   OH226783   2.160   4.265  18.140  0.4130 -0.1742 -0.3929
  863TIP3    H126784   2.180   4.356  18.162  0.4089 -0.1960 -0.3000
  863TIP3    H226785   2.190   4.215  18.215 -0.2263 -0.1823 -0.1346
  864TIP3   OH226786   3.881   0.106  16.479  0.1369  0.7093 -0.2262
  864TIP3    H126787   3.897   0.072  16.567 -0.0674  1.3498  0.0633
  864TIP3    H226788   3.786   0.103  16.469  0.2338 -0.7095 -0.9783
  865TIP3   OH226789   1.608   4.138  18.754 -0.2456 -0.8209  0.2802
  865TIP3    H126790   1.512   4.142  18.757 -0.2573  1.7674 -1.0749
  865TIP3    H226791   1.636   4.163  18.842 -0.8271 -0.0970  0.2691
  866TIP3   OH226792   2.743   4.580  17.836  0.1836 -0.6024  0.7711
  866TIP3    H126793   2.718   4.504  17.783  2.7827 -0.6339 -0.5785
  866TIP3    H226794   2.786   4.542  17.913  1.3671 -0.5767  0.1587
  867TIP3   OH226795   3.171   1.814  17.193  0.3613 -0.2593  0.1218
  867TIP3    H126796   3.105   1.875  17.227 -0.7690 -1.8391  0.8886
  867TIP3    H226797   3.192   1.757  17.267  2.1532 -0.1862 -0.2903
  868TIP3   OH226798   0.227   2.513  18.927  0.0525  0.1570  0.1187
  868TIP3    H126799   0.229   2.598  18.970  2.8087  0.2904 -0.0914
  868TIP3    H226800   0.230   2.534  18.833 -0.5526 -0.1615  0.0262
  869TIP3   OH226801   1.404   3.964  19.129  0.1789 -0.1479  0.0336
  869TIP3    H126802   1.344   3.994  19.061  0.2519  0.6358  0.2954
  869TIP3    H226803   1.409   3.869  19.118 -0.2187 -0.0860 -0.7127
  870TIP3   OH226804   2.820   2.440  18.890  0.3464  0.0763 -0.0409
  870TIP3    H126805   2.725   2.449  18.899  0.3585  0.8134 -0.5555
  870TIP3    H226806   2.855   2.524  18.922  0.8076 -0.0674 -0.1593
  871TIP3   OH226807   0.253   2.579  18.643 -0.1968 -0.3668  0.4790
  871TIP3    H126808   0.181   2.630  18.606 -0.7946 -1.7508 -0.3464
  871TIP3    H226809   0.237   2.489  18.613  1.1709 -0.9354  1.3457
  872TIP3   OH226810   1.719   3.658  18.014 -0.0317 -0.8125 -0.0202
  872TIP3    H126811   1.735   3.580  18.067 -2.1986 -1.4212 -0.1555
  872TIP3    H226812   1.655   3.708  18.063 -0.8175 -0.5447 -1.2623
  873TIP3   OH226813   1.785   0.516  18.232 -0.2877  0.1463 -0.1327
  873TIP3    H126814   1.879   0.523  18.251 -0.1466 -0.2351 -0.6525
  873TIP3    H226815   1.780   0.452  18.161 -0.8228  1.2312 -1.1053
  874TIP3   OH226816   7.382   4.390  18.001  0.3364  0.1630  0.8785
  874TIP3    H126817   7.308   4.333  17.981  0.2621  0.4373  0.3583
  874TIP3    H226818   7.459   4.340  17.975  0.3665 -0.2508  1.7134
  875TIP3   OH226819   1.255   1.312  17.498 -0.0486 -0.0506 -0.4837
  875TIP3    H126820   1.194   1.379  17.531  3.0802  1.4347  3.0113
  875TIP3    H226821   1.213   1.229  17.521 -1.1915  0.8882  1.1085
  876TIP3   OH226822   1.911   1.890  16.964 -0.6145 -0.0926  0.0271
  876TIP3    H126823   1.878   1.979  16.975 -0.2148  0.2141 -1.1803
  876TIP3    H226824   1.918   1.877  16.870  2.2848 -0.2828  0.1856
  877TIP3   OH226825   6.550   6.450  18.498 -0.0674  0.5634  0.5858
  877TIP3    H126826   6.558   6.511  18.425 -1.3172 -1.7375 -1.5948
  877TIP3    H226827   6.641   6.425  18.518  0.2297  0.1297 -1.1930
  878TIP3   OH226828   0.348   4.921  17.322  0.3468  0.4279 -0.2109
  878TIP3    H126829   0.332   4.837  17.365  1.7671  0.4857  0.4525
  878TIP3    H226830   0.388   4.976  17.389  0.3955  1.3091 -0.9416
  879TIP3   OH226831   4.356   6.410  16.901  0.3947 -0.1407  0.4296
  879TIP3    H126832   4.263   6.425  16.920  0.2909  1.0781 -0.8925
  879TIP3    H226833   4.356   6.370  16.814  1.1208  0.4602  0.1434
  880TIP3   OH226834   6.473   3.391  16.068  0.4523  0.3489 -0.4960
  880TIP3    H126835   6.542   3.333  16.099  0.0818  0.1413 -0.0434
  880TIP3    H226836   6.398   3.333  16.053  0.3033  0.6030 -0.7595
  881TIP3   OH226837   1.324   2.987  17.019  0.0546 -0.0009 -0.2116
  881TIP3    H126838   1.337   3.082  17.024 -1.1871  0.1680 -0.0126
  881TIP3    H226839   1.329   2.967  16.926  0.2926  0.2613 -0.2580
  882TIP3   OH226840   1.121   0.631  17.307  0.5606 -0.0902 -0.6289
  882TIP3    H126841   1.191   0.645  17.371  1.0864 -0.8018 -1.0329
  882TIP3    H226842   1.142   0.547  17.267 -0.6605 -0.4347 -0.5934
  883TIP3   OH226843   2.869   6.590  16.403  0.0221  0.1995 -0.1762
  883TIP3    H126844   2.784   6.595  16.359  0.0658  0.8561 -0.1998
  883TIP3    H226845   2.911   6.513  16.365  0.5863  1.4527 -2.2902
  884TIP3   OH226846   1.464   0.588  17.197 -0.9069 -0.2339  0.4190
  884TIP3    H126847   1.479   0.562  17.106 -2.0745  0.9391 -0.1415
  884TIP3    H226848   1.370   0.573  17.210 -1.0948  1.2511  0.8772
  885TIP3   OH226849   1.382   7.390  18.562 -0.4668  0.7190  0.2705
  885TIP3    H126850   1.415   7.445  18.491 -1.2049  0.6146 -0.1631
  885TIP3    H226851   1.367   7.305  18.522  1.8151 -0.1939  1.2103
  886TIP3   OH226852   3.710   6.517  16.922  0.1667 -0.3630 -0.0884
  886TIP3    H126853   3.626   6.563  16.928  0.9143  1.1554 -0.8168
  886TIP3    H226854   3.708   6.454  16.994 -0.4915  1.5094  1.6352
  887TIP3   OH226855   3.446   5.016  18.523 -0.5237 -0.5373 -0.2027
  887TIP3    H126856   3.470   5.017  18.616 -0.8957 -0.7319 -0.1030
  887TIP3    H226857   3.430   5.108  18.502 -0.5539 -0.5059 -0.0458
  888TIP3   OH226858   2.481   2.386  16.880 -0.2403  0.3418 -0.1846
  888TIP3    H126859   2.393   2.360  16.852 -0.0149 -0.0360 -0.5498
  888TIP3    H226860   2.534   2.308  16.866 -0.0042  0.3196  0.7799
  889TIP3   OH226861   2.958   0.927  18.618  0.4842 -0.0422 -0.0264
  889TIP3    H126862   2.977   0.994  18.684 -0.3495 -0.6910  0.9052
  889TIP3    H226863   3.038   0.923  18.565  0.5139  1.7728 -0.2085
  890TIP3   OH226864   7.403   4.232  16.461  0.2458 -0.0579 -0.4342
  890TIP3    H126865   7.400   4.309  16.404  1.7008 -0.6397 -1.3608
  890TIP3    H226866   7.462   4.257  16.532  1.4775 -0.5998 -1.2349
  891TIP3   OH226867   0.885   4.089  16.633 -0.0167  0.3640 -0.3662
  891TIP3    H126868   0.905   4.177  16.663  0.2174 -0.0136  0.6433
  891TIP3    H226869   0.802   4.097  16.587 -1.0413  0.8149  1.4397
  892TIP3   OH226870   3.766   3.291  17.628  0.5881  0.0519 -0.1056
  892TIP3    H126871   3.716   3.211  17.639 -1.1940  1.1947  0.4263
  892TIP3    H226872   3.761   3.311  17.534  2.9123 -1.5565 -0.6704
  893TIP3   OH226873   6.866   3.677  18.272 -0.3655 -0.1891  0.6763
  893TIP3    H126874   6.900   3.767  18.267 -0.8301 -0.0606 -0.4402
  893TIP3    H226875   6.858   3.660  18.366 -0.5650  1.0455  0.9020
  894TIP3   OH226876   5.669   2.606  18.575 -0.4442 -0.2713 -0.6670
  894TIP3    H126877   5.668   2.510  18.570  0.4387 -0.2709 -1.0832
  894TIP3    H226878   5.618   2.635  18.500  0.2022 -0.4179 -1.1754
  895TIP3   OH226879   6.514   6.862  18.202 -0.2850  0.5056  0.2694
  895TIP3    H126880   6.468   6.851  18.119 -0.1702 -1.3850  0.4041
  895TIP3    H226881   6.552   6.950  18.198 -2.2706  1.3687 -0.6432
  896TIP3   OH226882   3.529   4.405  18.768  0.6763  0.2132  0.2194
  896TIP3    H126883   3.520   4.488  18.814  0.0386 -0.2794  1.0107
  896TIP3    H226884   3.598   4.359  18.816 -0.3510 -0.5159  1.0467
  897TIP3   OH226885   6.185   4.992  18.773  0.3519  0.5299 -0.0469
  897TIP3    H126886   6.179   5.044  18.852 -0.2222 -0.6425  0.7138
  897TIP3    H226887   6.101   5.006  18.728  0.4865  0.8278 -0.2017
  898TIP3   OH226888   3.187   5.002  18.331  0.0239 -0.5897  0.2229
  898TIP3    H126889   3.235   5.031  18.254 -0.0425 -1.0587  0.0016
  898TIP3    H226890   3.254   4.994  18.399  0.0956 -0.2604  0.1929
  899TIP3   OH226891   6.136   1.516  17.710  0.5695 -1.1142  0.0048
  899TIP3    H126892   6.201   1.521  17.780  0.6192  1.4034 -0.1292
  899TIP3    H226893   6.054   1.542  17.751  0.8491  1.8407 -1.0350
  900TIP3   OH226894   3.427   4.045  17.082 -0.2505 -0.5076 -0.6419
  900TIP3    H126895   3.403   4.128  17.123 -1.6178 -0.0214 -2.2914
  900TIP3    H226896   3.433   4.066  16.989  0.6415 -2.0045 -0.9464
  901TIP3   OH226897   2.228   6.913  18.281  0.4787 -0.2449  0.2656
  901TIP3    H126898   2.170   6.868  18.219  0.3560  1.2131 -0.7209
  901TIP3    H226899   2.173   6.927  18.358 -0.1454  0.0873 -0.2257
  902TIP3   OH226900   5.626   2.721  17.817 -0.3279  0.1469 -0.2587
  902TIP3    H126901   5.574   2.673  17.882  0.6490  0.3520  0.7010
  902TIP3    H226902   5.681   2.780  17.869  2.6127 -1.7105 -0.9927
  903TIP3   OH226903   5.784   4.816  16.831  0.2653  0.3509  0.0760
  903TIP3    H126904   5.843   4.882  16.870  0.5856  0.3648 -0.4212
  903TIP3    H226905   5.811   4.812  16.739  0.5416 -0.7856  0.1897
  904TIP3   OH226906   4.515   2.510  17.328  0.1103  0.0942 -0.2531
  904TIP3    H126907   4.492   2.596  17.361  0.1869  0.2302 -0.5563
  904TIP3    H226908   4.527   2.456  17.407 -0.4846  0.2168 -0.0766
  905TIP3   OH226909   6.220   0.356  17.102 -0.3976  0.8116 -0.4070
  905TIP3    H126910   6.159   0.339  17.031  1.4523 -1.0650 -1.6673
  905TIP3    H226911   6.234   0.271  17.144  2.3822  0.8235 -1.1131
  906TIP3   OH226912   1.899   7.448  18.730 -0.3743 -0.3046 -0.0340
  906TIP3    H126913   1.929   7.445  18.640 -1.9878 -1.4255 -0.5995
  906TIP3    H226914   1.813   7.406  18.728 -0.9791  0.6982  1.8306
  907TIP3   OH226915   5.970   3.888  16.094 -0.1496 -0.1860  0.8663
  907TIP3    H126916   6.052   3.909  16.138  1.2401  0.3843 -1.7815
  907TIP3    H226917   5.925   3.972  16.086 -0.8863 -0.4437  1.9868
  908TIP3   OH226918   7.476   1.236  18.444  0.3299 -0.1926 -0.1412
  908TIP3    H126919   7.421   1.159  18.463 -0.3829  0.4328  0.4209
  908TIP3    H226920   7.413   1.305  18.424  0.9942  0.0214 -1.5800
  909TIP3   OH226921   0.538   6.560  16.871 -0.3120 -0.6229 -0.0695
  909TIP3    H126922   0.513   6.519  16.789  0.0778  0.0873 -0.5538
  909TIP3    H226923   0.492   6.510  16.938 -0.0677 -1.6692 -0.6604
  910TIP3   OH226924   7.153   6.163  16.731  0.0038  0.0767  0.1657
  910TIP3    H126925   7.063   6.160  16.762 -0.1869  1.7866 -0.1457
  910TIP3    H226926   7.202   6.111  16.794 -0.9458  0.4772  1.2541
  911TIP3   OH226927   2.702   4.828  17.728 -0.3880  0.8084  0.1962
  911TIP3    H126928   2.649   4.870  17.796  0.8767  0.5102  1.4121
  911TIP3    H226929   2.722   4.741  17.763 -3.2396 -1.0939 -2.4040
  912TIP3   OH226930   2.917   5.583  17.619 -0.4069 -0.5595  0.4260
  912TIP3    H126931   2.830   5.606  17.651  0.3718  0.4086  1.9705
  912TIP3    H226932   2.977   5.624  17.681  1.1928 -0.2001 -1.2654
  913TIP3   OH226933   7.335   1.768  17.154  0.4665  0.3584 -0.4713
  913TIP3    H126934   7.384   1.841  17.191  0.0231  2.0515 -3.0008
  913TIP3    H226935   7.401   1.699  17.143  0.9253  0.3668  1.8035
  914TIP3   OH226936   7.213   1.102  18.450 -0.3132 -0.0390  0.0419
  914TIP3    H126937   7.180   1.104  18.360  0.6376 -1.9317 -0.3955
  914TIP3    H226938   7.169   1.026  18.489 -0.2369  0.3922  0.9788
  915TIP3   OH226939   0.754   3.898  17.066 -0.2202 -0.3134 -0.5980
  915TIP3    H126940   0.793   3.877  16.981 -2.0446 -2.7428 -0.9601
  915TIP3    H226941   0.671   3.941  17.045 -1.3599 -2.1808 -0.1916
  916TIP3   OH226942   6.658   4.619  18.060  0.3923  0.4753  0.2664
  916TIP3    H126943   6.654   4.702  18.107 -0.2370  0.5364  0.1196
  916TIP3    H226944   6.660   4.552  18.128  1.2843  0.6228  0.3878
  917TIP3   OH226945   5.939   4.528  17.614 -0.1942 -0.2985  0.3292
  917TIP3    H126946   5.870   4.468  17.643  0.3198 -2.0551 -1.8225
  917TIP3    H226947   5.895   4.589  17.554 -0.4170  0.5586  1.3307
  918TIP3   OH226948   1.784   4.581  16.935 -0.2028 -0.5232  0.8611
  918TIP3    H126949   1.871   4.549  16.910 -0.7600 -1.4359  0.0203
  918TIP3    H226950   1.747   4.616  16.854 -0.4864  0.2198  1.2974
  919TIP3   OH226951   5.304   0.281  16.156 -0.1806 -0.6043  0.5509
  919TIP3    H126952   5.388   0.240  16.136  0.4765  0.2363  1.4569
  919TIP3    H226953   5.263   0.296  16.070  0.8251 -0.5668  0.0649
  920TIP3   OH226954   5.867   6.497  18.667 -0.0120  0.4666  0.2216
  920TIP3    H126955   5.938   6.500  18.602 -0.4071  0.4720 -0.2123
  920TIP3    H226956   5.905   6.450  18.741  0.9058  1.6924  0.5658
  921TIP3   OH226957   3.750   4.571  18.334 -0.1921 -0.4170  0.5137
  921TIP3    H126958   3.802   4.500  18.373 -1.7565 -1.5043  0.7125
  921TIP3    H226959   3.790   4.651  18.367  0.2416 -1.2501  2.1308
  922TIP3   OH226960   3.225   3.943  18.750 -0.3813  0.0825 -0.0477
  922TIP3    H126961   3.199   3.930  18.659 -0.5002  0.5498 -0.0787
  922TIP3    H226962   3.314   3.979  18.745 -0.4807  0.3372  0.0154
  923TIP3   OH226963   1.580   4.562  17.130  0.1687  0.2698 -0.0553
  923TIP3    H126964   1.665   4.571  17.089  0.1932 -0.5787 -0.2028
  923TIP3    H226965   1.593   4.594  17.219  1.0143 -1.1143  0.3593
  924TIP3   OH226966   7.218   3.887  17.577 -0.0130  1.0295 -0.0851
  924TIP3    H126967   7.186   3.958  17.522 -0.8631  1.4720  0.9377
  924TIP3    H226968   7.148   3.874  17.641 -0.3193 -1.3703 -0.8019
  925TIP3   OH226969   0.351   0.316  18.577 -0.7078  0.1839 -0.0020
  925TIP3    H126970   0.434   0.363  18.573 -0.6086  0.1728  1.3133
  925TIP3    H226971   0.285   0.383  18.594 -0.5166 -0.1325  2.2602
  926TIP3   OH226972   1.710   7.321  17.999  0.2370 -0.2481  0.4651
  926TIP3    H126973   1.715   7.270  18.080  2.0392  0.5382  0.8961
  926TIP3    H226974   1.798   7.357  17.988  0.0453 -0.4063 -1.9180
  927TIP3   OH226975   4.852   3.441  17.873  0.3007  0.1999  0.4527
  927TIP3    H126976   4.875   3.366  17.818  0.3191  1.7878 -1.8550
  927TIP3    H226977   4.829   3.403  17.957  1.7739 -2.2541 -0.1551
  928TIP3   OH226978   2.349   0.827  16.724  0.4874 -0.1450 -0.1010
  928TIP3    H126979   2.381   0.909  16.687  0.0486  0.5856  1.0915
  928TIP3    H226980   2.401   0.814  16.803 -0.9286  0.1710  0.9290
  929TIP3   OH226981   4.093   5.430  17.893 -0.0915  0.1933 -0.0869
  929TIP3    H126982   4.143   5.407  17.971 -0.3539 -1.8609 -0.4577
  929TIP3    H226983   4.159   5.458  17.830  0.6723 -2.3412 -0.5199
  930TIP3   OH226984   1.599   2.871  16.943  0.4327 -0.0547  0.3179
  930TIP3    H126985   1.516   2.895  16.984  0.6535  1.8144 -0.2585
  930TIP3    H226986   1.573   2.822  16.865 -0.0845 -0.1218  0.5237
  931TIP3   OH226987   6.050   1.127  18.533  0.8057 -0.6006 -0.5342
  931TIP3    H126988   6.112   1.105  18.464  0.7622  0.4888 -0.9333
  931TIP3    H226989   6.024   1.042  18.570 -0.0541 -1.3051 -2.6085
  932TIP3   OH226990   3.805   3.760  17.512  0.4506 -0.3518  0.5417
  932TIP3    H126991   3.734   3.787  17.570  0.3623  0.2029  0.1900
  932TIP3    H226992   3.837   3.678  17.549  0.8445  0.3186  1.7535
  933TIP3   OH226993   7.236   3.474  18.368 -0.0730 -0.8357 -0.1503
  933TIP3    H126994   7.143   3.475  18.343  0.4666  0.0980 -2.3839
  933TIP3    H226995   7.236   3.449  18.460 -2.7103  1.4269  0.6084
  934TIP3   OH226996   7.194   2.622  18.031 -0.0461  0.4116 -0.3739
  934TIP3    H126997   7.267   2.566  18.058 -1.1114 -0.5489  0.6387
  934TIP3    H226998   7.172   2.672  18.110 -1.8803 -0.9270  0.0136
  935TIP3   OH226999   0.361   2.119  18.724  0.6880  0.5240  0.0984
  935TIP3    H127000   0.307   2.041  18.734  0.2394  0.8423  0.2263
  935TIP3    H227001   0.419   2.119  18.799  0.8569  0.1869 -0.0306
  936TIP3   OH227002   6.515   4.912  18.611 -0.3282  0.3705  0.3001
  936TIP3    H127003   6.551   4.991  18.650 -1.4313  1.1941 -0.2861
  936TIP3    H227004   6.474   4.865  18.684  1.6323 -0.4632  0.9308
  937TIP3   OH227005   3.999   5.016  18.162 -0.1046 -0.2076  0.2189
  937TIP3    H127006   3.949   5.098  18.161 -0.4550 -0.4264 -0.3924
  937TIP3    H227007   4.018   4.997  18.070 -1.4589 -1.6708  0.1998
  938TIP3   OH227008   2.880   1.037  18.158  0.9905 -0.5401 -0.0848
  938TIP3    H127009   2.878   1.120  18.206 -0.0097 -0.2575 -0.5892
  938TIP3    H227010   2.836   1.056  18.075  0.8707 -1.5395 -0.2625
  939TIP3   OH227011   5.849   1.268  17.162 -0.5936  0.0740 -0.4663
  939TIP3    H127012   5.872   1.190  17.111 -0.3305  0.1786 -0.5036
  939TIP3    H227013   5.921   1.329  17.147 -1.0347  0.5158 -0.8400
  940TIP3   OH227014   2.131   3.603  17.410  0.0523 -0.0919  0.1945
  940TIP3    H127015   2.111   3.514  17.437 -0.4651 -1.0111 -2.8396
  940TIP3    H227016   2.223   3.615  17.432 -0.1244 -0.9843  1.5308
  941TIP3   OH227017   4.573   5.080  19.175 -0.4688  0.5151  0.1347
  941TIP3    H127018   4.579   5.037  19.261 -0.4948 -0.6922 -0.4474
  941TIP3    H227019   4.604   5.014  19.113 -1.0490  1.1555 -0.8577
  942TIP3   OH227020   5.240   0.946  18.874 -0.0897 -0.3947 -0.5270
  942TIP3    H127021   5.216   1.020  18.818 -0.9961 -0.8470 -0.7611
  942TIP3    H227022   5.257   0.874  18.813 -1.0927 -0.8931 -0.2378
  943TIP3   OH227023   2.213   0.514  18.835  0.2760 -0.2672  0.0555
  943TIP3    H127024   2.139   0.501  18.894  0.2103  0.3157  0.1021
  943TIP3    H227025   2.176   0.557  18.758  0.6101  0.2732  0.1929
  944TIP3   OH227026   7.033   4.263  18.522 -0.0168 -0.4897  0.1729
  944TIP3    H127027   6.979   4.188  18.548  0.3218 -0.5127  0.8176
  944TIP3    H227028   7.117   4.224  18.499  0.1718 -0.3045  0.5486
  945TIP3   OH227029   2.654   3.726  18.661 -0.0445  0.4004 -0.5515
  945TIP3    H127030   2.747   3.710  18.678 -0.0912 -0.2733 -0.8753
  945TIP3    H227031   2.638   3.815  18.692 -0.0501 -0.5578  2.6560
  946TIP3   OH227032   3.948   3.560  16.653 -0.3930 -0.1083 -0.6302
  946TIP3    H127033   3.953   3.654  16.670  3.0958 -0.3208  0.3783
  946TIP3    H227034   3.975   3.550  16.562  0.6166 -0.1682 -0.3389
  947TIP3   OH227035   6.804   4.126  16.426  0.0564  0.3277  0.5848
  947TIP3    H127036   6.858   4.082  16.361 -4.2307 -1.4409 -2.2328
  947TIP3    H227037   6.802   4.065  16.500 -1.4182 -1.7596 -1.0695
  948TIP3   OH227038   0.251   0.058  18.041 -0.5590 -1.4870  0.1721
  948TIP3    H127039   0.233   0.080  18.132  1.1896 -1.1769  0.4833
  948TIP3    H227040   0.347   0.053  18.036 -0.6549 -2.5368 -1.4063
  949TIP3   OH227041   1.603   3.404  18.719 -0.1106 -0.4510  0.0696
  949TIP3    H127042   1.670   3.348  18.759  0.7591 -0.4341 -1.3257
  949TIP3    H227043   1.623   3.492  18.753  0.4403 -0.4821 -0.1594
  950TIP3   OH227044   7.206   3.043  17.945  0.1919 -0.1010  0.1550
  950TIP3    H127045   7.188   3.134  17.969 -1.1665  0.8793 -3.8992
  950TIP3    H227046   7.290   3.046  17.900  0.1834 -0.8737  0.0732
  951TIP3   OH227047   6.873   1.467  17.664 -0.3385 -0.3715  0.1331
  951TIP3    H127048   6.907   1.552  17.692  2.2724 -1.3336  0.1469
  951TIP3    H227049   6.844   1.425  17.745 -0.5536  0.0384  0.2750
  952TIP3   OH227050   1.023   0.076  17.958  0.1567  0.3592  0.1610
  952TIP3    H127051   1.077  -0.003  17.953 -1.3154 -0.7159  0.6559
  952TIP3    H227052   1.050   0.118  18.040  0.2201 -0.2112  0.4427
  953TIP3   OH227053   1.553   2.578  18.677  0.7790  0.4867  1.0232
  953TIP3    H127054   1.639   2.539  18.661  0.9273  1.3058 -0.3061
  953TIP3    H227055   1.572   2.665  18.713  0.6021  1.5031 -1.1888
  954TIP3   OH227056   1.706   4.126  17.166  0.9093 -0.6572  0.8701
  954TIP3    H127057   1.630   4.171  17.130  0.6022 -1.3423  0.6495
  954TIP3    H227058   1.769   4.196  17.184  0.7960 -0.2240 -0.3188
  955TIP3   OH227059   3.110   2.878  17.111  0.5111 -0.3264 -0.0096
  955TIP3    H127060   3.032   2.860  17.058  0.3374  0.6133 -0.0839
  955TIP3    H227061   3.088   2.957  17.160  1.3950 -0.0994  0.0271
  956TIP3   OH227062   1.855   5.651  17.862 -0.5681 -0.2078 -0.3539
  956TIP3    H127063   1.867   5.701  17.781 -0.2702  0.7079  0.2396
  956TIP3    H227064   1.818   5.568  17.833 -0.5285  0.1277 -1.4263
  957TIP3   OH227065   1.033   7.432  18.274  0.4815 -0.0193  0.8203
  957TIP3    H127066   1.015   7.379  18.196 -0.5318 -1.5514  2.0407
  957TIP3    H227067   0.966   7.501  18.271  0.6422  0.1212  0.1995
  958TIP3   OH227068   2.638   6.759  17.523  0.1640  0.1768  0.1821
  958TIP3    H127069   2.630   6.717  17.609  1.2500 -0.9699 -0.2497
  958TIP3    H227070   2.663   6.688  17.464 -1.4252  0.7696 -1.2862
  959TIP3   OH227071   1.907   4.330  17.532  0.2758 -0.0843 -0.7336
  959TIP3    H127072   1.895   4.300  17.442  0.3858 -1.4642 -0.3144
  959TIP3    H227073   1.933   4.252  17.580 -1.7243  0.1803  0.9119
  960TIP3   OH227074   7.017   4.280  16.290 -0.1641  0.5949  0.0927
  960TIP3    H127075   7.035   4.301  16.382  2.0051  1.6239 -0.5056
  960TIP3    H227076   6.995   4.186  16.291  0.3205  0.4665  1.5967
  961TIP3   OH227077   4.066   2.609  18.484 -0.4124  0.2801 -0.4329
  961TIP3    H127078   4.066   2.669  18.559 -1.7727  0.2896 -0.4102
  961TIP3    H227079   4.033   2.663  18.412 -2.0233 -0.4987 -0.3288
  962TIP3   OH227080   7.276   5.929  16.628  0.4394  0.8387 -0.1708
  962TIP3    H127081   7.270   5.836  16.606  0.0064  1.0352 -0.9131
  962TIP3    H227082   7.256   5.932  16.722  1.7367  0.0477  0.1586
  963TIP3   OH227083   4.478   2.597  16.802 -0.3446  0.1489  0.4690
  963TIP3    H127084   4.565   2.632  16.782  0.2481 -1.3022  0.3692
  963TIP3    H227085   4.488   2.502  16.793 -2.0066 -0.0316  0.2223
  964TIP3   OH227086   2.126   2.874  18.384 -0.0061  0.0954 -0.2069
  964TIP3    H127087   2.054   2.872  18.321  0.9611  0.6828 -1.3496
  964TIP3    H227088   2.190   2.813  18.350 -0.7174 -1.9095  1.8117
  965TIP3   OH227089   0.464   3.778  17.387 -0.1546  0.0268  0.4986
  965TIP3    H127090   0.416   3.845  17.435  1.9943  1.0809  1.3016
  965TIP3    H227091   0.476   3.707  17.449  0.1090  0.1599  0.6022
  966TIP3   OH227092   6.305   4.560  17.086 -0.0075  0.4847 -0.0385
  966TIP3    H127093   6.252   4.596  17.015  0.6841  1.0415 -0.2849
  966TIP3    H227094   6.389   4.539  17.045 -0.0461 -0.4608  0.3302
  967TIP3   OH227095   2.224   6.723  17.797  0.1147  0.2479 -0.8413
  967TIP3    H127096   2.129   6.712  17.794  0.3454 -2.0134 -1.1666
  967TIP3    H227097   2.258   6.640  17.830  1.9602  1.3158  0.1962
  968TIP3   OH227098   1.484   7.440  16.622  0.3105  0.2563  0.1703
  968TIP3    H127099   1.425   7.467  16.551  0.5019 -0.3234 -0.2161
  968TIP3    H227100   1.448   7.482  16.700  1.5395  3.0155 -0.6269
  969TIP3   OH227101   6.089   7.350  18.511  0.1037  0.5430  0.4122
  969TIP3    H127102   6.077   7.377  18.602 -2.0708 -0.3577  0.4628
  969TIP3    H227103   6.002   7.320  18.483  0.6597  0.9595 -2.0271
  970TIP3   OH227104   0.893   3.753  16.872  0.4095  0.0510  0.0299
  970TIP3    H127105   0.860   3.747  16.782 -1.1246  0.0849  0.5618
  970TIP3    H227106   0.878   3.667  16.909  2.0645 -0.2999 -0.0518
  971TIP3   OH227107   0.810   5.466  18.019 -0.2616 -0.1240 -0.5904
  971TIP3    H127108   0.813   5.514  17.937  1.9366 -0.6506 -0.8771
  971TIP3    H227109   0.760   5.387  17.998 -2.0206  0.9595 -0.6740
  972TIP3   OH227110   6.370   0.844  17.618  0.0847  0.1229  0.1456
  972TIP3    H127111   6.428   0.918  17.631  0.9081 -0.9661  3.9949
  972TIP3    H227112   6.428   0.768  17.611 -0.7765 -0.5799  0.3036
  973TIP3   OH227113   7.045   4.529  18.833  0.3787  0.9383 -0.4719
  973TIP3    H127114   6.993   4.556  18.759 -0.2233  1.5130  0.1513
  973TIP3    H227115   7.122   4.486  18.795  0.7044  2.3496 -1.4455
  974TIP3   OH227116   0.147   5.293  16.391  0.1605  0.4138 -0.4492
  974TIP3    H127117   0.096   5.213  16.405 -0.8503  1.0683 -0.3073
  974TIP3    H227118   0.092   5.347  16.335  1.6762  0.2172 -2.2524
  975TIP3   OH227119   6.215   7.425  17.761  0.1392  0.0148  0.0144
  975TIP3    H127120   6.143   7.371  17.794  0.1294 -0.5768 -0.9380
  975TIP3    H227121   6.173   7.498  17.715  0.1543  0.6699  1.0170
  976TIP3   OH227122   2.138   0.037  17.563 -0.1649 -0.2736  0.4481
  976TIP3    H127123   2.220   0.000  17.528  0.1232  0.1114  0.7109
  976TIP3    H227124   2.076  -0.035  17.558  0.3442 -0.7483  0.7879
  977TIP3   OH227125   0.006   4.136  17.356 -0.4072  0.1611  0.3013
  977TIP3    H127126  -0.039   4.167  17.278 -0.3340 -0.1395  0.1393
  977TIP3    H227127   0.042   4.216  17.396 -0.4806  0.3200  0.0524
  978TIP3   OH227128   5.996   0.771  17.273  0.4250 -0.1874 -0.6573
  978TIP3    H127129   6.047   0.783  17.353 -0.2724  0.3108 -0.2799
  978TIP3    H227130   6.049   0.711  17.220  0.0356 -2.0642  0.9616
  979TIP3   OH227131   3.924   3.643  18.535 -0.5466  0.1423 -0.4028
  979TIP3    H127132   3.906   3.566  18.481  0.2812 -0.5927  0.3190
  979TIP3    H227133   3.992   3.690  18.488  1.6387 -1.5487  0.8681
  980TIP3   OH227134   2.781   1.366  16.841 -0.3564  0.1431  0.0194
  980TIP3    H127135   2.855   1.413  16.881 -0.9162 -0.0420  1.3250
  980TIP3    H227136   2.749   1.308  16.910 -1.7461  0.2369 -0.5180
  981TIP3   OH227137   7.078   3.679  18.051  0.1610  0.5836  0.0515
  981TIP3    H127138   7.061   3.766  18.088  0.7370  0.2406  1.1559
  981TIP3    H227139   7.043   3.618  18.116  2.5428 -0.0614  0.8118
  982TIP3   OH227140   1.324   3.417  18.729  0.0935 -0.8656 -0.7966
  982TIP3    H127141   1.418   3.399  18.726 -0.1264 -2.3177  0.1423
  982TIP3    H227142   1.293   3.399  18.641  0.4278 -2.0455 -0.6862
  983TIP3   OH227143   5.881   6.970  18.572 -0.1105 -0.1238 -0.4408
  983TIP3    H127144   5.965   6.975  18.617  0.0634  1.2333 -0.8644
  983TIP3    H227145   5.817   6.956  18.642  0.0670  2.7730  0.4247
  984TIP3   OH227146   3.979   4.759  15.913 -0.4890  0.1371 -0.1066
  984TIP3    H127147   3.975   4.720  15.826  0.0076 -2.8765  1.1215
  984TIP3    H227148   4.069   4.744  15.942 -0.1731  2.5604  0.3635
  985TIP3   OH227149   4.196   3.647  18.835  0.1074 -0.7323 -0.2876
  985TIP3    H127150   4.231   3.559  18.849  0.2952 -0.7810 -1.0036
  985TIP3    H227151   4.271   3.698  18.805 -0.1517 -0.5030 -0.5486
  986TIP3   OH227152   4.713   5.656  18.296 -0.2522 -0.2093  0.0855
  986TIP3    H127153   4.708   5.643  18.391  0.0135 -1.5597 -0.0599
  986TIP3    H227154   4.623   5.644  18.265 -0.1324 -1.1012  0.0405
  987TIP3   OH227155   2.840   0.573  17.008  0.2296  0.1423 -0.1844
  987TIP3    H127156   2.870   0.655  16.968 -0.9028  0.0899 -1.1911
  987TIP3    H227157   2.874   0.577  17.098  3.2912  0.0161 -1.2353
  988TIP3   OH227158   6.742   1.189  17.992 -0.3210  0.2322  0.0637
  988TIP3    H127159   6.746   1.113  18.050 -1.9362  1.2044  1.5263
  988TIP3    H227160   6.660   1.179  17.944 -0.3966  0.8829  0.0453
  989TIP3   OH227161   1.775   1.576  18.033  0.4203 -0.4837  0.5172
  989TIP3    H127162   1.736   1.499  18.075 -1.5712 -0.1794 -0.6592
  989TIP3    H227163   1.801   1.545  17.946  1.1281 -0.2110  0.6259
  990TIP3   OH227164   0.459   6.191  17.854 -0.1702  0.1383 -0.2375
  990TIP3    H127165   0.379   6.176  17.804 -0.0157  0.7577 -0.6821
  990TIP3    H227166   0.519   6.234  17.793  0.4281 -0.1200  0.1509
  991TIP3   OH227167   7.270   6.717  18.388 -0.0154 -0.1376 -0.6467
  991TIP3    H127168   7.202   6.697  18.453 -1.0251 -1.3119 -2.0233
  991TIP3    H227169   7.352   6.695  18.433 -0.2476  3.2051  1.7930
  992TIP3   OH227170   3.071   2.281  18.269  0.3038 -0.6477 -0.3706
  992TIP3    H127171   2.995   2.245  18.316  0.2824 -0.9366 -0.6226
  992TIP3    H227172   3.104   2.349  18.327 -0.7508  0.1784 -0.6977
  993TIP3   OH227173   3.426   7.004  16.067  0.0986 -0.2128  0.3991
  993TIP3    H127174   3.479   6.970  16.140  0.6295 -3.0389 -1.1335
  993TIP3    H227175   3.472   6.974  15.989 -1.6258  0.8049 -1.0807
  994TIP3   OH227176   4.100   0.154  18.558 -0.2452 -0.7158 -0.2237
  994TIP3    H127177   4.135   0.072  18.524  1.3092  0.3174 -1.2895
  994TIP3    H227178   4.090   0.209  18.481 -0.1263  0.4756  0.5854
  995TIP3   OH227179   4.034   6.395  17.443  0.7570  0.1408 -0.5537
  995TIP3    H127180   3.970   6.403  17.371  1.2266 -0.7697 -1.0881
  995TIP3    H227181   4.097   6.330  17.412  1.4343  0.3464  0.3540
  996TIP3   OH227182   6.134   5.689  18.099  0.3685  0.2933 -0.4893
  996TIP3    H127183   6.174   5.683  18.013  0.2305 -1.2406 -0.4600
  996TIP3    H227184   6.145   5.781  18.124 -1.0215  1.1805 -2.8149
  997TIP3   OH227185   4.375   2.937  16.627 -0.6948  0.4382 -0.6315
  997TIP3    H127186   4.426   2.919  16.706 -2.3314 -0.3077  0.3118
  997TIP3    H227187   4.432   2.908  16.555  0.1864 -0.4176  0.3698
  998TIP3   OH227188   3.794   6.770  15.880 -0.0890 -0.3309  0.2593
  998TIP3    H127189   3.875   6.812  15.907  0.3294 -0.4570 -0.7440
  998TIP3    H227190   3.802   6.680  15.909 -0.0644 -0.2346  0.5494
  999TIP3   OH227191   7.221   4.961  17.344 -0.5615  0.0066 -0.3439
  999TIP3    H127192   7.297   4.994  17.391 -0.3212  1.2010 -1.5002
  999TIP3    H227193   7.255   4.892  17.288 -0.5085 -0.1555 -0.1077
 1000TIP3   OH227194   7.111   6.128  18.440 -0.5849 -0.4301 -0.4942
 1000TIP3    H127195   7.108   6.071  18.516 -1.8055 -2.2322 -1.8164
 1000TIP3    H227196   7.035   6.186  18.450  1.3995  2.0713  1.5415
 1001TIP3   OH227197   2.483   3.926  16.606 -0.1108  0.3844  0.5186
 1001TIP3    H127198   2.494   3.833  16.621 -0.8025  0.5211  2.0175
 1001TIP3    H227199   2.484   3.935  16.510  1.9791 -0.8653  0.3603
 1002TIP3   OH227200   0.745   0.364  17.711  0.0882 -0.2030  0.2706
 1002TIP3    H127201   0.815   0.385  17.648 -0.6645  1.8117  0.0030
 1002TIP3    H227202   0.699   0.291  17.672  0.9783 -0.4093 -0.4304
 1003TIP3   OH227203   4.817   6.323  16.155 -0.2990  0.0755 -0.1018
 1003TIP3    H127204   4.912   6.311  16.149 -0.1543  0.5415  1.0337
 1003TIP3    H227205   4.801   6.406  16.111  0.0177  0.7007  0.9280
 1004TIP3   OH227206   2.123   5.157  18.966  0.5183  0.0919  0.1692
 1004TIP3    H127207   2.182   5.221  18.927  1.3220 -0.2814  0.7390
 1004TIP3    H227208   2.139   5.164  19.060 -0.4900  0.1095  0.3581
 1005TIP3   OH227209   3.497   7.377  18.097 -0.5177 -0.6696  0.1329
 1005TIP3    H127210   3.570   7.430  18.129  0.3774 -0.9052 -1.4221
 1005TIP3    H227211   3.538   7.299  18.062 -1.6654 -1.4876  0.5591
 1006TIP3   OH227212   1.156   4.379  16.956 -0.1921  0.0002 -0.0808
 1006TIP3    H127213   1.090   4.320  16.919 -1.6643  0.2752  1.9620
 1006TIP3    H227214   1.228   4.377  16.892 -1.6162 -1.3125 -1.7491
 1007TIP3   OH227215   6.053   7.203  17.843 -0.4327 -0.1470 -0.4790
 1007TIP3    H127216   6.018   7.190  17.931 -0.1207  1.8493 -0.0036
 1007TIP3    H227217   6.101   7.122  17.824 -0.4440 -0.5904  1.2128
 1008TIP3   OH227218   1.567   6.683  18.683 -0.7649 -0.0970  0.0971
 1008TIP3    H127219   1.540   6.775  18.687 -0.0393  0.0872  1.2234
 1008TIP3    H227220   1.651   6.681  18.730 -1.0456 -1.4292  0.5622
 1009TIP3   OH227221   6.067   4.862  18.266  0.1880  0.1980 -0.1195
 1009TIP3    H127222   6.092   4.894  18.179  2.2719 -0.6575  0.1108
 1009TIP3    H227223   6.116   4.917  18.327  1.0949 -1.1327  0.3885
 1010TIP3   OH227224   0.975   7.226  18.436  0.6301 -0.5003  0.2031
 1010TIP3    H127225   0.947   7.288  18.503  0.0942 -0.8602  0.3136
 1010TIP3    H227226   1.044   7.273  18.388  0.5727 -0.0049  0.5956
 1011TIP3   OH227227   5.129   2.719  17.574  0.1305  0.0286  0.6109
 1011TIP3    H127228   5.037   2.741  17.589  0.3575  1.0914  0.4783
 1011TIP3    H227229   5.178   2.788  17.618  0.8900 -0.9482  1.3433
 1012TIP3   OH227230   3.604   1.932  15.984 -0.0726  0.8509 -1.1795
 1012TIP3    H127231   3.558   1.962  16.063  1.2375  1.0091 -0.4597
 1012TIP3    H227232   3.616   2.011  15.931 -3.5661  0.3583 -3.0250
 1013TIP3   OH227233   1.214   6.161  18.200 -0.5022 -0.5796 -0.4335
 1013TIP3    H127234   1.120   6.177  18.187 -0.5514  0.1940  0.7633
 1013TIP3    H227235   1.221   6.130  18.290  0.4796  0.0386 -0.2878
 1014TIP3   OH227236   3.870   7.341  18.250 -0.2010  0.1690 -0.0068
 1014TIP3    H127237   3.937   7.406  18.230 -0.7907  0.3180 -1.6473
 1014TIP3    H227238   3.789   7.391  18.260 -0.9363 -0.3330 -2.6438
 1015TIP3   OH227239   3.468   0.269  17.636  0.1706  0.0590  0.8261
 1015TIP3    H127240   3.393   0.326  17.656  0.1081 -0.2457  1.4828
 1015TIP3    H227241   3.540   0.329  17.620 -0.4667  0.4085 -0.9813
 1016TIP3   OH227242   3.663   1.282  17.790 -0.4006 -0.1554 -0.6419
 1016TIP3    H127243   3.738   1.242  17.835  0.3854  0.4864 -1.3281
 1016TIP3    H227244   3.641   1.218  17.721 -0.2912 -0.2105 -0.6265
 1017TIP3   OH227245   4.204   1.301  17.993  0.0755  0.6350 -0.0052
 1017TIP3    H127246   4.274   1.326  17.934  0.5419  1.3424  0.8343
 1017TIP3    H227247   4.153   1.381  18.007  0.1114  0.5388  0.7313
 1018TIP3   OH227248   6.854   1.142  16.668  0.1855  0.0568  0.5279
 1018TIP3    H127249   6.779   1.141  16.609  0.0735  0.1343  0.6673
 1018TIP3    H227250   6.888   1.053  16.665  0.6324  0.2523 -0.2227
 1019TIP3   OH227251   1.347   3.111  16.378  0.3886  0.4361  0.3268
 1019TIP3    H127252   1.356   3.095  16.284  0.5691  2.4963 -0.0659
 1019TIP3    H227253   1.267   3.162  16.387 -0.9730 -1.8019  1.6285
 1020TIP3   OH227254   2.668   4.650  17.214 -0.1469 -0.5067  0.1208
 1020TIP3    H127255   2.616   4.716  17.168  1.1334  1.1395  0.9345
 1020TIP3    H227256   2.679   4.685  17.303  1.6361 -1.1675  0.2113
 1021TIP3   OH227257   3.119   6.153  17.985  0.2014  0.3827 -0.4046
 1021TIP3    H127258   3.166   6.229  18.018  1.5027 -0.7254  0.3912
 1021TIP3    H227259   3.031   6.162  18.022  0.5777  1.0878  0.3460
 1022TIP3   OH227260   6.694   2.522  16.672  0.1982 -0.1762  0.0898
 1022TIP3    H127261   6.650   2.604  16.651  2.0689  1.2063  1.3165
 1022TIP3    H227262   6.675   2.465  16.598  0.1007  1.8464 -1.5193
 1023TIP3   OH227263   0.737   4.257  16.842  0.1476 -0.0316  0.2994
 1023TIP3    H127264   0.666   4.213  16.889 -1.7381  0.1530 -2.1809
 1023TIP3    H227265   0.714   4.350  16.844 -1.3294 -0.1971 -2.8365
 1024TIP3   OH227266   6.065   6.480  16.770 -0.0444  0.0545 -0.7050
 1024TIP3    H127267   6.052   6.491  16.676 -0.1727 -0.1866 -0.7170
 1024TIP3    H227268   6.068   6.386  16.784 -0.1222  0.0862 -0.4542
 1025TIP3   OH227269   5.392   6.986  16.396 -0.2626 -0.2991  0.1199
 1025TIP3    H127270   5.356   7.019  16.478  2.3459  1.8130  0.5813
 1025TIP3    H227271   5.321   6.995  16.333 -1.8496 -0.5117  1.7877
 1026TIP3   OH227272   1.334   3.931  16.983  0.3045  0.5764 -0.2008
 1026TIP3    H127273   1.274   3.940  16.910  2.9962  1.0517 -2.5248
 1026TIP3    H227274   1.291   3.870  17.043 -2.2187  0.5373 -1.9105
 1027TIP3   OH227275   0.891   7.147  18.830 -0.0001 -0.5160 -0.4070
 1027TIP3    H127276   0.934   7.224  18.869 -0.7944  0.7555 -1.9157
 1027TIP3    H227277   0.956   7.114  18.768 -0.0272 -0.4750 -0.4573
 1028TIP3   OH227278   3.070   5.963  17.013 -0.1024  0.4349 -0.1017
 1028TIP3    H127279   3.137   5.902  16.981 -0.3114  0.8139 -1.3292
 1028TIP3    H227280   3.094   6.047  16.974 -2.2227  0.2422 -2.0682
 1029TIP3   OH227281   0.286   3.727  18.985 -0.4924  0.2113 -0.7233
 1029TIP3    H127282   0.239   3.792  19.037 -2.0734 -0.4105 -1.3302
 1029TIP3    H227283   0.357   3.777  18.943  0.1326  0.9316  1.1110
 1030TIP3   OH227284   4.815   0.230  16.645 -0.1457  0.2264  0.3981
 1030TIP3    H127285   4.910   0.228  16.658 -0.1240 -1.2861  0.1251
 1030TIP3    H227286   4.804   0.249  16.552 -0.1412  0.9983  0.5444
 1031TIP3   OH227287   6.260   4.760  18.674  0.1213 -0.2408  0.0123
 1031TIP3    H127288   6.230   4.838  18.721  1.4311  0.3998 -0.1727
 1031TIP3    H227289   6.179   4.714  18.650 -0.6159  0.0922  1.7248
 1032TIP3   OH227290   2.535   5.562  18.748  1.0434 -0.6746 -0.3689
 1032TIP3    H127291   2.600   5.544  18.816  1.1685 -2.6231 -0.9337
 1032TIP3    H227292   2.538   5.657  18.736  1.2268 -0.2970  2.1031
 1033TIP3   OH227293   5.141   5.412  17.568  0.1389 -0.2014 -0.4758
 1033TIP3    H127294   5.162   5.400  17.660 -1.5893 -0.6336 -0.1051
 1033TIP3    H227295   5.213   5.466  17.534  2.4243 -2.5519  0.3511
 1034TIP3   OH227296   1.835   0.640  18.791 -0.1986  0.1745  0.0010
 1034TIP3    H127297   1.889   0.622  18.868 -0.1944  1.1134  0.2301
 1034TIP3    H227298   1.750   0.601  18.813 -0.4502  1.1391  0.8539
 1035TIP3   OH227299   4.204   1.923  18.530 -0.5824  0.3547 -0.3903
 1035TIP3    H127300   4.256   1.927  18.449 -0.9689 -1.1743 -0.7607
 1035TIP3    H227301   4.136   1.988  18.518  0.5982  1.6359 -0.3635
 1036TIP3   OH227302   3.721   1.678  17.274  0.9502 -0.3759 -0.2923
 1036TIP3    H127303   3.807   1.635  17.273  0.9911 -0.6078  2.8631
 1036TIP3    H227304   3.660   1.609  17.298  0.3115  0.3924  0.3330
 1037TIP3   OH227305   3.338   5.988  18.032 -0.0766  0.3306 -0.0555
 1037TIP3    H127306   3.382   5.974  17.948 -1.3386  1.6387 -0.9772
 1037TIP3    H227307   3.270   6.053  18.014 -0.0313  1.0808  2.1035
 1038TIP3   OH227308   3.605   5.595  17.298  0.1951  0.4291  0.2419
 1038TIP3    H127309   3.520   5.572  17.336  0.9412  0.4034  2.0010
 1038TIP3    H227310   3.653   5.637  17.370  1.6980  0.3606 -0.6715
 1039TIP3   OH227311   4.036   1.426  17.762 -0.0001 -0.0974 -0.6035
 1039TIP3    H127312   3.970   1.370  17.802 -0.8826  0.0686 -1.7799
 1039TIP3    H227313   4.119   1.382  17.780 -0.6809 -1.9825 -1.7785
 1040TIP3   OH227314   0.795   1.965  18.425  0.5257 -1.0320  0.0421
 1040TIP3    H127315   0.772   1.949  18.517  1.8165 -0.5916  0.4677
 1040TIP3    H227316   0.814   1.879  18.389  1.9330 -1.0450  0.7562
 1041TIP3   OH227317   0.691   1.972  17.256  0.0008  0.3894 -0.5328
 1041TIP3    H127318   0.778   1.969  17.217  0.1157 -2.0687 -0.2699
 1041TIP3    H227319   0.633   1.938  17.188 -0.5802  0.9125 -0.3039
 1042TIP3   OH227320   4.176   1.382  15.768  0.4355 -0.5240  0.3678
 1042TIP3    H127321   4.101   1.437  15.746  0.0211 -1.3918 -0.4573
 1042TIP3    H227322   4.245   1.444  15.791 -0.5289  0.2863  1.1682
 1043TIP3   OH227323   1.711   0.075  16.992 -0.2136  0.0082  0.2773
 1043TIP3    H127324   1.617   0.095  16.993 -0.8230 -2.4706  0.4845
 1043TIP3    H227325   1.740   0.091  17.082 -0.2971  1.3212  0.0780
 1044TIP3   OH227326   4.991   0.759  16.644  0.3027 -0.5202  0.4317
 1044TIP3    H127327   5.085   0.749  16.654  0.7081 -0.1178 -2.2180
 1044TIP3    H227328   4.956   0.670  16.646  0.9701 -0.8022 -0.2508
 1045TIP3   OH227329   1.173   1.930  16.260 -0.0008 -0.1298 -0.2914
 1045TIP3    H127330   1.260   1.913  16.297  0.0768  0.4893 -0.1764
 1045TIP3    H227331   1.186   2.005  16.202 -0.3428 -0.4074 -0.7337
 1046TIP3   OH227332   6.802   5.971  18.462 -0.3676 -0.2497 -0.0647
 1046TIP3    H127333   6.794   6.067  18.466  0.8238 -0.1743  1.8245
 1046TIP3    H227334   6.720   5.943  18.421 -0.5782  1.5907 -1.0275
 1047TIP3   OH227335   2.711   6.473  16.214  0.7997  0.5838 -0.0294
 1047TIP3    H127336   2.627   6.508  16.245 -0.3388 -0.0311 -2.2440
 1047TIP3    H227337   2.702   6.379  16.225  1.6335  0.5685  0.6324
 1048TIP3   OH227338   4.698   4.993  18.735  0.2300  0.2067  0.0643
 1048TIP3    H127339   4.625   4.955  18.686 -1.0055 -0.9179  2.5649
 1048TIP3    H227340   4.678   5.086  18.741 -1.2213 -0.1426  1.0025
 1049TIP3   OH227341   6.501   2.745  16.839 -0.4459 -0.7205  0.3853
 1049TIP3    H127342   6.423   2.705  16.877 -0.3912  1.2964  2.9399
 1049TIP3    H227343   6.470   2.789  16.760 -1.5832 -1.1668  0.5676
 1050TIP3   OH227344   0.734   4.635  17.009  0.4416  0.3113 -0.2573
 1050TIP3    H127345   0.789   4.582  17.065 -1.2656 -0.9688  0.2732
 1050TIP3    H227346   0.726   4.585  16.928  0.4668  0.7258 -0.5201
 1051TIP3   OH227347   5.919   0.209  17.115 -0.1473 -0.5474 -0.8028
 1051TIP3    H127348   5.875   0.153  17.179  0.9115  0.8874  1.2687
 1051TIP3    H227349   5.855   0.277  17.094 -0.6664 -1.2842 -1.6922
 1052TIP3   OH227350   1.135   4.629  18.520  0.2951  0.0052 -0.2594
 1052TIP3    H127351   1.086   4.568  18.464 -0.0072 -0.1828  0.2024
 1052TIP3    H227352   1.091   4.624  18.605  0.2280  0.9079 -0.2274
 1053TIP3   OH227353   0.077   0.126  18.769 -0.1483 -0.1520  0.3842
 1053TIP3    H127354   0.167   0.125  18.804 -0.5974 -0.6218  1.5960
 1053TIP3    H227355   0.086   0.162  18.681  1.0949  0.7937  0.8609
 1054TIP3   OH227356   0.570   3.325  18.720 -0.4506  0.1584 -0.5366
 1054TIP3    H127357   0.654   3.347  18.760 -0.9683 -1.4754  1.5796
 1054TIP3    H227358   0.545   3.405  18.673  0.5243  2.0069  1.8562
 1055TIP3   OH227359   3.272   6.497  18.768 -0.2407 -0.4934  0.4485
 1055TIP3    H127360   3.184   6.476  18.738 -0.0591  0.2733 -0.7169
 1055TIP3    H227361   3.271   6.592  18.781  0.7487 -0.2739 -0.8609
 1056TIP3   OH227362   3.494   6.804  17.994 -0.1885 -0.2423  0.7040
 1056TIP3    H127363   3.407   6.815  17.957 -0.2062 -0.7841  0.5749
 1056TIP3    H227364   3.498   6.865  18.068 -0.4903  0.1545  0.3864
 1057TIP3   OH227365   1.996   3.425  18.092  0.1783 -0.7199 -0.3594
 1057TIP3    H127366   1.931   3.379  18.040 -2.3820  2.3341 -0.1466
 1057TIP3    H227367   1.973   3.403  18.183  0.8944 -1.3546 -0.3179
 1058TIP3   OH227368   3.990   6.473  16.133 -0.1530 -0.3369 -0.0468
 1058TIP3    H127369   3.995   6.550  16.191  0.9578 -0.5171  0.1100
 1058TIP3    H227370   3.932   6.501  16.062  0.1966  0.6411  0.0294
 1059TIP3   OH227371   0.882   2.982  17.561 -0.2752 -0.0821  0.5501
 1059TIP3    H127372   0.866   2.990  17.655 -0.5735  1.0190  0.4241
 1059TIP3    H227373   0.970   2.948  17.554 -0.0777  0.2690  1.2359
 1060TIP3   OH227374   5.045   3.908  17.270 -0.0309  0.1136 -0.1144
 1060TIP3    H127375   5.030   3.846  17.199 -1.2051 -0.4718  0.6129
 1060TIP3    H227376   5.004   3.867  17.346  1.0827  0.7857  0.8791
 1061TIP3   OH227377   6.153   6.573  18.265  0.3573 -0.0968 -0.0580
 1061TIP3    H127378   6.199   6.559  18.182 -0.3851  0.6132 -0.5964
 1061TIP3    H227379   6.188   6.655  18.299  1.6635 -1.0503  1.0450
 1062TIP3   OH227380   2.793   0.124  16.156 -0.5227 -0.1051  0.1792
 1062TIP3    H127381   2.852   0.159  16.223  1.6461 -1.3060 -0.9752
 1062TIP3    H227382   2.795   0.189  16.086 -1.0922  0.1587  0.4107
 1063TIP3   OH227383   0.500   3.000  19.323  0.2648 -0.0447 -0.5145
 1063TIP3    H127384   0.504   2.981  19.229 -1.9255  0.5724 -0.8103
 1063TIP3    H227385   0.437   3.072  19.330  0.6508  0.1719  1.4131
 1064TIP3   OH227386   1.756   3.120  17.361 -0.1387  0.2830  0.5256
 1064TIP3    H127387   1.791   3.158  17.280  0.6539 -1.8603 -0.2112
 1064TIP3    H227388   1.668   3.093  17.338  0.2912 -0.8628  0.1636
 1065TIP3   OH227389   4.495   1.420  18.268  0.0488  0.0122 -0.1972
 1065TIP3    H127390   4.516   1.359  18.197 -2.3997 -0.3500 -0.6849
 1065TIP3    H227391   4.474   1.503  18.224 -2.4131 -0.4648 -0.0725
 1066TIP3   OH227392   1.886   0.176  16.578  0.0930 -0.6919  0.4297
 1066TIP3    H127393   1.827   0.127  16.520 -2.2004  1.3094  0.9280
 1066TIP3    H227394   1.957   0.205  16.520 -1.3971  0.0478 -1.1128
 1067TIP3   OH227395   5.563   1.115  17.711  0.5517 -0.1041  0.1089
 1067TIP3    H127396   5.521   1.144  17.630 -2.7502 -0.9442  1.3471
 1067TIP3    H227397   5.559   1.020  17.707  1.2092 -0.1666  0.8314
 1068TIP3   OH227398   5.266   5.459  16.550  0.6371 -0.3888 -0.1253
 1068TIP3    H127399   5.235   5.526  16.489  1.1535 -1.5320 -1.7057
 1068TIP3    H227400   5.186   5.420  16.586  0.3345  0.4066  0.0870
 1069TIP3   OH227401   7.130   4.647  17.352 -0.1697 -0.6314 -0.1627
 1069TIP3    H127402   7.201   4.696  17.310 -0.9348  2.1096  1.4887
 1069TIP3    H227403   7.052   4.669  17.301 -0.6102  0.4091  0.9049
 1070TIP3   OH227404   4.918   2.592  17.152 -0.2181  0.4904  0.0275
 1070TIP3    H127405   4.942   2.555  17.067 -0.7928  1.5096 -0.5985
 1070TIP3    H227406   5.000   2.595  17.201 -0.1437 -1.5780  0.1154
 1071TIP3   OH227407   5.419   3.543  16.994 -0.0125  0.3738 -0.5508
 1071TIP3    H127408   5.403   3.472  17.056 -1.2908  0.9120 -0.2193
 1071TIP3    H227409   5.513   3.560  17.000  0.6059 -2.1363 -1.5955
 1072TIP3   OH227410   2.043   5.643  17.231  0.1645 -0.6440  0.4083
 1072TIP3    H127411   2.128   5.606  17.207  0.9880  1.1906  0.3367
 1072TIP3    H227412   2.017   5.593  17.309  0.5779 -2.2242 -0.4265
 1073TIP3   OH227413   4.643   4.792  17.088 -0.1453  0.1368 -0.6383
 1073TIP3    H127414   4.734   4.771  17.109  0.1575  1.3534 -0.6576
 1073TIP3    H227415   4.593   4.766  17.165  0.1793 -0.7725 -0.7272
 1074TIP3   OH227416   1.266   1.278  16.989 -0.2292  0.4235 -0.2238
 1074TIP3    H127417   1.173   1.259  17.002  0.1840 -1.5120  0.1160
 1074TIP3    H227418   1.300   1.291  17.077  0.4530 -2.2291 -0.0203
 1075TIP3   OH227419   3.525   6.607  18.380 -0.3260  1.1492  0.0453
 1075TIP3    H127420   3.446   6.660  18.372 -0.8498  0.6378  1.5498
 1075TIP3    H227421   3.502   6.538  18.441  0.3656 -0.8415 -1.8228
 1076TIP3   OH227422   4.002   3.733  16.961  0.3414  0.0197 -0.3294
 1076TIP3    H127423   3.977   3.641  16.969  0.7548 -0.0270  0.5424
 1076TIP3    H227424   4.019   3.745  16.867  0.4797 -0.8431 -0.4250
 1077TIP3   OH227425   1.402   1.617  17.694  0.3282  0.5516  0.2389
 1077TIP3    H127426   1.434   1.621  17.604 -0.1573 -1.1587 -0.0453
 1077TIP3    H227427   1.422   1.528  17.722 -3.7447 -0.5704  0.1734
 1078TIP3   OH227428   6.532   0.975  16.245  0.1526 -0.1531 -0.3355
 1078TIP3    H127429   6.486   0.899  16.211 -2.9017  1.9083 -1.3057
 1078TIP3    H227430   6.478   1.005  16.318 -0.2634  2.4240 -1.5505
 1079TIP3   OH227431   1.316   1.357  17.243 -0.4819 -0.3234 -0.0150
 1079TIP3    H127432   1.341   1.450  17.248 -1.5966  0.0018 -0.1780
 1079TIP3    H227433   1.276   1.339  17.328  0.7727 -0.9999  0.4631
 1080TIP3   OH227434   3.331   4.676  15.946 -0.5598  0.5090  0.1476
 1080TIP3    H127435   3.404   4.737  15.942  1.9403 -2.1031  2.2332
 1080TIP3    H227436   3.330   4.634  15.859  0.3750  0.6614  0.0528
 1081TIP3   OH227437   1.505   5.471  18.449  0.1543  0.5963  0.3323
 1081TIP3    H127438   1.590   5.514  18.460  0.1699  0.8952 -0.8632
 1081TIP3    H227439   1.513   5.390  18.500  1.4996  0.1626 -0.5013
 1082TIP3   OH227440   3.108   1.789  18.489  0.0920  0.5504  0.2051
 1082TIP3    H127441   3.143   1.808  18.576  1.1961  0.2047 -0.1481
 1082TIP3    H227442   3.034   1.850  18.479  0.1293  0.7901  1.2563
 1083TIP3   OH227443   3.964   2.591  17.962  0.1580  0.4751  0.2802
 1083TIP3    H127444   3.870   2.611  17.954  0.2004  1.4433  1.7779
 1083TIP3    H227445   3.968   2.519  18.024  0.3909  0.2669  0.0234
 1084TIP3   OH227446   2.451   2.623  15.890 -0.3669  0.7046 -0.0966
 1084TIP3    H127447   2.459   2.716  15.868  0.9737  0.4350 -0.8273
 1084TIP3    H227448   2.515   2.580  15.835 -1.7076 -0.8010 -0.5533
 1085TIP3   OH227449   5.974   3.103  17.197 -0.4862  0.1326 -0.3771
 1085TIP3    H127450   5.988   3.137  17.286 -1.7469 -0.7227  0.1912
 1085TIP3    H227451   6.047   3.137  17.146  0.7618 -0.0590  1.1886
 1086TIP3   OH227452   1.592   0.813  17.343  0.5298 -0.0386  0.5017
 1086TIP3    H127453   1.580   0.782  17.433 -0.3902 -0.8216  0.1350
 1086TIP3    H227454   1.553   0.744  17.289 -1.7900  1.8033 -0.3563
 1087TIP3   OH227455   4.476   3.305  18.523  0.1624 -0.0501  0.1038
 1087TIP3    H127456   4.506   3.246  18.592  0.5051 -0.1672 -0.1413
 1087TIP3    H227457   4.473   3.391  18.564  0.4625 -0.1028  0.2356
 1088TIP3   OH227458   4.108   1.714  17.788 -0.1468 -0.6231  0.0441
 1088TIP3    H127459   4.199   1.711  17.820 -0.1581 -0.3218  0.1070
 1088TIP3    H227460   4.101   1.639  17.730 -0.2699 -1.4908  1.1359
 1089TIP3   OH227461   3.007   4.190  17.084 -0.3686 -0.0987  0.2665
 1089TIP3    H127462   2.947   4.252  17.041 -1.8664 -1.4066  0.3978
 1089TIP3    H227463   3.045   4.139  17.012  0.4698  0.5915  0.2013
 1090TIP3   OH227464   2.394   1.589  16.847  0.0541  0.5363 -0.3132
 1090TIP3    H127465   2.357   1.658  16.793 -0.2369 -0.5864 -1.5841
 1090TIP3    H227466   2.327   1.570  16.912 -0.5209  0.3657 -0.9489
 1091TIP3   OH227467   3.707   0.102  17.980  0.0229  0.1195 -0.2761
 1091TIP3    H127468   3.751   0.184  18.003 -0.6741  0.5074 -0.2934
 1091TIP3    H227469   3.744   0.079  17.894  1.7144 -0.6738  0.6125
 1092TIP3   OH227470   5.510   5.118  16.765 -0.2111 -0.1821 -0.4838
 1092TIP3    H127471   5.496   5.206  16.802 -0.5964 -0.4996  0.1411
 1092TIP3    H227472   5.596   5.092  16.799 -0.6068 -0.5134  0.2961
 1093TIP3   OH227473   1.490   6.234  17.968 -0.5804  0.0780  0.2124
 1093TIP3    H127474   1.509   6.143  17.993  2.3819  0.9898  1.8611
 1093TIP3    H227475   1.498   6.234  17.873  1.6921 -1.0525  0.3187
 1094TIP3   OH227476   7.424   1.640  18.241 -0.0662  0.1178  0.1808
 1094TIP3    H127477   7.398   1.567  18.184 -0.5048  1.9101 -2.0524
 1094TIP3    H227478   7.520   1.644  18.233  0.2465 -1.5935  2.1918
 1095TIP3   OH227479   5.953   2.371  17.174  1.0697  0.0212  0.2536
 1095TIP3    H127480   5.923   2.348  17.262 -3.0832  1.8740 -0.4110
 1095TIP3    H227481   5.953   2.289  17.126  3.1615 -0.9824  1.7870
 1096TIP3   OH227482   4.667   6.557  18.658  0.2520 -0.9578  0.0930
 1096TIP3    H127483   4.673   6.601  18.573  0.8854  1.7739  1.4397
 1096TIP3    H227484   4.750   6.511  18.667  0.6960 -0.2461 -0.2626
 1097TIP3   OH227485   1.951   0.876  17.266 -0.2516  0.2049  0.0575
 1097TIP3    H127486   1.889   0.854  17.195  0.1058 -0.4066 -0.0751
 1097TIP3    H227487   2.024   0.815  17.253  0.3349  0.8579  0.2756
 1098TIP3   OH227488   1.008   1.204  17.053  0.1174 -0.3002 -0.3520
 1098TIP3    H127489   1.037   1.119  17.085  0.2995 -0.9011 -2.0322
 1098TIP3    H227490   0.918   1.212  17.084  0.6337 -0.3248  1.2530
 1099TIP3   OH227491   4.423   5.048  16.532 -0.4255 -0.1670 -0.1588
 1099TIP3    H127492   4.375   5.013  16.606  1.5240 -0.0627  1.2450
 1099TIP3    H227493   4.438   5.140  16.554  0.1579 -0.1301 -0.6793
 1100TIP3   OH227494   0.476   2.603  18.448  0.2014 -0.4272  0.2447
 1100TIP3    H127495   0.410   2.627  18.513 -1.8996  0.8163 -2.1572
 1100TIP3    H227496   0.455   2.512  18.425  2.4392 -1.7376  2.8237
 1101TIP3   OH227497   0.801   6.938  17.463 -0.3041 -0.2319 -0.3724
 1101TIP3    H127498   0.739   6.948  17.535 -0.0245 -1.2293  0.0161
 1101TIP3    H227499   0.775   6.857  17.419  0.2522 -0.2537 -0.6787
 1102TIP3   OH227500   6.251   4.892  17.010  1.0537 -0.2822 -0.1539
 1102TIP3    H127501   6.290   4.963  16.959 -1.0657 -0.5467 -2.2865
 1102TIP3    H227502   6.269   4.813  16.960  0.8651 -0.8789  0.6938
 1103TIP3   OH227503   7.037   3.908  18.231  0.1842  0.1393 -0.1086
 1103TIP3    H127504   7.105   3.973  18.214  0.3435  0.0591  0.2084
 1103TIP3    H227505   7.056   3.876  18.319  0.4077 -0.6975 -0.4526
 1104TIP3   OH227506   2.546   0.735  17.920 -0.1114 -0.2322 -0.4354
 1104TIP3    H127507   2.641   0.719  17.918 -0.0119  0.3926 -1.4951
 1104TIP3    H227508   2.508   0.651  17.947  0.7565 -0.3881  0.3606
 1105TIP3   OH227509   0.911   4.615  17.378 -0.2712 -0.1889 -0.0086
 1105TIP3    H127510   0.878   4.566  17.303  0.3507  2.2481 -2.0411
 1105TIP3    H227511   1.001   4.638  17.354 -0.5889  2.0430  0.6910
 1106TIP3   OH227512   2.681   3.474  18.057  0.1452  0.1042  0.4831
 1106TIP3    H127513   2.751   3.410  18.056  0.6244  0.5927  1.3997
 1106TIP3    H227514   2.635   3.459  18.140 -2.7658 -2.2023 -1.3410
 1107TIP3   OH227515   6.515   0.472  16.162  0.2728 -0.0684  0.0132
 1107TIP3    H127516   6.553   0.387  16.180 -0.1340  0.0471  1.5510
 1107TIP3    H227517   6.431   0.453  16.120  0.8865 -0.3589 -1.1450
 1108TIP3   OH227518   4.282   0.191  17.987  0.2649 -0.0959  0.8128
 1108TIP3    H127519   4.274   0.285  17.999 -0.6692  0.2820 -2.0628
 1108TIP3    H227520   4.375   0.177  17.969  0.3876  0.2628  1.1463
 1109TIP3   OH227521   5.042   3.608  18.936 -0.3507  0.1377 -0.0760
 1109TIP3    H127522   5.089   3.566  18.864  0.8401  0.2033  0.6302
 1109TIP3    H227523   5.109   3.660  18.981 -1.0398 -0.0060  1.1616
 1110TIP3   OH227524   5.312   4.527  17.779 -0.2610  0.0593 -0.4176
 1110TIP3    H127525   5.322   4.451  17.836  0.9861 -0.5548 -1.4074
 1110TIP3    H227526   5.400   4.543  17.744 -1.1881 -0.5396 -3.3202
 1111TIP3   OH227527   0.370   2.841  16.032 -0.0227  0.2473 -0.0355
 1111TIP3    H127528   0.303   2.798  15.979 -0.2522  0.4780  0.0613
 1111TIP3    H227529   0.400   2.914  15.978 -0.5334  0.7156  0.2970
 1112TIP3   OH227530   5.070   1.316  17.161  0.2379 -0.2834  0.2468
 1112TIP3    H127531   4.977   1.334  17.154  0.2108  0.5456  2.2518
 1112TIP3    H227532   5.111   1.402  17.173  1.1670 -0.7077  0.2417
 1113TIP3   OH227533   6.113   0.254  18.642 -0.1749 -0.4198  0.3094
 1113TIP3    H127534   6.060   0.324  18.604 -0.6522 -0.2812  1.2063
 1113TIP3    H227535   6.176   0.299  18.699 -1.1373 -0.7495  1.6859
 1114TIP3   OH227536   7.145   0.467  18.700  0.2241  0.1709  0.2792
 1114TIP3    H127537   7.089   0.390  18.702  0.7587 -0.2164  0.4495
 1114TIP3    H227538   7.087   0.539  18.727  0.4016 -0.6175  3.0635
 1115TIP3   OH227539   7.037   6.608  16.599  0.3847 -0.3655 -0.2665
 1115TIP3    H127540   7.126   6.573  16.590  0.2343 -0.2968 -2.5270
 1115TIP3    H227541   6.983   6.548  16.548 -0.9119 -0.4559  1.1511
 1116TIP3   OH227542   1.329   2.436  18.617  0.0231 -0.3446 -0.5564
 1116TIP3    H127543   1.349   2.347  18.646 -0.9842  0.3088  2.5717
 1116TIP3    H227544   1.412   2.483  18.624  0.4318 -0.8832 -1.6678
 1117TIP3   OH227545   0.347   3.024  17.168 -0.2563  0.1603  0.1049
 1117TIP3    H127546   0.290   3.029  17.092  1.1395 -1.3456 -1.1149
 1117TIP3    H227547   0.394   3.107  17.168 -0.5360  0.3246 -0.4476
 1118TIP3   OH227548   6.736   0.928  18.585  0.1059 -0.2919  0.0901
 1118TIP3    H127549   6.818   0.938  18.632 -0.8953 -0.2249  1.9169
 1118TIP3    H227550   6.735   1.000  18.522  1.0971  0.1505  0.5650
 1119TIP3   OH227551   0.822   3.719  16.599  0.3015  0.9989 -0.1492
 1119TIP3    H127552   0.735   3.756  16.589 -0.2064 -0.2884 -0.7510
 1119TIP3    H227553   0.875   3.763  16.533 -0.5086  0.0580 -1.4787
 1120TIP3   OH227554   1.671   3.162  17.957 -0.1195 -0.4604  0.2568
 1120TIP3    H127555   1.591   3.127  17.997 -0.0823 -1.6514 -0.6406
 1120TIP3    H227556   1.640   3.238  17.907 -0.3091  0.4564  1.7106
 1121TIP3   OH227557   3.330   0.465  16.551 -0.0259  0.2120 -0.3036
 1121TIP3    H127558   3.272   0.394  16.521  1.1465 -0.2888 -1.4884
 1121TIP3    H227559   3.344   0.519  16.474  1.7384 -0.1520 -0.2780
 1122TIP3   OH227560   0.804   6.930  18.534 -0.1119 -0.5501 -0.6339
 1122TIP3    H127561   0.800   6.941  18.629  3.2279 -0.3099 -0.3982
 1122TIP3    H227562   0.861   6.855  18.521 -0.4552 -0.5407 -2.4638
 1123TIP3   OH227563   0.039   4.843  18.575 -0.0333  0.2942  0.0777
 1123TIP3    H127564   0.009   4.934  18.581 -0.0732  0.4375 -1.8156
 1123TIP3    H227565  -0.033   4.798  18.531 -0.1379 -0.7523  1.2552
 1124TIP3   OH227566   3.601   3.177  18.417 -0.6257 -0.1487  0.3715
 1124TIP3    H127567   3.694   3.178  18.394 -0.1858 -1.3276  1.8928
 1124TIP3    H227568   3.558   3.141  18.340  0.4162 -1.1813  0.2227
 1125TIP3   OH227569   4.807   3.015  18.586  0.2340  0.0594  0.0407
 1125TIP3    H127570   4.746   3.087  18.599  1.2369  0.9634 -0.1083
 1125TIP3    H227571   4.818   3.009  18.491  1.9431  1.3060  0.1104
 1126TIP3   OH227572   4.928   5.565  16.095  0.1966  0.3754  0.0144
 1126TIP3    H127573   4.837   5.586  16.116 -0.3637  0.7916 -2.4934
 1126TIP3    H227574   4.977   5.644  16.120  0.3164 -0.6003  3.3482
 1127TIP3   OH227575   0.366   6.228  18.578 -0.2069 -0.2972  0.2849
 1127TIP3    H127576   0.328   6.157  18.528  0.8508 -0.1948 -0.7051
 1127TIP3    H227577   0.307   6.302  18.563  1.3800  0.4763 -3.0052
 1128TIP3   OH227578   5.317   7.174  16.599 -0.3379 -0.6661  0.2452
 1128TIP3    H127579   5.236   7.153  16.646  0.7770 -1.7578  1.8038
 1128TIP3    H227580   5.308   7.266  16.575 -2.6800 -1.1572 -1.0257
 1129TIP3   OH227581   4.254   6.658  17.355  0.2273  0.5014 -0.0767
 1129TIP3    H127582   4.204   6.581  17.384 -0.7058  1.9256  2.3806
 1129TIP3    H227583   4.246   6.657  17.260  0.0477 -2.2672 -0.1390
 1130TIP3   OH227584   6.124   5.921  18.529  0.1495  0.4852  0.1866
 1130TIP3    H127585   6.183   5.995  18.544  0.3619  0.0497  1.7204
 1130TIP3    H227586   6.042   5.961  18.503  0.7239  1.1769 -0.6026
 1131TIP3   OH227587   6.696   2.776  17.833  0.0192 -0.2988  0.1150
 1131TIP3    H127588   6.762   2.707  17.828 -0.1775 -0.3860 -1.9810
 1131TIP3    H227589   6.682   2.788  17.927  0.7047 -2.4632  0.5592
 1132TIP3   OH227590   3.066   3.755  17.116  0.2688 -0.4851 -0.2378
 1132TIP3    H127591   3.112   3.793  17.041  0.2518 -1.2768 -0.6609
 1132TIP3    H227592   2.986   3.719  17.079 -1.1683  1.6220  0.6152
 1133TIP3   OH227593   4.606   1.711  17.603 -0.3052 -0.0070  0.0922
 1133TIP3    H127594   4.635   1.798  17.629  1.3261 -0.3927 -0.3172
 1133TIP3    H227595   4.675   1.652  17.633 -0.3475 -0.9159 -1.4528
 1134TIP3   OH227596   4.395   0.122  16.636  0.2052 -0.6130 -0.0913
 1134TIP3    H127597   4.442   0.071  16.701 -0.8370  0.6089  1.7188
 1134TIP3    H227598   4.425   0.212  16.650  0.7538 -0.4395 -2.0667
 1135TIP3   OH227599   6.904   6.998  17.040 -0.1511  0.0411  0.5215
 1135TIP3    H127600   6.879   6.909  17.065  0.2611 -0.2392 -0.0568
 1135TIP3    H227601   6.968   6.986  16.970  0.0512  0.7908  0.5783
 1136TIP3   OH227602   6.147   4.157  17.949  0.1830  0.2562  0.4592
 1136TIP3    H127603   6.138   4.235  17.895  2.0569 -1.1177 -2.0447
 1136TIP3    H227604   6.075   4.100  17.922 -0.5055  0.6320  1.4566
 1137TIP3   OH227605   2.892   6.403  18.027 -0.4941 -0.7887  0.2087
 1137TIP3    H127606   2.909   6.479  18.083 -0.9060  1.0854 -2.0230
 1137TIP3    H227607   2.884   6.329  18.087  0.9137  0.7493  2.4225
 1138TIP3   OH227608   3.271   5.206  17.854  0.3070 -0.0447 -0.2101
 1138TIP3    H127609   3.258   5.177  17.764  0.3450  1.7131 -0.8186
 1138TIP3    H227610   3.245   5.131  17.907 -0.0083 -1.0098 -1.6696
 1139TIP3   OH227611   1.065   1.752  18.556 -0.0442  0.0330  0.1935
 1139TIP3    H127612   0.987   1.723  18.604  1.0804 -2.4261  0.7311
 1139TIP3    H227613   1.050   1.724  18.466  0.7202 -1.6980  0.5623
 1140TIP3   OH227614   7.190   5.218  17.521  0.0578 -0.3506  0.3669
 1140TIP3    H127615   7.190   5.166  17.441  0.3483  0.3900 -0.1200
 1140TIP3    H227616   7.114   5.276  17.512 -0.1522 -0.5488  0.8221
 1141TIP3   OH227617   5.876   3.647  16.144 -0.4257 -0.0953  0.5718
 1141TIP3    H127618   5.791   3.656  16.101 -0.6014  1.2335  1.1472
 1141TIP3    H227619   5.916   3.734  16.137  0.6326 -0.5359  0.8465
 1142TIP3   OH227620   6.477   3.202  17.814 -0.0284 -0.2250  0.1932
 1142TIP3    H127621   6.558   3.247  17.790 -0.7288  0.1195 -1.7528
 1142TIP3    H227622   6.422   3.270  17.852  0.3262 -0.3137  0.8817
 1143TIP3   OH227623   5.799   0.169  17.620 -0.3290  1.0136 -0.9821
 1143TIP3    H127624   5.769   0.256  17.646  4.6836  2.1435  2.6195
 1143TIP3    H227625   5.764   0.110  17.686 -0.5739  0.9697 -1.1494
 1144TIP3   OH227626   6.602   1.033  17.621  0.2369  0.4216 -0.0498
 1144TIP3    H127627   6.624   0.984  17.542  0.2908 -0.9481  0.7908
 1144TIP3    H227628   6.682   1.029  17.675 -0.2553  0.1340  0.6660
 1145TIP3   OH227629   6.138   4.362  17.766  0.4281 -0.0055 -0.2354
 1145TIP3    H127630   6.191   4.431  17.806  0.5789 -0.0666 -0.3298
 1145TIP3    H227631   6.055   4.405  17.745 -0.0935 -0.2449  1.2119
 1146TIP3   OH227632   3.808   2.494  17.181 -0.0921  0.1375  0.0758
 1146TIP3    H127633   3.803   2.580  17.222  0.6543  0.4793 -0.5027
 1146TIP3    H227634   3.884   2.452  17.221  1.5045  1.0137 -1.8403
 1147TIP3   OH227635   0.348   7.048  17.654 -0.0219 -0.0921 -0.3662
 1147TIP3    H127636   0.291   6.977  17.685 -0.2268 -0.8124 -2.2431
 1147TIP3    H227637   0.292   7.125  17.654 -0.0534 -0.0867  0.8382
 1148TIP3   OH227638   2.417   7.366  16.290  0.0765 -0.5081  0.4233
 1148TIP3    H127639   2.366   7.288  16.314 -0.9390  0.3005  0.9602
 1148TIP3    H227640   2.504   7.331  16.266 -0.4448 -1.8268  0.3457
 1149TIP3   OH227641   0.342   0.072  18.301  0.3725 -0.0223 -0.0347
 1149TIP3    H127642   0.416   0.060  18.241  2.7972  2.4614  2.2338
 1149TIP3    H227643   0.372   0.036  18.384 -1.5965 -0.3071  0.6092
 1150TIP3   OH227644   2.015   5.462  18.646 -0.0787 -0.7109 -0.1335
 1150TIP3    H127645   2.082   5.425  18.589 -0.8811  1.1247 -2.4354
 1150TIP3    H227646   2.030   5.556  18.643 -2.8617 -0.1849 -1.0275
 1151TIP3   OH227647   0.055   3.710  19.284  0.2300  0.1567  0.2775
 1151TIP3    H127648   0.030   3.802  19.276 -1.2439 -0.2412  0.0145
 1151TIP3    H227649  -0.004   3.663  19.225  0.6540 -1.0107  0.7343
 1152TIP3   OH227650   6.968   6.399  17.567 -0.2384  0.1934 -0.0613
 1152TIP3    H127651   6.915   6.328  17.532  0.4959  0.1831 -1.2116
 1152TIP3    H227652   7.018   6.430  17.492  0.5614  0.9320  0.7582
 1153TIP3   OH227653   7.175   3.998  17.897 -0.3470 -0.6054 -0.3405
 1153TIP3    H127654   7.096   3.946  17.886  1.0024 -2.8893  0.1090
 1153TIP3    H227655   7.238   3.939  17.939  0.9198  1.7662  1.4287
 1154TIP3   OH227656   0.677   3.610  18.094  0.2047  0.6451 -0.3290
 1154TIP3    H127657   0.581   3.613  18.100  0.1215 -1.1705 -0.2726
 1154TIP3    H227658   0.694   3.563  18.012  1.0543  0.5990 -0.1297
 1155TIP3   OH227659   7.445   0.753  16.749  0.7211  0.4608 -0.2421
 1155TIP3    H127660   7.446   0.796  16.664  2.5792  0.3511 -0.3213
 1155TIP3    H227661   7.446   0.659  16.728  0.0653  0.4111 -0.0790
 1156TIP3   OH227662   4.533   6.331  18.704 -0.0365  0.0401  0.9150
 1156TIP3    H127663   4.600   6.275  18.744  0.1343  0.3913  1.1281
 1156TIP3    H227664   4.572   6.419  18.705 -0.9325  0.4489  2.0313
 1157TIP3   OH227665   2.090   4.074  18.710 -0.2480 -0.2106 -0.1972
 1157TIP3    H127666   2.084   4.164  18.679  2.1549 -0.0265 -0.3756
 1157TIP3    H227667   2.065   4.020  18.635  1.1167  0.3090 -1.0759
 1158TIP3   OH227668   4.113   3.195  17.640  0.0986 -0.2607  0.1541
 1158TIP3    H127669   4.035   3.160  17.598 -0.1876  0.3449  0.1668
 1158TIP3    H227670   4.186   3.154  17.594 -0.2053 -1.8748  1.0147
 1159TIP3   OH227671   3.771   4.025  18.956  0.0873 -0.3915  0.8851
 1159TIP3    H127672   3.773   3.930  18.968  0.2191 -0.6443 -0.8875
 1159TIP3    H227673   3.693   4.040  18.903  0.3949  0.4272  0.6583
 1160TIP3   OH227674   5.174   6.966  18.205 -0.3203  0.0064 -0.1944
 1160TIP3    H127675   5.239   6.991  18.271  1.1427  0.5057 -1.7817
 1160TIP3    H227676   5.168   7.042  18.147 -2.0522 -0.1823 -0.3208
 1161TIP3   OH227677   5.404   5.909  16.925 -0.3606 -0.4370  0.0809
 1161TIP3    H127678   5.441   5.925  17.012 -0.6495 -0.8195  0.2744
 1161TIP3    H227679   5.439   5.825  16.899  1.2367  0.5049 -0.9817
 1162TIP3   OH227680   1.752   1.031  16.440  0.8731  0.2201  0.0792
 1162TIP3    H127681   1.696   0.972  16.491  0.6047  0.5658  0.1877
 1162TIP3    H227682   1.724   1.017  16.349  2.3145 -1.4515 -0.1698
 1163TIP3   OH227683   4.931   3.860  18.645 -0.1947 -0.3009 -0.7593
 1163TIP3    H127684   5.002   3.917  18.618 -0.1537  1.0745  1.9582
 1163TIP3    H227685   4.859   3.882  18.587  0.1888  1.6990 -0.5408
 1164TIP3   OH227686   5.775   4.844  17.937 -0.4806 -0.0340 -0.4066
 1164TIP3    H127687   5.821   4.775  17.985 -0.5828  0.7189  0.8044
 1164TIP3    H227688   5.694   4.803  17.908  0.6678 -1.2426 -2.1595
 1165TIP3   OH227689   1.725   5.066  17.069 -0.0962  0.2510  0.1495
 1165TIP3    H127690   1.646   5.043  17.117  0.8440 -2.3839  0.6095
 1165TIP3    H227691   1.785   5.099  17.136  0.8485 -2.4359  0.7279
 1166TIP3   OH227692   6.882   5.620  17.697 -0.4461  0.5303  0.0120
 1166TIP3    H127693   6.821   5.623  17.771  1.2509  1.1820  1.4774
 1166TIP3    H227694   6.840   5.562  17.633 -2.9755  1.6309  0.5356
 1167TIP3   OH227695   0.126   6.053  17.441  0.9162  0.5153 -0.0065
 1167TIP3    H127696   0.135   6.115  17.369 -1.5429 -0.7840 -1.5774
 1167TIP3    H227697   0.150   5.968  17.403 -0.2891 -0.1786  0.6880
 1168TIP3   OH227698   4.975   5.857  18.325  0.0358 -0.9484  0.1098
 1168TIP3    H127699   4.889   5.897  18.312  0.6694  0.0784 -1.2447
 1168TIP3    H227700   5.032   5.904  18.264  1.2436 -2.6426 -0.1310
 1169TIP3   OH227701   2.581   0.672  19.054 -0.1605  0.3217 -0.2625
 1169TIP3    H127702   2.594   0.640  18.965  1.1049  2.0835 -0.7696
 1169TIP3    H227703   2.646   0.741  19.064  0.1131 -0.2224  2.2513
 1170TIP3   OH227704   5.746   2.884  18.016 -0.3697 -0.0501  1.4553
 1170TIP3    H127705   5.831   2.887  18.060  0.0893 -3.5903  1.1702
 1170TIP3    H227706   5.684   2.868  18.087 -0.2058 -1.4187  1.3221
 1171TIP3   OH227707   4.104   6.417  16.648  0.2161 -0.4222  0.1971
 1171TIP3    H127708   4.013   6.402  16.620 -0.7325  0.5098  2.5436
 1171TIP3    H227709   4.128   6.499  16.605  0.4184 -1.2815 -1.3963
 1172TIP3   OH227710   2.648   4.519  18.211 -0.8164  0.1970 -0.1362
 1172TIP3    H127711   2.577   4.560  18.162  0.7192  2.1274 -0.8818
 1172TIP3    H227712   2.703   4.478  18.145 -0.1284  0.5349  0.2119
 1173TIP3   OH227713   5.564   3.515  18.319  0.2830  0.1309  0.3094
 1173TIP3    H127714   5.524   3.433  18.288 -0.6182  0.6252  0.1166
 1173TIP3    H227715   5.534   3.523  18.409  0.9400 -0.0927  0.5523
 1174TIP3   OH227716   4.562   6.334  17.635  0.2764 -0.0575 -0.1158
 1174TIP3    H127717   4.578   6.373  17.549  1.9959 -1.7467 -0.6195
 1174TIP3    H227718   4.646   6.341  17.681  0.3492 -2.1546  0.1500
 1175TIP3   OH227719   3.598   6.946  15.854 -0.2260  1.1025 -0.1043
 1175TIP3    H127720   3.576   6.922  15.764 -1.3411  0.4648  0.3163
 1175TIP3    H227721   3.674   6.892  15.876 -1.8984 -1.2055  0.3811
 1176TIP3   OH227722   1.667   1.678  17.064 -0.1317  0.1813 -0.4011
 1176TIP3    H127723   1.738   1.728  17.105  1.4228 -0.3063 -2.3071
 1176TIP3    H227724   1.594   1.684  17.125  1.4566  0.9609  1.5145
 1177TIP3   OH227725   6.978   4.901  17.587 -0.0066  0.7030 -0.7330
 1177TIP3    H127726   6.994   4.914  17.493  0.1713  2.2769 -0.5139
 1177TIP3    H227727   6.897   4.949  17.604  0.9150  1.9803  0.2427
 1178TIP3   OH227728   0.647   3.814  18.662  0.0269 -0.6542  0.9858
 1178TIP3    H127729   0.599   3.747  18.614 -1.1187 -0.2616  1.5375
 1178TIP3    H227730   0.730   3.773  18.686 -0.5785 -1.8061  1.1602
 1179TIP3   OH227731   0.853   6.206  17.936 -0.3218  0.0740 -0.3019
 1179TIP3    H127732   0.840   6.245  18.022 -0.2412  0.0280 -0.2695
 1179TIP3    H227733   0.770   6.162  17.917 -0.2991 -0.0161 -0.1969
 1180TIP3   OH227734   3.666   7.234  18.963 -0.4205  0.4448 -0.1578
 1180TIP3    H127735   3.685   7.272  19.049  0.8054  0.4291 -0.4003
 1180TIP3    H227736   3.692   7.142  18.971  0.8601  0.7174 -0.8742
 1181TIP3   OH227737   0.047   3.810  16.407 -0.2142  0.3430  0.4679
 1181TIP3    H127738   0.124   3.758  16.388  0.5463  1.1041  1.3488
 1181TIP3    H227739  -0.027   3.750  16.394  0.5854 -0.6927  0.6244
 1182TIP3   OH227740   4.500   4.891  18.565  0.0353  0.6785 -0.5586
 1182TIP3    H127741   4.414   4.932  18.578  0.2446  1.2661 -0.9792
 1182TIP3    H227742   4.492   4.846  18.481  0.2459  1.0211 -0.7636
 1183TIP3   OH227743   4.119   7.117  16.648  0.1145  0.6458  0.1116
 1183TIP3    H127744   4.032   7.078  16.640 -0.4835  1.9967 -0.2835
 1183TIP3    H227745   4.175   7.063  16.591 -0.9578  1.1077 -1.4470
 1184TIP3   OH227746   3.239   2.060  18.341  0.1213 -0.2020 -0.0426
 1184TIP3    H127747   3.164   2.106  18.303 -0.6594  0.9228  2.5646
 1184TIP3    H227748   3.254   1.986  18.283 -2.0547  0.3718 -1.4794
 1185TIP3   OH227749   4.491   2.970  17.308 -0.0442  0.6740 -0.1628
 1185TIP3    H127750   4.477   2.937  17.220 -1.2790  0.2346  0.1776
 1185TIP3    H227751   4.525   3.059  17.296  0.7658  0.2535 -1.0702
 1186TIP3   OH227752   1.938   1.939  16.386  0.2103 -0.1606  0.9264
 1186TIP3    H127753   1.857   1.890  16.371  0.0055  0.4189  0.0232
 1186TIP3    H227754   2.003   1.873  16.407  0.5036 -1.1686 -2.4766
 1187TIP3   OH227755   5.822   0.452  17.958  0.6311  0.0907  0.2919
 1187TIP3    H127756   5.790   0.362  17.948  2.5760 -0.7357  0.9686
 1187TIP3    H227757   5.912   0.442  17.990  0.4689  2.3073  1.6454
 1188TIP3   OH227758   1.514   2.620  17.099  0.5688 -0.1507  0.0521
 1188TIP3    H127759   1.509   2.596  17.006  0.1309 -1.0277  0.2905
 1188TIP3    H227760   1.435   2.670  17.116  0.7738  0.2309 -0.1020
 1189TIP3   OH227761   1.961   1.619  18.629  0.3059 -0.1079 -0.3161
 1189TIP3    H127762   1.954   1.539  18.680 -0.5420 -0.7531 -1.4019
 1189TIP3    H227763   2.015   1.677  18.683  2.5745 -2.0610 -0.3335
 1190TIP3   OH227764   4.546   4.329  16.874 -0.1091 -0.0707 -0.3384
 1190TIP3    H127765   4.607   4.402  16.865 -0.1336  0.2385  1.5649
 1190TIP3    H227766   4.530   4.300  16.784  0.8188  1.4941 -1.0566
 1191TIP3   OH227767   6.886   4.392  16.575  0.4536  0.0052  0.0498
 1191TIP3    H127768   6.899   4.302  16.544 -0.6946 -0.2611  0.2853
 1191TIP3    H227769   6.970   4.417  16.614  1.2070 -0.4786 -1.1794
 1192TIP3   OH227770   4.221   1.613  16.942 -0.0329 -0.2710  0.8388
 1192TIP3    H127771   4.209   1.602  16.848 -1.5356 -0.3601  1.0153
 1192TIP3    H227772   4.288   1.681  16.951  1.9431 -1.9543 -0.2699
 1193TIP3   OH227773   3.253   1.242  17.547 -0.0930 -0.4474  0.2065
 1193TIP3    H127774   3.170   1.281  17.574 -0.3634 -0.1202 -1.0270
 1193TIP3    H227775   3.237   1.148  17.549 -0.7189 -0.3733 -0.6484
 1194TIP3   OH227776   4.517   2.043  18.943 -0.3209  0.2696  0.0189
 1194TIP3    H127777   4.496   2.021  19.033 -1.6538 -0.4243 -0.4379
 1194TIP3    H227778   4.547   2.134  18.947 -1.1787  0.5262  1.0487
 1195TIP3   OH227779   1.614   6.459  18.528  0.2039  0.1798  0.2518
 1195TIP3    H127780   1.557   6.382  18.527  0.0572  0.2893 -0.2828
 1195TIP3    H227781   1.582   6.511  18.601  0.7236 -0.5695  1.0391
 1196TIP3   OH227782   6.705   2.610  16.119  0.0968 -0.1246 -0.2141
 1196TIP3    H127783   6.620   2.653  16.105 -0.3686 -0.5820  1.0246
 1196TIP3    H227784   6.682   2.520  16.141  1.0680 -1.1534 -2.9996
 1197TIP3   OH227785   4.308   3.662  16.898  0.0178  0.3529  0.6222
 1197TIP3    H127786   4.394   3.693  16.927 -0.1949  0.6105  0.9909
 1197TIP3    H227787   4.320   3.642  16.805  0.5153  0.2406  0.7045
 1198TIP3   OH227788   2.979   5.030  16.643 -0.4492 -0.4348 -0.5352
 1198TIP3    H127789   2.954   4.941  16.665 -1.0423  0.2624  1.9419
 1198TIP3    H227790   2.897   5.075  16.624 -0.4390  0.1574  0.7146
 1199TIP3   OH227791   4.456   2.845  17.043 -0.0295  0.1822  0.0669
 1199TIP3    H127792   4.493   2.906  16.979 -0.0750 -1.2855 -1.4348
 1199TIP3    H227793   4.521   2.774  17.047 -1.5969 -1.3782 -0.9595
 1200TIP3   OH227794   3.923   6.693  16.881 -0.4226 -0.5018 -0.0070
 1200TIP3    H127795   3.842   6.647  16.903 -0.8260  0.0324 -0.3323
 1200TIP3    H227796   3.915   6.779  16.923 -1.0129  0.3690 -1.7547
 1201TIP3   OH227797   0.298   4.615  17.912  0.4914 -0.4018 -0.3184
 1201TIP3    H127798   0.273   4.628  18.003  0.4019 -0.6726 -0.3021
 1201TIP3    H227799   0.382   4.659  17.903  0.4502 -0.2848 -0.1320
 1202TIP3   OH227800   3.601   4.476  17.271 -0.3047 -0.4832  0.9232
 1202TIP3    H127801   3.595   4.478  17.367  1.0455 -0.8664  1.0324
 1202TIP3    H227802   3.677   4.422  17.253 -1.1597 -1.2861 -0.4128
 1203TIP3   OH227803   2.270   5.417  17.903 -0.3283 -0.3183  0.6105
 1203TIP3    H127804   2.183   5.434  17.940 -0.2735  0.2551  0.4871
 1203TIP3    H227805   2.253   5.388  17.814 -0.3677  0.5418  0.3305
 1204TIP3   OH227806   2.235   5.087  17.865 -0.1544  0.0456 -0.0875
 1204TIP3    H127807   2.294   5.123  17.931 -0.0635 -0.5796  0.1746
 1204TIP3    H227808   2.211   5.162  17.811 -0.4172  0.6008  0.7917
 1205TIP3   OH227809   6.963   4.662  16.934 -0.2616  0.4560 -0.3828
 1205TIP3    H127810   6.983   4.569  16.925  0.2841  0.4419  0.7303
 1205TIP3    H227811   7.047   4.706  16.919 -0.2883  0.6841  0.0960
 1206TIP3   OH227812   1.192   0.550  17.996 -0.5805  0.0770 -0.7910
 1206TIP3    H127813   1.147   0.485  17.943 -0.7003  0.7832 -1.5663
 1206TIP3    H227814   1.123   0.586  18.052 -0.4027 -0.8578  0.0716
 1207TIP3   OH227815   2.926   3.648  18.515  0.4608  0.0184  0.0505
 1207TIP3    H127816   2.929   3.710  18.588  1.1928  1.8199 -1.4028
 1207TIP3    H227817   2.946   3.563  18.554 -0.7773  0.6265  2.1679
 1208TIP3   OH227818   5.489   5.355  15.970 -0.7015  0.2661 -0.1250
 1208TIP3    H127819   5.394   5.346  15.979 -0.7820 -0.4186 -1.5034
 1208TIP3    H227820   5.523   5.272  16.001 -0.4679  0.7901  1.1072
 1209TIP3   OH227821   1.796   4.513  17.686 -0.2786 -0.1050  0.5701
 1209TIP3    H127822   1.829   4.450  17.621  0.8365 -0.7229  1.6893
 1209TIP3    H227823   1.705   4.486  17.700  0.1599 -1.4820  0.9969
 1210TIP3   OH227824   3.502   6.141  17.241 -0.2174  0.3148  0.2472
 1210TIP3    H127825   3.555   6.065  17.262  1.0363  0.7401 -1.1969
 1210TIP3    H227826   3.464   6.168  17.324  2.6350  0.5800  1.5699
 1211TIP3   OH227827   1.908   3.664  18.525  0.0130 -0.2601  0.7645
 1211TIP3    H127828   1.949   3.744  18.493  0.2873 -0.2414  1.1617
 1211TIP3    H227829   1.814   3.680  18.517  0.0757 -0.3012 -0.1477
 1212TIP3   OH227830   2.168   1.798  18.276 -0.7107  0.1357  0.1295
 1212TIP3    H127831   2.127   1.712  18.281 -0.7256  0.0326 -1.2893
 1212TIP3    H227832   2.251   1.783  18.231 -1.0112  0.9356 -0.7400
 1213TIP3   OH227833   3.713   5.707  19.108  0.0408 -0.2159 -0.5059
 1213TIP3    H127834   3.669   5.784  19.073 -2.2563 -0.8710  0.7415
 1213TIP3    H227835   3.799   5.740  19.137 -1.0394  1.9949  0.4108
 1214TIP3   OH227836   2.617   0.329  17.867 -0.0464 -0.2967 -0.3976
 1214TIP3    H127837   2.626   0.383  17.788  1.8760  0.8122  0.5151
 1214TIP3    H227838   2.535   0.282  17.854 -0.4421  0.8305 -2.4641
 1215TIP3   OH227839   0.049   5.411  18.569  0.6688  0.0801  0.5985
 1215TIP3    H127840   0.017   5.442  18.485 -1.9904  1.0517  1.8711
 1215TIP3    H227841   0.107   5.338  18.548  3.9121  3.0893 -2.3278
 1216TIP3   OH227842   1.089   4.942  17.551  0.2765 -0.3667  0.2384
 1216TIP3    H127843   1.116   5.001  17.622  1.2678  0.1843 -0.5654
 1216TIP3    H227844   1.087   4.855  17.592  0.4038 -0.0011  1.0450
 1217TIP3   OH227845   3.372   4.478  17.584 -0.1865  0.2897 -0.0303
 1217TIP3    H127846   3.280   4.467  17.558  0.2125  0.3046 -1.5341
 1217TIP3    H227847   3.399   4.560  17.542  1.0150 -0.6376 -1.1732
 1218TIP3   OH227848   3.069   7.018  17.133  0.0298  0.0302 -0.9220
 1218TIP3    H127849   2.994   7.076  17.143  1.2539  1.6719 -0.8443
 1218TIP3    H227850   3.033   6.929  17.142 -1.7304  0.7980 -0.0209
 1219TIP3   OH227851   3.136   7.010  15.995 -0.4655  0.2521 -0.3986
 1219TIP3    H127852   3.195   7.079  15.964 -0.9429  1.2036  0.7156
 1219TIP3    H227853   3.136   6.945  15.925  1.2286  0.6270 -0.7941
 1220TIP3   OH227854   6.646   1.556  16.805 -0.0297 -0.0074 -0.4501
 1220TIP3    H127855   6.592   1.477  16.808 -0.5717  0.3867  0.7850
 1220TIP3    H227856   6.735   1.526  16.825  0.2358 -0.6446 -2.3846
 1221TIP3   OH227857   2.665   5.454  17.289 -0.1533  0.4531  0.1494
 1221TIP3    H127858   2.728   5.408  17.344  0.8861  1.0757 -0.4813
 1221TIP3    H227859   2.607   5.498  17.351 -0.3253 -0.5936  0.7460
 1222TIP3   OH227860   1.440   4.166  18.359 -0.0821  0.0526  0.1278
 1222TIP3    H127861   1.366   4.169  18.421 -0.1075  1.5479  0.0594
 1222TIP3    H227862   1.513   4.134  18.411 -0.4661 -0.1442  0.5547
 1223TIP3   OH227863   6.789   0.998  18.184  0.4578  0.1118 -0.5124
 1223TIP3    H127864   6.733   1.028  18.256  2.8595  3.0169  0.4077
 1223TIP3    H227865   6.802   0.905  18.201 -0.0876  0.4199  2.1274
 1224TIP3   OH227866   5.386   3.953  18.835  0.1242 -0.0302 -0.2493
 1224TIP3    H127867   5.325   4.026  18.825 -0.8907 -0.7387  0.6451
 1224TIP3    H227868   5.463   3.991  18.877 -0.1769  0.6310 -0.2958
 1225TIP3   OH227869   3.323   7.080  16.410  0.9428  0.5423  0.0635
 1225TIP3    H127870   3.320   6.984  16.415  0.2383  0.4965 -0.9614
 1225TIP3    H227871   3.268   7.110  16.482  0.8117  0.1650  0.1219
 1226TIP3   OH227872   6.231   0.835  16.636 -0.4342  0.2821  0.0054
 1226TIP3    H127873   6.281   0.755  16.654  0.2626  0.8129  0.4794
 1226TIP3    H227874   6.264   0.866  16.553  0.6605  1.0973  0.7233
 1227TIP3   OH227875   7.392   2.742  17.622  0.1214 -0.1143  0.1538
 1227TIP3    H127876   7.364   2.660  17.580  0.0980  0.0547 -0.1625
 1227TIP3    H227877   7.357   2.811  17.566  0.9856  0.1087 -0.1281
 1228TIP3   OH227878   2.302   2.426  18.739  0.5820  0.1716 -0.1032
 1228TIP3    H127879   2.300   2.392  18.649  1.0658 -0.0355 -0.0433
 1228TIP3    H227880   2.248   2.504  18.737  0.8499  0.3473 -0.6525
 1229TIP3   OH227881   0.347   1.135  19.041  0.3285 -0.5728 -0.2483
 1229TIP3    H127882   0.252   1.137  19.056 -0.0449 -1.3283 -2.1669
 1229TIP3    H227883   0.366   1.220  19.001  0.5306 -0.3176  0.3735
 1230TIP3   OH227884   3.716   1.281  16.846  0.3481 -0.3096  0.6942
 1230TIP3    H127885   3.767   1.222  16.792 -0.5852 -0.9245  0.4677
 1230TIP3    H227886   3.771   1.296  16.923  2.4666  1.9129 -1.0571
 1231TIP3   OH227887   7.074   0.708  16.200 -0.5339  0.1091 -0.1477
 1231TIP3    H127888   7.117   0.793  16.192  0.6180 -0.5623 -1.5917
 1231TIP3    H227889   7.054   0.699  16.293  0.7300  1.2714  0.2599
 1232TIP3   OH227890   1.940   6.922  17.745 -0.0282  0.0726 -0.4599
 1232TIP3    H127891   1.985   6.934  17.828 -3.4320  1.1056  1.4158
 1232TIP3    H227892   1.928   6.827  17.738  0.8193 -0.0709 -0.1115
 1233TIP3   OH227893   0.685   1.554  18.325 -0.2961 -0.1919  0.3245
 1233TIP3    H127894   0.602   1.562  18.373 -0.2302 -0.1641  0.4350
 1233TIP3    H227895   0.666   1.490  18.256 -0.2748 -0.5515  0.6479
 1234TIP3   OH227896   2.942   6.052  17.757 -0.2222  0.5266  0.2939
 1234TIP3    H127897   3.010   6.097  17.808  0.9032 -1.4577  0.6595
 1234TIP3    H227898   2.924   6.111  17.684  0.3679  2.0502  1.3226
 1235TIP3   OH227899   0.261   3.363  18.032  0.0128  0.0830  0.2484
 1235TIP3    H127900   0.247   3.276  18.069 -0.3829 -0.1353 -0.3909
 1235TIP3    H227901   0.294   3.347  17.944 -0.0118  0.5832  0.1444
 1236TIP3   OH227902   0.435   0.602  18.244 -0.5445 -0.1807 -0.4275
 1236TIP3    H127903   0.406   0.511  18.250  0.0922 -0.3276  0.8515
 1236TIP3    H227904   0.486   0.605  18.164  0.4011 -1.2669  0.0919
 1237TIP3   OH227905   5.629   4.207  17.435 -0.0540  0.0254 -0.1075
 1237TIP3    H127906   5.549   4.161  17.409 -1.0665  1.0311  1.0615
 1237TIP3    H227907   5.688   4.196  17.361 -0.9549 -1.4616 -0.6665
 1238TIP3   OH227908   6.397   1.793  18.895 -0.2340  0.1715  0.3159
 1238TIP3    H127909   6.393   1.707  18.854 -0.8350  0.1541  0.4017
 1238TIP3    H227910   6.485   1.797  18.933 -0.2306 -0.4400  0.3863
 1239TIP3   OH227911   4.505   7.299  17.319  0.1688 -0.0540  0.4995
 1239TIP3    H127912   4.459   7.378  17.348 -0.9180 -0.0387 -1.1489
 1239TIP3    H227913   4.436   7.235  17.301  0.8803 -0.5986 -0.4176
 1240TIP3   OH227914   2.155   6.888  17.086 -0.1331  0.7917 -0.0538
 1240TIP3    H127915   2.184   6.805  17.124 -0.4675  1.2644  1.2791
 1240TIP3    H227916   2.080   6.914  17.139  0.1024  2.0545 -0.3054
 1241TIP3   OH227917   7.355   6.275  17.036 -0.2641  0.5580  0.2865
 1241TIP3    H127918   7.423   6.220  16.998 -1.1768 -1.6248  1.6493
 1241TIP3    H227919   7.403   6.340  17.088  0.8168 -0.8109  1.0633
 1242TIP3   OH227920   0.352   3.990  16.428 -0.2800  0.2242  0.7249
 1242TIP3    H127921   0.310   4.070  16.397  0.7113  0.1244 -1.0351
 1242TIP3    H227922   0.338   3.927  16.357  0.3163 -0.6908  1.3895
 1243TIP3   OH227923   0.526   7.080  18.139  0.4042 -0.0377 -0.6299
 1243TIP3    H127924   0.520   7.076  18.234  0.2555 -2.2298 -0.6903
 1243TIP3    H227925   0.619   7.085  18.120  0.5349 -1.2751 -0.3798
 1244TIP3   OH227926   5.997   4.521  16.866 -0.5971 -0.5784  0.2928
 1244TIP3    H127927   6.087   4.552  16.877 -0.3015 -1.3081 -0.0051
 1244TIP3    H227928   5.994   4.486  16.777 -1.4926  0.4276 -0.1083
 1245TIP3   OH227929   6.566   0.506  16.448  0.1395  0.5519 -0.4592
 1245TIP3    H127930   6.532   0.487  16.360  0.0682 -0.1700 -0.2836
 1245TIP3    H227931   6.661   0.502  16.438  0.1299  0.3403 -0.4805
 1246TIP3   OH227932   1.730   1.785  16.330 -0.2327  0.0679  0.0027
 1246TIP3    H127933   1.714   1.692  16.315  2.0408 -0.0435 -2.5590
 1246TIP3    H227934   1.666   1.829  16.274  0.6911 -0.0944 -1.2310
 1247TIP3   OH227935   7.265   5.123  18.213  0.0927  0.7439  0.1796
 1247TIP3    H127936   7.337   5.065  18.237  0.3307  0.8548 -0.2512
 1247TIP3    H227937   7.205   5.120  18.288  0.7025  0.9058  0.6782
 1248TIP3   OH227938   5.466   6.068  15.650 -0.3393  0.2237 -0.1398
 1248TIP3    H127939   5.548   6.038  15.690  0.6098  1.0139 -1.4238
 1248TIP3    H227940   5.457   6.158  15.680 -0.5213  0.2734 -0.3431
 1249TIP3   OH227941   6.494   6.559  18.786  0.5467 -0.1302  0.1328
 1249TIP3    H127942   6.465   6.513  18.707 -1.4045 -1.8855  1.7442
 1249TIP3    H227943   6.571   6.509  18.815 -0.6062 -1.4947  0.9876
 1250TIP3   OH227944   6.434   0.047  17.624  0.3304  0.2805 -0.3823
 1250TIP3    H127945   6.375   0.042  17.549  0.5087 -0.4781 -0.4870
 1250TIP3    H227946   6.377   0.039  17.700  0.2919 -0.4481 -0.4830
 1251TIP3   OH227947   6.600   6.595  18.272 -0.2159  0.2381 -0.4358
 1251TIP3    H127948   6.661   6.664  18.246 -0.9018  0.1837 -2.3776
 1251TIP3    H227949   6.513   6.633  18.255 -0.6032 -1.1318 -1.7110
 1252TIP3   OH227950   4.714   7.245  18.208  0.1582  0.1300  0.3614
 1252TIP3    H127951   4.777   7.202  18.149  0.6052  0.6166  0.4793
 1252TIP3    H227952   4.726   7.339  18.192 -1.4117  0.2158 -0.5184
 1253TIP3   OH227953   2.290   2.994  17.267  0.0443 -0.4108  0.3054
 1253TIP3    H127954   2.305   2.976  17.174 -1.0259 -0.9573  0.2179
 1253TIP3    H227955   2.307   2.911  17.311 -0.4582 -0.4304  0.4705
 1254TIP3   OH227956   6.141   3.604  16.987  0.5609  0.1450 -0.6038
 1254TIP3    H127957   6.083   3.679  16.974 -1.8646 -1.2586  1.3381
 1254TIP3    H227958   6.165   3.609  17.080 -0.4733 -1.9846 -0.1722
 1255TIP3   OH227959   1.586   3.897  16.412 -0.5138 -0.3032  0.3691
 1255TIP3    H127960   1.556   3.974  16.460 -0.5248  0.7035 -1.1746
 1255TIP3    H227961   1.678   3.887  16.435 -0.4712  0.2772  0.4473
 1256TIP3   OH227962   5.307   1.924  18.402  0.4196  0.8381 -0.4416
 1256TIP3    H127963   5.278   2.009  18.436  0.9804  0.7972  0.1625
 1256TIP3    H227964   5.279   1.861  18.468  0.1137  0.5665 -0.8318
 1257TIP3   OH227965   7.164   7.464  18.953 -0.2231  0.3104  0.0426
 1257TIP3    H127966   7.207   7.392  18.906  2.0688  0.8205  1.1746
 1257TIP3    H227967   7.199   7.543  18.913 -1.2703  0.7750  0.0389
 1258TIP3   OH227968   4.475   2.950  18.078 -0.0064 -0.0965  0.0684
 1258TIP3    H127969   4.545   2.981  18.135  1.0909  0.5958 -1.5619
 1258TIP3    H227970   4.468   3.017  18.010 -1.2017 -0.9175 -0.6687
 1259TIP3   OH227971   1.229   6.792  18.043  0.3748 -0.1134 -0.4325
 1259TIP3    H127972   1.314   6.760  18.013 -0.3737 -0.3702 -2.4560
 1259TIP3    H227973   1.198   6.725  18.103  1.6460  0.0719  0.4802
 1260TIP3   OH227974   0.941   2.765  16.066  0.4151  0.1139 -0.0478
 1260TIP3    H127975   0.872   2.749  16.002  0.6975 -1.8581  0.0706
 1260TIP3    H227976   0.977   2.851  16.043 -1.0124  0.4705 -1.0689
 1261TIP3   OH227977   4.182   7.455  16.538 -0.3308 -0.3111  0.1335
 1261TIP3    H127978   4.222   7.389  16.481  0.3158  1.5831 -1.7297
 1261TIP3    H227979   4.251   7.518  16.556 -1.2359  0.5107  0.8705
 1262TIP3   OH227980   1.100   0.957  17.122  0.8291 -0.1382  0.3505
 1262TIP3    H127981   1.187   0.954  17.161  1.1525 -1.6979 -0.4321
 1262TIP3    H227982   1.043   0.918  17.188  1.2653 -2.1260 -0.3913
 1263TIP3   OH227983   4.089   5.281  16.598 -0.3571  0.3598 -0.1160
 1263TIP3    H127984   4.065   5.314  16.685 -0.2062 -0.1927  0.1370
 1263TIP3    H227985   4.045   5.196  16.592  1.3309 -0.5824  0.2700
 1264TIP3   OH227986   5.378   6.524  15.947 -0.0820 -0.6958  0.0883
 1264TIP3    H127987   5.292   6.566  15.939 -0.5371 -1.8086 -1.3815
 1264TIP3    H227988   5.379   6.487  16.035 -0.5988  0.3956  0.5651
 1265TIP3   OH227989   7.123   0.885  18.569 -0.0231  0.7659 -0.0026
 1265TIP3    H127990   7.060   0.927  18.627 -0.3407  0.1857  0.0781
 1265TIP3    H227991   7.080   0.806  18.539  0.8877  0.0394  0.5336
 1266TIP3   OH227992   3.204   1.862  16.882  0.4856  0.2103 -0.3246
 1266TIP3    H127993   3.199   1.866  16.977  1.3053  0.6313 -0.2887
 1266TIP3    H227994   3.115   1.883  16.852 -0.7619 -3.3057  0.3902
 1267TIP3   OH227995   2.451   4.409  16.794  0.3053  0.7146  0.3877
 1267TIP3    H127996   2.526   4.377  16.845  1.0495  1.5848 -0.1386
 1267TIP3    H227997   2.436   4.342  16.728  0.5105  0.4690  0.5886
 1268TIP3   OH227998   5.698   3.636  16.934 -0.2445  0.0302 -0.4192
 1268TIP3    H127999   5.738   3.635  16.847  0.6424  0.7078 -0.0288
 1268TIP3    H228000   5.743   3.567  16.982 -0.9971 -0.6013 -0.5966
 1269TIP3   OH228001   3.612   0.609  18.609 -0.5626  0.4982  0.2106
 1269TIP3    H128002   3.663   0.602  18.690 -2.8018 -1.0368  1.6091
 1269TIP3    H228003   3.662   0.559  18.545 -0.8036 -2.1059  1.8829
 1270TIP3   OH228004   4.578   2.221  18.185  0.4651 -0.0482 -0.1046
 1270TIP3    H128005   4.486   2.243  18.172  0.2555  0.6177  2.1438
 1270TIP3    H228006   4.594   2.236  18.278  3.3647  1.9202 -0.7696
 1271TIP3   OH228007   2.662   1.047  18.554 -0.0402  0.1884  0.1486
 1271TIP3    H128008   2.636   1.068  18.644 -0.5162 -0.1654  0.0993
 1271TIP3    H228009   2.743   1.095  18.540  0.1818  0.0303  0.8626
 1272TIP3   OH228010   0.160   2.035  18.232  0.4712 -0.1090  0.1729
 1272TIP3    H128011   0.156   1.982  18.312  2.5045 -0.7787 -0.1194
 1272TIP3    H228012   0.094   2.103  18.245 -1.0669 -1.7257  1.2805
 1273TIP3   OH228013   1.596   5.788  16.459  0.1731  0.5317 -0.3926
 1273TIP3    H128014   1.643   5.834  16.389 -1.2027  2.6051 -0.0217
 1273TIP3    H228015   1.647   5.807  16.538 -0.1828  1.1181 -0.3003
 1274TIP3   OH228016   4.366   5.996  17.831 -0.5060 -0.2849 -0.6691
 1274TIP3    H128017   4.446   5.967  17.787  0.7083 -1.8919  2.3176
 1274TIP3    H228018   4.337   5.921  17.882 -2.0327  1.2977  0.9537
 1275TIP3   OH228019   1.970   3.787  17.567  0.5721 -0.0021 -0.4550
 1275TIP3    H128020   2.053   3.759  17.528  1.6688 -1.6129  2.6919
 1275TIP3    H228021   1.903   3.745  17.513  1.9537 -1.6136 -0.9996
 1276TIP3   OH228022   6.295   3.777  18.989 -0.8294  0.0141 -0.0512
 1276TIP3    H128023   6.302   3.700  18.932 -2.2986 -0.2942  0.1347
 1276TIP3    H228024   6.381   3.785  19.030 -0.4907 -1.2114 -0.4794
 1277TIP3   OH228025   6.623   4.950  15.922 -0.2601 -0.2787  0.4735
 1277TIP3    H128026   6.589   4.883  15.862 -1.1638 -0.3037  0.9898
 1277TIP3    H228027   6.632   4.905  16.006 -1.6666  0.4190  1.0355
 1278TIP3   OH228028   5.436   2.131  19.336  0.3587 -0.3271 -0.7489
 1278TIP3    H128029   5.358   2.120  19.391  0.9181  0.3365  0.1862
 1278TIP3    H228030   5.402   2.167  19.254 -0.3524 -0.3127 -0.4576
 1279TIP3   OH228031   1.054   4.061  18.926 -0.2820 -0.6542  0.2410
 1279TIP3    H128032   1.091   4.064  18.837  2.6237  0.7132  1.3763
 1279TIP3    H228033   1.043   3.968  18.944  1.7167 -1.1158 -0.6203
 1280TIP3   OH228034   6.235   6.305  17.740  0.5806 -0.3781  0.2507
 1280TIP3    H128035   6.328   6.328  17.740  0.8119 -1.2428 -0.6798
 1280TIP3    H228036   6.208   6.315  17.832  1.3075  0.9516  0.3409
 1281TIP3   OH228037   0.581   2.859  18.396  0.1160  0.0427  0.3818
 1281TIP3    H128038   0.603   2.905  18.477 -1.2890 -0.6108  1.1779
 1281TIP3    H228039   0.534   2.781  18.424  0.5922 -0.7912 -1.0320
 1282TIP3   OH228040   6.708   4.517  16.434  0.0629  0.0865  0.1639
 1282TIP3    H128041   6.784   4.498  16.489  0.9753  1.0371 -0.7201
 1282TIP3    H228042   6.662   4.433  16.426  0.4557 -0.2844  1.5254
 1283TIP3   OH228043   4.884   5.731  16.440 -0.4261 -0.2123  0.0334
 1283TIP3    H128044   4.818   5.719  16.372  0.4924  1.1179 -1.1512
 1283TIP3    H228045   4.833   5.751  16.519 -1.4732  2.1552 -1.1384
 1284TIP3   OH228046   3.553   5.341  18.249 -0.5274  0.1678  0.3940
 1284TIP3    H128047   3.559   5.396  18.171  1.8071 -0.9308 -0.2813
 1284TIP3    H228048   3.459   5.327  18.261 -0.9604 -0.6584 -2.9744
 1285TIP3   OH228049   4.734   3.922  18.941  0.2837 -0.3349 -0.0205
 1285TIP3    H128050   4.754   3.843  18.891 -1.9799 -0.5264 -0.7262
 1285TIP3    H228051   4.700   3.891  19.024  0.6174 -0.0631  0.2218
 1286TIP3   OH228052   1.120   3.421  18.998  0.2291  0.5496  0.2509
 1286TIP3    H128053   1.066   3.417  19.077 -2.1573  1.1276 -1.2224
 1286TIP3    H228054   1.068   3.375  18.931  2.7346 -1.0323 -0.7288
 1287TIP3   OH228055   5.427   4.745  18.262  0.2206 -0.1319  0.4031
 1287TIP3    H128056   5.465   4.755  18.176 -1.0873 -0.5386 -0.2599
 1287TIP3    H228057   5.426   4.833  18.299 -2.5012  0.8022 -1.5037
 1288TIP3   OH228058   7.371   0.184  18.959 -0.1358 -0.4710 -0.2304
 1288TIP3    H128059   7.409   0.178  18.872  1.1134  3.3102 -0.1388
 1288TIP3    H228060   7.438   0.149  19.017  0.2498 -0.3336 -0.5912
 1289TIP3   OH228061   5.961   3.356  18.342 -0.0111  0.4446  0.6467
 1289TIP3    H128062   5.925   3.372  18.430 -0.1550 -0.0036  0.6712
 1289TIP3    H228063   5.893   3.388  18.283 -1.2467 -1.9079  0.6611
 1290TIP3   OH228064   2.628   5.002  16.758  0.3031 -0.1965 -0.6600
 1290TIP3    H128065   2.613   5.065  16.688 -0.8957  0.5055  0.1862
 1290TIP3    H228066   2.540   4.973  16.784  0.7426 -0.8508  0.1807
 1291TIP3   OH228067   0.226   4.565  16.397  0.0865 -0.1061  0.1256
 1291TIP3    H128068   0.311   4.601  16.370  1.6177 -2.6623  1.2217
 1291TIP3    H228069   0.205   4.500  16.330 -1.1436  0.5751 -0.2016
 1292TIP3   OH228070   0.347   5.571  17.497  0.4486 -0.5562 -0.0756
 1292TIP3    H128071   0.294   5.648  17.478  1.4623 -0.1949 -1.5586
 1292TIP3    H228072   0.430   5.586  17.451  2.1337 -0.8085  2.6682
 1293TIP3   OH228073   0.651   4.419  18.969 -0.2538  0.1239  0.3696
 1293TIP3    H128074   0.716   4.389  18.905  0.0361 -0.4881  0.9365
 1293TIP3    H228075   0.650   4.350  19.036 -2.5084 -0.5971 -0.3291
 1294TIP3   OH228076   7.445   3.648  18.780  0.4785 -0.1514  0.4095
 1294TIP3    H128077   7.529   3.608  18.756  0.0009  0.1332 -1.9561
 1294TIP3    H228078   7.451   3.738  18.747 -1.1529 -0.4651 -0.8776
 1295TIP3   OH228079   4.969   5.671  17.411 -0.3929 -0.7004  0.2757
 1295TIP3    H128080   4.981   5.626  17.495 -0.1942  0.7666  1.0772
 1295TIP3    H228081   5.006   5.759  17.426 -1.7485  0.0959 -0.8442
 1296TIP3   OH228082   0.735   2.319  17.167  0.3510 -0.2442  0.8831
 1296TIP3    H128083   0.684   2.300  17.245  1.7553  0.3768  2.0040
 1296TIP3    H228084   0.802   2.250  17.165  3.6148  2.5475  3.2952
 1297TIP3   OH228085   0.311   0.747  16.844  0.6911  0.0561  0.1379
 1297TIP3    H128086   0.240   0.732  16.906 -0.2402  2.1976 -0.3115
 1297TIP3    H228087   0.301   0.678  16.779 -0.5307 -0.1061  0.4796
 1298TIP3   OH228088   1.224   4.837  16.760 -0.3632  0.3081  0.4689
 1298TIP3    H128089   1.227   4.746  16.732 -2.5816 -0.0929  1.2870
 1298TIP3    H228090   1.175   4.881  16.691 -1.9287  0.2180  1.4637
 1299TIP3   OH228091   0.095   6.269  18.478  0.2748 -0.3588 -0.1903
 1299TIP3    H128092   0.019   6.232  18.434 -0.6663  2.1342 -0.8381
 1299TIP3    H228093   0.102   6.220  18.560 -2.6713 -0.0269  0.3759
 1300TIP3   OH228094   4.517   3.525  18.323  0.1913  0.8639  0.1899
 1300TIP3    H128095   4.485   3.436  18.310 -2.1456  1.3944  1.6727
 1300TIP3    H228096   4.563   3.523  18.407 -1.6810  1.3977  1.2979
 1301TIP3   OH228097   1.518   6.866  17.665 -0.8075  0.0632  0.0367
 1301TIP3    H128098   1.505   6.957  17.639 -0.1420  1.3270  3.5835
 1301TIP3    H228099   1.432   6.838  17.697 -0.6936 -0.0890  0.2116
 1302TIP3   OH228100   2.610   6.193  17.025 -0.2099 -0.6878  0.0672
 1302TIP3    H128101   2.587   6.110  16.984  1.5802 -1.5695  0.6956
 1302TIP3    H228102   2.666   6.168  17.099 -0.9273  0.9961  1.2473
 1303TIP3   OH228103   6.805   2.515  17.834  0.0848  0.3063  0.0401
 1303TIP3    H128104   6.831   2.489  17.746  1.1749 -1.8098  0.9241
 1303TIP3    H228105   6.799   2.433  17.883 -1.8627  1.2958  1.6119
 1304TIP3   OH228106   4.832   4.047  17.536  0.2670 -0.3580  0.8823
 1304TIP3    H128107   4.754   4.100  17.522  0.1134 -0.6180  0.7494
 1304TIP3    H228108   4.824   4.014  17.625  1.6020  1.8905  1.9237
 1305TIP3   OH228109   6.566   1.763  18.594  0.1465 -0.2940 -0.1199
 1305TIP3    H128110   6.500   1.829  18.615 -0.4717 -1.1350  0.6314
 1305TIP3    H228111   6.623   1.806  18.530 -2.2926 -0.2253 -2.4108
 1306TIP3   OH228112   3.739   5.259  15.569  0.0481 -0.0566  0.4903
 1306TIP3    H128113   3.658   5.227  15.609  0.5828 -0.9135  0.9338
 1306TIP3    H228114   3.788   5.297  15.641  0.1090  0.3163  0.2528
 1307TIP3   OH228115   3.359   3.870  17.658  0.2250 -0.1819 -0.0462
 1307TIP3    H128116   3.280   3.872  17.604  0.5079 -1.4470 -0.5378
 1307TIP3    H228117   3.348   3.793  17.715 -0.7725  1.9192  2.8615
 1308TIP3   OH228118   0.724   4.892  16.614 -0.2751  0.2984  0.1185
 1308TIP3    H128119   0.678   4.950  16.554 -0.7243  0.1905  0.3560
 1308TIP3    H228120   0.696   4.804  16.588 -0.6142  0.2614  0.6019
 1309TIP3   OH228121   2.249   7.219  16.444  0.2134 -1.1140  0.3169
 1309TIP3    H128122   2.181   7.165  16.406 -1.4607  2.5078 -2.4366
 1309TIP3    H228123   2.216   7.242  16.531 -2.1565  0.4281 -0.8937
 1310TIP3   OH228124   2.118   4.201  16.675 -0.3499  0.6544  0.1890
 1310TIP3    H128125   2.157   4.114  16.673 -1.4029  0.1851 -1.2278
 1310TIP3    H228126   2.159   4.248  16.603 -1.0610  0.7485 -0.1605
 1311TIP3   OH228127   2.884   2.008  17.196  0.1829  0.5485  0.8280
 1311TIP3    H128128   2.891   1.984  17.288 -0.6916  0.3099  0.8410
 1311TIP3    H228129   2.869   1.925  17.151  4.0954  0.0983  0.0018
 1312TIP3   OH228130   6.188   0.658  16.044 -0.7253  0.0355  0.6228
 1312TIP3    H128131   6.222   0.570  16.029 -2.9263 -0.6118 -1.2026
 1312TIP3    H228132   6.107   0.644  16.094 -2.5641  0.6575 -1.9751
 1313TIP3   OH228133   2.118   2.218  17.035  0.1813  0.3813 -0.5084
 1313TIP3    H128134   2.093   2.240  17.124 -0.6964 -0.7961 -0.4370
 1313TIP3    H228135   2.202   2.262  17.021  0.1362  0.8870  0.7530
 1314TIP3   OH228136   6.935   0.162  18.457 -0.1045  0.5766 -0.2289
 1314TIP3    H128137   6.951   0.111  18.537  1.8113  0.0334 -0.8997
 1314TIP3    H228138   6.889   0.101  18.399 -3.4621  1.6105  1.0972
 1315TIP3   OH228139   3.413   6.958  18.521  0.1512 -0.2100 -0.0570
 1315TIP3    H128140   3.488   6.915  18.564  0.0904  0.3672  0.6569
 1315TIP3    H228141   3.396   7.035  18.576  0.0487  0.5391 -1.1215
 1316TIP3   OH228142   4.949   4.761  18.582  0.0630  0.2284  0.3631
 1316TIP3    H128143   4.884   4.831  18.573 -1.5074 -1.2607 -0.3578
 1316TIP3    H228144   5.026   4.794  18.536 -0.2424  1.9326  1.0039
 1317TIP3   OH228145   0.422   6.734  17.493 -0.5762  0.0988  0.4273
 1317TIP3    H128146   0.493   6.673  17.513 -0.2819 -0.1587 -1.2724
 1317TIP3    H228147   0.376   6.746  17.576  0.8140 -0.5593  1.3153
 1318TIP3   OH228148   5.247   2.677  18.070 -0.1395  0.1094  0.0628
 1318TIP3    H128149   5.323   2.684  18.013  0.3849  0.0656  0.7415
 1318TIP3    H228150   5.172   2.679  18.010  0.3110  1.8078 -0.5062
 1319TIP3   OH228151   4.974   3.252  17.685  1.0569 -0.1938 -0.6158
 1319TIP3    H128152   4.962   3.169  17.730 -0.7030 -1.1917 -2.7172
 1319TIP3    H228153   5.069   3.266  17.684  1.2021 -0.2440  2.9349
 1320TIP3   OH228154   7.049   1.124  16.960  0.0765 -0.3342  0.2138
 1320TIP3    H128155   6.964   1.153  16.928  1.5654  0.5960 -3.3597
 1320TIP3    H228156   7.070   1.185  17.031 -2.0044 -0.3489  0.9023
 1321TIP3   OH228157   1.890   6.502  18.514  0.1846 -0.2611  0.3337
 1321TIP3    H128158   1.908   6.563  18.443 -0.0326  2.0541  2.1486
 1321TIP3    H228159   1.797   6.482  18.506  0.3387 -0.6622 -0.4984
 1322TIP3   OH228160   5.069   7.166  17.085 -0.7015  0.1223 -0.4148
 1322TIP3    H128161   4.976   7.173  17.108 -0.6238  0.3193 -0.1561
 1322TIP3    H228162   5.105   7.252  17.107 -0.4312  0.0020 -0.3914
 1323TIP3   OH228163   1.090   3.942  16.817 -0.2365 -0.0315  0.0818
 1323TIP3    H128164   1.024   3.878  16.845  1.3095 -2.4242 -1.4184
 1323TIP3    H228165   1.053   3.981  16.738 -0.9012  0.5140  0.6429
 1324TIP3   OH228166   4.045   1.707  18.310  0.6925  0.5474  0.5496
 1324TIP3    H128167   3.969   1.674  18.358 -0.1530  1.6495  0.0220
 1324TIP3    H228168   4.119   1.659  18.346 -0.3310 -1.1135  0.5686
 1325TIP3   OH228169   4.939   5.379  16.518 -0.3571 -0.6858 -0.7626
 1325TIP3    H128170   4.917   5.424  16.599 -0.8136 -1.1964 -0.6032
 1325TIP3    H228171   4.926   5.446  16.450 -0.3965 -0.3900 -0.4696
 1326TIP3   OH228172   3.237   5.572  17.817 -0.5340  0.1740 -0.1371
 1326TIP3    H128173   3.227   5.515  17.741  0.4896  1.1607 -1.0296
 1326TIP3    H228174   3.170   5.639  17.807 -0.0432  0.6167 -0.4551
 1327TIP3   OH228175   3.017   1.492  17.323  0.6248  0.5751 -0.7619
 1327TIP3    H128176   3.073   1.542  17.381  1.0040 -0.3927 -0.2797
 1327TIP3    H228177   2.928   1.514  17.351  0.8017  0.0545  0.2535
 1328TIP3   OH228178   7.150   5.582  18.705  0.6250 -0.3867 -0.3243
 1328TIP3    H128179   7.107   5.617  18.627  0.9647  0.0213 -0.3375
 1328TIP3    H228180   7.205   5.655  18.736 -0.0318 -0.2955  0.6935
 1329TIP3   OH228181   2.207   2.023  16.849 -0.1995  0.3063 -0.1846
 1329TIP3    H128182   2.285   2.009  16.903 -0.5977 -0.3600  0.2494
 1329TIP3    H228183   2.149   2.076  16.905  0.5945  2.2862 -1.1541
 1330TIP3   OH228184   2.696   5.657  17.757  0.0601  0.0633 -0.0551
 1330TIP3    H128185   2.644   5.597  17.810 -1.6690  1.4181 -0.1203
 1330TIP3    H228186   2.744   5.710  17.821 -0.0179 -0.0107  0.0648
 1331TIP3   OH228187   3.917   1.400  18.128 -0.3511 -0.2123 -0.3070
 1331TIP3    H128188   3.956   1.486  18.113  0.7164 -0.8160 -1.1338
 1331TIP3    H228189   3.913   1.392  18.223  0.1335  0.5009 -0.2214
 1332TIP3   OH228190   0.671   7.292  18.722 -0.0036  0.0550 -0.0305
 1332TIP3    H128191   0.590   7.243  18.713 -0.2352  0.5780 -0.9275
 1332TIP3    H228192   0.733   7.230  18.761 -0.5496 -0.6540 -0.2786
 1333TIP3   OH228193   3.887   2.913  18.782  0.2876 -0.6694  0.3733
 1333TIP3    H128194   3.937   2.852  18.728  2.9768  0.3392  1.5432
 1333TIP3    H228195   3.899   2.882  18.872  0.9345  0.9812  0.9053
 1334TIP3   OH228196   5.392   0.573  16.690 -0.5518 -0.3364  0.4003
 1334TIP3    H128197   5.352   0.660  16.693  0.5760  0.1627  2.4699
 1334TIP3    H228198   5.471   0.585  16.637 -1.2594 -0.5354 -0.7477
 1335TIP3   OH228199   5.036   5.117  17.944 -0.0860 -0.1368  0.7842
 1335TIP3    H128200   4.999   5.031  17.962  1.9116 -1.6634 -1.7596
 1335TIP3    H228201   4.961   5.172  17.921 -1.1106 -2.3335 -1.5166
 1336TIP3   OH228202   7.399   5.769  15.764  0.2606  0.5496 -0.1375
 1336TIP3    H128203   7.456   5.829  15.716 -0.1342  0.2489 -1.0169
 1336TIP3    H228204   7.312   5.783  15.726  0.1994 -0.7143 -0.5124
 1337TIP3   OH228205   4.449   4.501  17.183 -0.0016  0.0881  0.0082
 1337TIP3    H128206   4.407   4.416  17.198  0.6720 -0.2583 -0.0210
 1337TIP3    H228207   4.378   4.564  17.187 -0.5264 -0.4898 -0.0539
 1338TIP3   OH228208   3.778   6.120  17.814 -0.5937  0.2135 -0.3819
 1338TIP3    H128209   3.853   6.171  17.786  0.0613 -0.3066  0.3892
 1338TIP3    H228210   3.776   6.044  17.756  1.9112 -1.8812  2.0075
 1339TIP3   OH228211   4.465   4.325  16.611 -0.4234 -0.3573  1.1247
 1339TIP3    H128212   4.418   4.405  16.585  0.2170  0.7702  3.2181
 1339TIP3    H228213   4.556   4.342  16.588 -0.5626 -1.3980 -0.3465
 1340TIP3   OH228214   0.906   0.671  17.081 -0.6224  0.2692  0.0169
 1340TIP3    H128215   0.829   0.726  17.094 -0.7513  0.0140  0.3685
 1340TIP3    H228216   0.959   0.684  17.160 -0.4657  0.1924 -0.0743
 1341TIP3   OH228217   1.701   0.283  18.660  0.3337  0.1828 -0.7400
 1341TIP3    H128218   1.656   0.216  18.711  0.0881 -0.2209 -1.4686
 1341TIP3    H228219   1.708   0.245  18.572  4.2450 -0.8440 -0.1833
 1342TIP3   OH228220   5.718   0.372  17.096 -0.9810 -0.4466  0.2798
 1342TIP3    H128221   5.683   0.398  17.181  0.2826  0.5835  0.5220
 1342TIP3    H228222   5.737   0.455  17.052  2.5318 -0.8484  0.7914
 1343TIP3   OH228223   5.088   7.262  15.857  0.0735  0.3728  0.6664
 1343TIP3    H128224   5.122   7.337  15.906  2.5146  0.3083 -0.7306
 1343TIP3    H228225   5.153   7.193  15.871 -0.3982 -0.3959 -0.7230
 1344TIP3   OH228226   4.703   2.918  17.490 -0.3556  0.3358  0.2083
 1344TIP3    H128227   4.627   2.955  17.446  0.0240  0.6225 -0.2085
 1344TIP3    H228228   4.768   2.988  17.491  0.7688 -0.6198 -1.5617
 1345TIP3   OH228229   0.138   1.906  18.477 -0.3207 -0.1268  0.2180
 1345TIP3    H128230   0.227   1.898  18.513 -0.6737  0.8947  1.3706
 1345TIP3    H228231   0.083   1.923  18.553 -1.0670  2.2799 -0.7716
 1346TIP3   OH228232   2.672   0.049  17.430  0.2945 -0.5244 -0.1070
 1346TIP3    H128233   2.708   0.124  17.477 -0.6898  1.0988 -1.8475
 1346TIP3    H228234   2.583   0.075  17.408  0.5066 -1.4648 -2.2913
 1347TIP3   OH228235   5.913   7.262  17.162 -0.2395 -0.5235  0.1605
 1347TIP3    H128236   5.856   7.204  17.212 -0.0371 -1.0987 -0.2602
 1347TIP3    H228237   5.975   7.296  17.226 -1.1875  0.2940  0.6683
 1348TIP3   OH228238   7.445   3.901  18.679 -0.3059 -0.1302  0.2429
 1348TIP3    H128239   7.435   3.996  18.679 -1.8171 -0.2622  0.2003
 1348TIP3    H228240   7.458   3.878  18.587  0.0449  0.0430  0.2534
 1349TIP3   OH228241   6.106   1.601  18.846  0.1224 -0.2728  0.6386
 1349TIP3    H128242   6.028   1.548  18.830  1.1550 -1.7076  0.1703
 1349TIP3    H228243   6.090   1.640  18.932 -2.2303  1.6062 -0.5183
 1350TIP3   OH228244   6.332   2.954  17.183  0.1150 -0.1742  0.1870
 1350TIP3    H128245   6.307   2.903  17.260 -0.7309  0.0123  0.0476
 1350TIP3    H228246   6.419   2.989  17.204  0.0344 -0.3940  0.9116
 1351TIP3   OH228247   2.007   2.557  18.676  0.2901  0.3315 -0.2217
 1351TIP3    H128248   1.984   2.529  18.764 -0.4440  0.3767 -0.3921
 1351TIP3    H228249   2.006   2.476  18.624  2.0315  0.0878  0.0538
 1352TIP3   OH228250   6.322   2.008  18.087  0.0891  0.2894  0.0156
 1352TIP3    H128251   6.393   2.027  18.148  0.9402  0.8588 -1.1167
 1352TIP3    H228252   6.242   2.030  18.136  0.7834  1.6387  0.6105
 1353TIP3   OH228253   1.860   5.659  18.377  0.1155  0.2326 -0.2738
 1353TIP3    H128254   1.891   5.576  18.341 -0.6172  0.9252 -2.6682
 1353TIP3    H228255   1.781   5.635  18.427 -2.0431 -0.2900 -3.5938
 1354TIP3   OH228256   1.655   2.254  18.930  0.4449  0.2643 -0.5320
 1354TIP3    H128257   1.617   2.242  18.843  1.8882  0.8331 -1.2798
 1354TIP3    H228258   1.659   2.166  18.968 -2.5752  0.2911  0.0514
 1355TIP3   OH228259   2.916   4.983  16.128  0.0671  0.0581  0.0222
 1355TIP3    H128260   2.919   4.901  16.079 -0.1257  0.8116 -1.3157
 1355TIP3    H228261   3.006   5.014  16.130 -0.0264  0.3836 -0.5157
 1356TIP3   OH228262   1.254   3.955  17.354  0.0994  0.4279 -0.0190
 1356TIP3    H128263   1.302   4.038  17.358 -2.1756  1.7624  1.4375
 1356TIP3    H228264   1.295   3.901  17.422  1.8638  0.1094 -1.2474
 1357TIP3   OH228265   2.941   4.351  17.699  0.2059 -0.0892 -0.4212
 1357TIP3    H128266   3.030   4.372  17.727 -0.7248  1.9247  1.2442
 1357TIP3    H228267   2.935   4.256  17.708  1.4316 -0.0103  1.8720
 1358TIP3   OH228268   5.503   3.099  16.100  0.2839 -0.4904 -0.0801
 1358TIP3    H128269   5.418   3.131  16.129  0.3505 -1.0144  0.7151
 1358TIP3    H228270   5.483   3.046  16.023  0.0199  0.2650 -0.5494
 1359TIP3   OH228271   1.777   0.289  17.786 -0.2699  0.0099 -0.0688
 1359TIP3    H128272   1.852   0.236  17.810  0.0817  0.8205  0.6635
 1359TIP3    H228273   1.727   0.234  17.725  0.7556 -0.6421 -0.3408
 1360TIP3   OH228274   1.127   7.372  16.537  0.6895 -0.2108  0.5184
 1360TIP3    H128275   1.132   7.311  16.611 -1.5102 -0.9089  0.1757
 1360TIP3    H228276   1.089   7.320  16.466 -0.3732  1.2786 -0.0618
 1361TIP3   OH228277   3.277   7.260  17.027 -0.0881 -0.1024  0.1010
 1361TIP3    H128278   3.324   7.186  17.065 -1.7060 -1.0991  0.2442
 1361TIP3    H228279   3.197   7.267  17.080 -0.5139  0.9994 -0.6628
 1362TIP3   OH228280   1.740   1.758  18.493  0.2376  0.0726  0.5662
 1362TIP3    H128281   1.762   1.759  18.400  0.2210  1.3536  0.5593
 1362TIP3    H228282   1.824   1.743  18.537  0.1572 -1.1607  0.3495
 1363TIP3   OH228283   2.137   2.358  17.667 -0.2385 -0.0665  0.4237
 1363TIP3    H128284   2.096   2.282  17.625 -0.6956  1.2547 -1.7059
 1363TIP3    H228285   2.230   2.335  17.671 -0.2928 -0.5810 -0.6351
 1364TIP3   OH228286   4.796   7.137  17.954  0.5808  0.4267  0.3202
 1364TIP3    H128287   4.823   7.188  17.878  1.2694 -0.7980 -0.2788
 1364TIP3    H228288   4.840   7.052  17.944 -0.6764 -0.3699  1.1839
 1365TIP3   OH228289   5.469   6.474  16.564 -0.1897 -0.3326 -0.1607
 1365TIP3    H128290   5.501   6.496  16.477  1.1999 -1.3511  0.0641
 1365TIP3    H228291   5.546   6.480  16.620 -0.9774 -0.0837  0.9424
 1366TIP3   OH228292   1.384   6.671  17.258 -0.2052 -0.0359  0.2873
 1366TIP3    H128293   1.370   6.646  17.349  0.4064  0.0242  0.3997
 1366TIP3    H228294   1.414   6.761  17.262  1.0921 -0.4467  0.1144
 1367TIP3   OH228295   1.152   3.168  18.578 -0.5548  0.1467  0.3907
 1367TIP3    H128296   1.222   3.206  18.525 -0.6851 -0.3363 -0.1394
 1367TIP3    H228297   1.169   3.200  18.667 -1.2871  2.3606 -0.1863
 1368TIP3   OH228298   3.403   6.140  16.978 -0.0126 -0.0738  0.4077
 1368TIP3    H128299   3.417   6.164  17.069  1.4164 -0.9474  0.4436
 1368TIP3    H228300   3.477   6.179  16.931 -0.0002 -0.7576 -0.1588
 1369TIP3   OH228301   4.111   6.059  18.857 -0.3719  0.4466 -0.3827
 1369TIP3    H128302   4.017   6.053  18.868 -0.1265  1.3753  3.3647
 1369TIP3    H228303   4.128   6.152  18.840 -0.0510  0.5177  0.3022
 1370TIP3   OH228304   5.717   3.168  18.249  0.4433  0.2754  0.2845
 1370TIP3    H128305   5.759   3.229  18.310 -0.3091  1.1268 -0.0321
 1370TIP3    H228306   5.790   3.128  18.201  0.9087  1.8415 -0.3631
 1371TIP3   OH228307   1.885   4.132  18.370 -0.0435  0.1511 -0.5124
 1371TIP3    H128308   1.807   4.117  18.423  0.2525  0.4585  0.0257
 1371TIP3    H228309   1.882   4.226  18.348  0.2871  0.2122 -0.3021
 1372TIP3   OH228310   3.461   0.018  17.180  0.1307 -0.2952 -0.0668
 1372TIP3    H128311   3.389  -0.040  17.203  0.8229 -0.6443  1.3151
 1372TIP3    H228312   3.446   0.097  17.232 -1.0363  1.0209 -2.2305
 1373TIP3   OH228313   3.608   0.102  16.475  0.1144 -0.1698  0.1722
 1373TIP3    H128314   3.539   0.073  16.534 -1.4067  0.4492 -1.2428
 1373TIP3    H228315   3.571   0.177  16.429  2.1336  0.8717  0.1392
 1374TIP3   OH228316   3.503   6.444  16.040 -0.6363  0.2645 -0.4583
 1374TIP3    H128317   3.420   6.489  16.023 -1.0727 -0.3951 -0.1274
 1374TIP3    H228318   3.505   6.373  15.975 -0.3448  0.2586 -0.4416
 1375TIP3   OH228319   3.537   0.812  18.293 -0.2993 -0.1530  0.0205
 1375TIP3    H128320   3.597   0.744  18.323 -0.5010 -0.3874 -0.1070
 1375TIP3    H228321   3.480   0.828  18.368 -0.1528 -0.0143  0.1020
 1376TIP3   OH228322   0.278   3.404  18.915  0.1054 -0.5152 -0.4258
 1376TIP3    H128323   0.270   3.477  18.855  0.9227 -0.1339 -0.0870
 1376TIP3    H228324   0.324   3.440  18.991  0.1356 -1.2689 -0.0765
 1377TIP3   OH228325   0.536   0.402  17.271 -0.5113  0.3005  0.3617
 1377TIP3    H128326   0.456   0.368  17.312 -0.4982  1.8330  1.7538
 1377TIP3    H228327   0.572   0.463  17.335  1.0731  0.6448 -0.7996
 1378TIP3   OH228328   0.120   6.942  18.857  0.2728 -0.3376 -0.0162
 1378TIP3    H128329   0.196   6.979  18.902  0.3281 -0.9654  0.4282
 1378TIP3    H228330   0.157   6.895  18.782  0.3508 -0.8427  0.3347
 1379TIP3   OH228331   2.275   1.641  17.257 -0.3903 -0.1498 -0.8261
 1379TIP3    H128332   2.247   1.714  17.202  0.5505  2.3328  1.7912
 1379TIP3    H228333   2.358   1.669  17.295 -1.0527 -1.6197  1.9478
 1380TIP3   OH228334   0.880   4.661  16.371 -0.5176 -0.5704  0.0686
 1380TIP3    H128335   0.822   4.657  16.447 -1.5874  0.3880 -0.6624
 1380TIP3    H228336   0.822   4.646  16.296  0.4448 -1.0699 -0.5922
 1381TIP3   OH228337   5.333   0.711  18.512 -0.2200 -0.8590  0.0352
 1381TIP3    H128338   5.302   0.797  18.540 -0.0890 -0.5712 -0.6784
 1381TIP3    H228339   5.324   0.656  18.589 -1.9682 -0.6507  0.0259
 1382TIP3   OH228340   5.395   2.447  19.004 -0.3503  0.0948 -0.1674
 1382TIP3    H128341   5.451   2.488  19.069 -1.6275  1.6513  0.0003
 1382TIP3    H228342   5.379   2.515  18.939 -0.9666 -0.7303 -0.9072
 1383TIP3   OH228343   6.119   2.803  17.956  0.0169  0.4160 -0.5809
 1383TIP3    H128344   6.089   2.831  18.042  0.0308  2.7403 -1.2560
 1383TIP3    H228345   6.192   2.861  17.936  0.3176 -0.3869 -1.9779
 1384TIP3   OH228346   1.352   5.818  17.036 -0.4781  0.3459 -0.2250
 1384TIP3    H128347   1.351   5.814  16.940  0.0434  1.8607 -0.3112
 1384TIP3    H228348   1.428   5.765  17.061 -0.7349 -0.2304 -0.6150
 1385TIP3   OH228349   7.062   7.267  17.337  0.1720 -0.5748 -0.4462
 1385TIP3    H128350   7.004   7.338  17.309  0.9403  0.8005  1.2329
 1385TIP3    H228351   7.108   7.241  17.257 -0.5025  0.4720 -1.1955
 1386TIP3   OH228352   4.974   6.940  17.968  0.3330  0.2071  0.0423
 1386TIP3    H128353   5.056   6.909  17.930  0.7652 -0.2092  1.2794
 1386TIP3    H228354   4.988   7.033  17.984 -0.0744  0.5260 -1.3637
 1387TIP3   OH228355   3.010   1.916  17.435  0.4963  0.1518  0.1246
 1387TIP3    H128356   3.066   1.850  17.475  0.1067  0.7435  1.6926
 1387TIP3    H228357   3.018   1.993  17.492  0.2491  1.1780 -1.1672
 1388TIP3   OH228358   6.266   0.583  17.488  0.2768  0.7626  0.5072
 1388TIP3    H128359   6.199   0.516  17.485  0.8450  0.1236  1.5711
 1388TIP3    H228360   6.220   0.663  17.514 -0.0201  0.2470  1.5869
 1389TIP3   OH228361   5.283   3.746  18.675 -0.0041  0.0160 -0.2030
 1389TIP3    H128362   5.319   3.826  18.712  0.1107 -0.2182  0.1914
 1389TIP3    H228363   5.207   3.776  18.624  0.2953  0.4216 -0.4167
 1390TIP3   OH228364   6.921   7.426  17.804 -0.1271  0.5146  0.4229
 1390TIP3    H128365   6.873   7.509  17.807 -0.0263  0.7673 -2.2505
 1390TIP3    H228366   6.853   7.359  17.805 -0.3149  0.7047  0.5918
 1391TIP3   OH228367   6.464   3.224  18.806  0.0163 -0.3700 -0.1143
 1391TIP3    H128368   6.375   3.217  18.839  0.1054 -1.7297 -0.1178
 1391TIP3    H228369   6.459   3.198  18.715  0.7293 -2.6280  0.4271
 1392TIP3   OH228370   1.580   5.300  18.149 -0.3463 -0.2847  0.2122
 1392TIP3    H128371   1.507   5.360  18.167  0.0654  0.7685 -1.4134
 1392TIP3    H228372   1.611   5.326  18.063  1.2591 -1.4405  0.4049
 1393TIP3   OH228373   6.649   4.693  18.483 -0.0484 -0.7565  0.0311
 1393TIP3    H128374   6.673   4.657  18.568  0.7624  0.5924  0.4099
 1393TIP3    H228375   6.623   4.784  18.503  0.7808 -0.2179 -1.2304
 1394TIP3   OH228376   7.163   4.483  17.754  0.1375  0.7768  0.4508
 1394TIP3    H128377   7.231   4.458  17.692 -1.8087 -0.9406 -1.1384
 1394TIP3    H228378   7.166   4.415  17.822 -0.9880 -0.2588 -0.4904
 1395TIP3   OH228379   6.451   3.788  18.472 -0.0655  0.5826  0.0502
 1395TIP3    H128380   6.486   3.799  18.383  1.7078 -1.3195  0.4216
 1395TIP3    H228381   6.381   3.723  18.462  0.0769  0.4327  0.0240
 1396TIP3   OH228382   2.184   0.426  17.920  0.3771 -0.4057 -0.0060
 1396TIP3    H128383   2.257   0.434  17.981  0.4922 -0.9604 -0.0712
 1396TIP3    H228384   2.224   0.434  17.834  0.3633 -0.7111 -0.0409
 1397TIP3   OH228385   4.711   0.491  18.104 -0.2137 -0.5368 -0.6083
 1397TIP3    H128386   4.738   0.452  18.021 -1.1662 -1.9920 -0.2791
 1397TIP3    H228387   4.691   0.416  18.160 -2.5076  0.3858 -0.0482
 1398TIP3   OH228388   1.001   6.425  17.837  0.1716  0.0445  0.0722
 1398TIP3    H128389   0.956   6.340  17.838  2.1286 -1.1238 -2.0852
 1398TIP3    H228390   0.967   6.468  17.758  0.1522  0.7322  0.4510
 1399TIP3   OH228391   3.121   0.919  16.337 -0.2246  0.4981 -0.1448
 1399TIP3    H128392   3.088   0.879  16.256 -1.2853  2.6466 -0.8470
 1399TIP3    H228393   3.101   1.012  16.327  1.0892  1.0459  1.9140
 1400TIP3   OH228394   5.076   6.069  16.375  0.1640  0.5770  0.5293
 1400TIP3    H128395   4.983   6.046  16.370  0.1448  0.6286  0.6489
 1400TIP3    H228396   5.085   6.147  16.319  0.2456  0.2349  0.0595
 1401TIP3   OH228397   6.862   7.048  17.409  0.2954 -0.0956 -0.2218
 1401TIP3    H128398   6.900   7.120  17.360  0.7079 -1.0580 -1.3365
 1401TIP3    H228399   6.924   7.031  17.480  0.1614  0.6668  0.0894
 1402TIP3   OH228400   2.528   6.337  17.391  0.0260 -0.1979 -0.0362
 1402TIP3    H128401   2.530   6.362  17.484  4.2246  0.0525  0.0208
 1402TIP3    H228402   2.570   6.409  17.346 -1.5714 -0.5131 -2.1392
 1403TIP3   OH228403   6.532   7.302  17.372 -0.0241  0.0327 -0.1425
 1403TIP3    H128404   6.540   7.256  17.288 -0.4016 -0.7463  0.2419
 1403TIP3    H228405   6.461   7.364  17.358  0.6363  0.6877 -0.7325
 1404TIP3   OH228406   2.499   3.758  16.884 -0.1925  0.0500 -0.2915
 1404TIP3    H128407   2.538   3.717  16.960 -1.1025  0.5376  0.4592
 1404TIP3    H228408   2.525   3.703  16.810  1.4374  0.0772  0.2410
 1405TIP3   OH228409   5.985   2.432  18.771 -0.5679  0.2686 -0.1690
 1405TIP3    H128410   6.010   2.372  18.841 -0.3292 -0.4788 -0.8841
 1405TIP3    H228411   5.898   2.403  18.744 -0.5601  0.4084 -0.3411
 1406TIP3   OH228412   1.269   4.517  17.505  0.2145  0.2348  0.3230
 1406TIP3    H128413   1.251   4.540  17.414 -0.3610 -2.2779 -0.2822
 1406TIP3    H228414   1.341   4.574  17.531  0.8016  0.5894 -1.9184
 1407TIP3   OH228415   4.379   5.273  18.327  0.2308  0.0525  0.2463
 1407TIP3    H128416   4.471   5.297  18.337  0.7032 -1.2000 -0.8507
 1407TIP3    H228417   4.379   5.201  18.264 -1.4790 -0.1862  0.4634
 1408TIP3   OH228418   6.479   6.710  17.486 -0.0068 -0.4637 -0.3211
 1408TIP3    H128419   6.497   6.796  17.447  0.0743 -0.2287  0.2198
 1408TIP3    H228420   6.392   6.720  17.524  0.0422 -0.5922 -0.1772
 1409TIP3   OH228421   5.658   4.115  18.509 -0.1104 -0.0779  0.9138
 1409TIP3    H128422   5.645   4.021  18.520 -1.7272  0.2229  1.9109
 1409TIP3    H228423   5.573   4.148  18.479  0.6904  0.9641 -0.3497
 1410TIP3   OH228424   2.983   5.668  18.805  0.0546  0.2928  0.6101
 1410TIP3    H128425   2.943   5.597  18.754  0.9701  0.3356 -0.2087
 1410TIP3    H228426   2.919   5.739  18.803  0.8034  1.0022 -2.1566
 1411TIP3   OH228427   1.885   3.114  18.157 -0.2259  0.0209 -0.3430
 1411TIP3    H128428   1.941   3.062  18.099  1.1195  0.6912  0.3106
 1411TIP3    H228429   1.833   3.168  18.097  1.0601  0.6282 -0.9535
 1412TIP3   OH228430   4.716   2.346  18.592 -0.3463  0.3218 -0.2291
 1412TIP3    H128431   4.697   2.439  18.581 -0.7667  0.3577  0.7006
 1412TIP3    H228432   4.710   2.331  18.687  1.1683 -0.3382 -0.2057
 1413TIP3   OH228433   3.286   4.179  16.386 -0.3058 -0.1051 -0.3657
 1413TIP3    H128434   3.227   4.113  16.423 -0.5109 -0.4165 -1.2160
 1413TIP3    H228435   3.302   4.149  16.297  0.1960  0.6103 -0.5231
 1414TIP3   OH228436   0.118   3.321  18.514 -0.9901 -0.9513  0.6451
 1414TIP3    H128437   0.053   3.270  18.466 -0.4918 -1.1538  0.1664
 1414TIP3    H228438   0.083   3.329  18.602 -2.0065 -0.4456  0.2160
 1415TIP3   OH228439   2.123   4.589  18.956 -0.0042 -0.9335 -0.0321
 1415TIP3    H128440   2.073   4.508  18.960 -0.6806 -0.5637 -0.8119
 1415TIP3    H228441   2.195   4.571  18.895 -0.6830 -0.6709 -0.9219
 1416TIP3   OH228442   7.270   5.520  16.780 -0.3575 -0.1831  0.2048
 1416TIP3    H128443   7.339   5.514  16.714 -0.0364 -0.6146  0.5688
 1416TIP3    H228444   7.218   5.441  16.768  0.0198 -0.5331  0.8078
 1417TIP3   OH228445   3.723   5.440  18.685 -0.0926  0.2062 -0.0592
 1417TIP3    H128446   3.784   5.480  18.746 -0.2213 -0.3587  0.4511
 1417TIP3    H228447   3.637   5.469  18.715 -0.0743  1.1676 -0.8983
 1418TIP3   OH228448   4.623   4.771  17.373 -0.1183  0.7392  0.4039
 1418TIP3    H128449   4.609   4.709  17.444 -0.6100  0.5242  0.1269
 1418TIP3    H228450   4.718   4.780  17.367 -0.0686  2.1369  2.2519
 1419TIP3   OH228451   3.608   6.613  16.240 -0.0042 -0.7059  0.3389
 1419TIP3    H128452   3.590   6.556  16.165  1.8269 -0.0231 -0.6751
 1419TIP3    H228453   3.534   6.598  16.299 -0.3509 -3.0039 -0.5513
 1420TIP3   OH228454   1.979   3.379  17.649 -0.3524  0.1514  0.2445
 1420TIP3    H128455   2.048   3.371  17.583  1.3102  1.8251  1.6251
 1420TIP3    H228456   1.997   3.308  17.711 -0.9278 -0.4489 -0.2745
 1421TIP3   OH228457   5.406   5.807  17.314  0.2928  0.4404  0.6795
 1421TIP3    H128458   5.495   5.840  17.329  1.1125 -1.7658  1.1642
 1421TIP3    H228459   5.417   5.712  17.310 -2.4652 -0.2554  4.2349
 1422TIP3   OH228460   4.857   4.644  17.630  0.1411  0.4666  0.3665
 1422TIP3    H128461   4.774   4.643  17.679 -0.0657  0.1859  0.0114
 1422TIP3    H228462   4.873   4.553  17.607  1.2314  0.3300  1.5540
 1423TIP3   OH228463   7.053   3.075  18.547 -0.0104  0.2509  0.9416
 1423TIP3    H128464   6.994   3.070  18.472  0.8265 -2.8330  0.3681
 1423TIP3    H228465   6.997   3.103  18.620 -0.9754  2.6463 -0.5975
 1424TIP3   OH228466   1.477   1.604  16.301 -0.2007 -0.1137  0.0496
 1424TIP3    H128467   1.428   1.521  16.306  0.2064 -0.4409 -1.0247
 1424TIP3    H228468   1.434   1.661  16.364 -0.6560 -1.0671  0.6231
 1425TIP3   OH228469   2.258   3.799  18.694  0.1419  0.1593 -0.6829
 1425TIP3    H128470   2.233   3.873  18.749  0.0201 -0.4065  0.0482
 1425TIP3    H228471   2.186   3.789  18.633  0.1583  0.6396 -0.7842
 1426TIP3   OH228472   4.109   4.194  18.365 -0.3000 -0.4451 -0.3166
 1426TIP3    H128473   4.152   4.197  18.279  0.6602  1.0324  0.1843
 1426TIP3    H228474   4.181   4.195  18.428 -1.0248 -0.5625  0.5345
 1427TIP3   OH228475   3.114   2.349  19.032  0.1315 -0.7123 -0.2268
 1427TIP3    H128476   3.075   2.313  19.111 -0.3494 -1.9882 -1.0151
 1427TIP3    H228477   3.129   2.273  18.975  1.5498  0.0353 -0.9055
 1428TIP3   OH228478   3.812   0.192  18.721 -0.9413 -0.6108 -0.0293
 1428TIP3    H128479   3.881   0.126  18.721 -0.8708 -0.5381  0.7145
 1428TIP3    H228480   3.740   0.152  18.770 -1.1527 -0.3952 -0.1568
 1429TIP3   OH228481   1.981   3.503  16.441  0.5842 -0.1037 -0.1362
 1429TIP3    H128482   1.920   3.535  16.374 -0.7537  0.2237  1.2024
 1429TIP3    H228483   2.018   3.583  16.479 -0.1234 -0.2194  0.8227
 1430TIP3   OH228484   2.295   0.213  16.805 -0.4101 -0.4684  0.5981
 1430TIP3    H128485   2.378   0.225  16.759 -0.7854 -0.6139 -0.1393
 1430TIP3    H228486   2.230   0.205  16.735 -1.0858 -0.0654  1.1653
 1431TIP3   OH228487   5.284   5.046  18.067  0.2950  0.3692  0.0430
 1431TIP3    H128488   5.188   5.045  18.067  0.2920  0.0108 -0.4447
 1431TIP3    H228489   5.308   4.967  18.019  0.8270  0.6972 -0.2433
 1432TIP3   OH228490   0.285   4.783  16.058  0.5725 -0.1855 -0.0646
 1432TIP3    H128491   0.277   4.844  15.985  3.0181  0.2017 -0.0989
 1432TIP3    H228492   0.238   4.705  16.030 -0.4083  0.7492 -1.0972
 1433TIP3   OH228493   0.566   1.325  16.114  0.1930 -0.2585  0.0071
 1433TIP3    H128494   0.567   1.229  16.115 -1.4040 -0.2866  0.2573
 1433TIP3    H228495   0.643   1.350  16.165  1.0055 -1.3911 -0.6204
 1434TIP3   OH228496   3.731   5.736  18.326  0.3481  0.1229  0.1067
 1434TIP3    H128497   3.771   5.695  18.402  1.2616  0.9843  0.1121
 1434TIP3    H228498   3.764   5.826  18.327 -1.7032  0.9257  0.1922
 1435TIP3   OH228499   1.382   4.311  16.831 -0.0748 -0.0573 -0.7425
 1435TIP3    H128500   1.384   4.323  16.736 -2.6470 -1.2244 -1.0162
 1435TIP3    H228501   1.416   4.223  16.844 -0.0248 -0.0166 -0.5984
 1436TIP3   OH228502   4.543   6.817  17.890 -0.0750  0.4956  0.6612
 1436TIP3    H128503   4.509   6.752  17.829 -0.3238 -0.2699  1.5994
 1436TIP3    H228504   4.577   6.887  17.833  2.5907 -1.5719 -0.4696
 1437TIP3   OH228505   6.206   6.372  17.480 -0.3059  0.3701  0.2783
 1437TIP3    H128506   6.228   6.369  17.573  0.9104  2.6499  0.1359
 1437TIP3    H228507   6.131   6.432  17.475 -0.0955  0.5931 -0.2444
 1438TIP3   OH228508   1.057   2.750  16.892  0.3181  0.2024 -0.4232
 1438TIP3    H128509   1.135   2.700  16.867  0.2678  0.4490 -1.0691
 1438TIP3    H228510   1.062   2.831  16.841 -0.8714 -0.1986 -1.2241
 1439TIP3   OH228511   6.697   3.681  18.820 -0.5552 -0.5574 -1.2932
 1439TIP3    H128512   6.693   3.585  18.814  0.3030 -0.6020 -1.2364
 1439TIP3    H228513   6.790   3.700  18.831 -0.8201  0.2289 -0.3373
 1440TIP3   OH228514   5.344   1.062  16.977 -0.3639  0.5581 -0.3714
 1440TIP3    H128515   5.290   1.134  17.011  0.6752  0.9427  0.5287
 1440TIP3    H228516   5.432   1.098  16.973  0.6239 -1.2775  2.2596
 1441TIP3   OH228517   5.795   4.308  16.869  0.1423  0.1529 -0.2482
 1441TIP3    H128518   5.847   4.386  16.850  2.4316 -1.1452  0.3364
 1441TIP3    H228519   5.740   4.333  16.944 -0.0119  1.5137 -0.7956
 1442TIP3   OH228520   2.322   4.050  18.021 -1.0573  0.4555  0.0102
 1442TIP3    H128521   2.269   4.093  18.089 -2.8931 -0.3201 -0.8898
 1442TIP3    H228522   2.289   4.086  17.939 -0.9420 -0.8570 -0.6238
 1443TIP3   OH228523   5.605   6.385  17.357  0.1904 -0.0386 -0.4124
 1443TIP3    H128524   5.573   6.445  17.424  1.4595  2.0546 -1.5845
 1443TIP3    H228525   5.531   6.326  17.341 -0.9011  0.8092  1.2146
 1444TIP3   OH228526   7.457   2.114  18.608  1.1623 -0.0936 -0.1669
 1444TIP3    H128527   7.416   2.122  18.522  1.1262  0.1220 -0.1311
 1444TIP3    H228528   7.387   2.139  18.670  1.9144  2.3409 -0.1899
 1445TIP3   OH228529   0.939   3.225  16.918  0.2993  0.4872 -0.0386
 1445TIP3    H128530   0.925   3.170  16.995  0.0569  1.2462  0.4634
 1445TIP3    H228531   0.949   3.163  16.846 -0.4569 -0.2051  0.4385
 1446TIP3   OH228532   3.894   0.821  17.411 -0.0705 -0.6084 -0.5510
 1446TIP3    H128533   3.956   0.860  17.350 -1.4340  0.0756 -1.5609
 1446TIP3    H228534   3.923   0.850  17.498  0.0618  1.0827 -1.1304
 1447TIP3   OH228535   4.726   3.627  17.701 -0.2224 -0.3258 -0.7945
 1447TIP3    H128536   4.768   3.545  17.729  0.8162  0.1990 -0.7569
 1447TIP3    H228537   4.714   3.676  17.782  1.5535  0.6285 -1.0464
 1448TIP3   OH228538   2.322   3.453  16.879 -0.3265  0.1226 -0.0875
 1448TIP3    H128539   2.291   3.508  16.951  0.8946  1.0181 -0.2129
 1448TIP3    H228540   2.302   3.503  16.800 -0.6114 -0.3325 -0.3105
 1449TIP3   OH228541   3.859   5.720  18.587 -0.2183 -0.4751 -0.0237
 1449TIP3    H128542   3.896   5.675  18.663 -0.5274 -2.0045 -0.7293
 1449TIP3    H228543   3.931   5.772  18.552 -0.2094  0.6367  1.5771
 1450TIP3   OH228544   1.745   3.620  16.348  0.4362 -0.7774 -0.0745
 1450TIP3    H128545   1.658   3.622  16.308  0.3264 -1.2429  0.1257
 1450TIP3    H228546   1.753   3.704  16.393  0.2121 -0.6080 -0.3467
 1451TIP3   OH228547   2.464   0.158  16.301 -0.0879  0.5298 -0.0038
 1451TIP3    H128548   2.393   0.190  16.246  0.0943  1.3139  0.2130
 1451TIP3    H228549   2.444   0.065  16.315 -0.5593  0.5182 -0.7230
 1452TIP3   OH228550   0.790   7.040  18.016 -0.2887 -0.3589 -0.4452
 1452TIP3    H128551   0.833   7.064  18.098 -0.4865 -0.5405 -0.2865
 1452TIP3    H228552   0.807   7.114  17.958  1.1968 -0.8994 -0.7520
 1453TIP3   OH228553   6.153   3.165  17.415  0.0391 -0.5293  0.1179
 1453TIP3    H128554   6.229   3.109  17.400  1.2575  0.5609  1.7998
 1453TIP3    H228555   6.189   3.253  17.424 -1.5315  0.1549  0.0983
 1454TIP3   OH228556   7.116   7.261  17.627 -0.1823 -0.0539 -0.2635
 1454TIP3    H128557   7.022   7.262  17.648 -0.0680 -0.0941  0.2537
 1454TIP3    H228558   7.119   7.274  17.532 -0.6544  1.4082 -0.0908
 1455TIP3   OH228559   0.862   2.961  18.273  0.4362  0.2769  0.0886
 1455TIP3    H128560   0.843   3.040  18.323  0.7790  1.5436 -1.6925
 1455TIP3    H228561   0.784   2.907  18.283 -0.1927  1.2490  0.5724
 1456TIP3   OH228562   5.814   5.928  18.081 -0.3136 -0.4253 -0.1569
 1456TIP3    H128563   5.743   5.875  18.118 -0.6332  0.2287  0.1888
 1456TIP3    H228564   5.774   5.971  18.004 -1.0291  1.7460  1.3291
 1457TIP3   OH228565   2.933   6.148  17.347 -0.2391 -0.3120  0.2065
 1457TIP3    H128566   3.003   6.083  17.357 -1.7697 -1.8067  2.2626
 1457TIP3    H228567   2.896   6.130  17.261  1.2392 -0.1529 -0.4914
 1458TIP3   OH228568   0.393   5.442  17.741  0.0927 -0.1878  0.6960
 1458TIP3    H128569   0.384   5.515  17.679 -0.7865  1.6449  2.8164
 1458TIP3    H228570   0.482   5.454  17.777  0.1433 -0.4847  0.6670
 1459TIP3   OH228571   5.447   6.321  16.926  0.5566 -0.5917  0.1348
 1459TIP3    H128572   5.467   6.300  16.835  2.1403  1.1711  0.0251
 1459TIP3    H228573   5.510   6.271  16.977  0.1276 -1.0343  0.2385
 1460TIP3   OH228574   6.594   3.015  16.964  0.1552 -0.1233  0.5418
 1460TIP3    H128575   6.588   2.927  16.928  0.2893  0.4740 -0.9904
 1460TIP3    H228576   6.531   3.067  16.914  2.1854  1.3084 -0.6886
 1461TIP3   OH228577   2.359   5.996  17.565  0.0053 -0.4614  0.9384
 1461TIP3    H128578   2.401   6.061  17.621  0.4830  1.0292 -1.0166
 1461TIP3    H228579   2.395   6.013  17.478 -3.1366 -0.4108 -0.4813
 1462TIP3   OH228580   7.118   2.638  16.130  0.4497  0.1551 -0.5431
 1462TIP3    H128581   7.212   2.622  16.118  0.3258 -0.4886 -0.6625
 1462TIP3    H228582   7.112   2.733  16.140  0.8860  0.4623 -2.6648
 1463TIP3   OH228583   4.795   6.700  17.967  0.0068  0.1803 -0.1286
 1463TIP3    H128584   4.704   6.706  17.938 -0.4041 -0.8247  0.9130
 1463TIP3    H228585   4.810   6.782  18.015 -1.8469 -1.4702  3.6880
 1464TIP3   OH228586   0.743   6.770  16.770 -0.7005 -0.5549  0.4005
 1464TIP3    H128587   0.720   6.707  16.838 -0.4805 -1.8820 -0.7173
 1464TIP3    H228588   0.832   6.746  16.744  0.1476  1.4459  1.2844
 1465TIP3   OH228589   4.337   5.848  16.505 -0.2493 -0.1177 -0.0495
 1465TIP3    H128590   4.381   5.777  16.552 -1.2620 -0.5045  0.3583
 1465TIP3    H228591   4.298   5.805  16.429  0.3899  0.2907 -0.6177
 1466TIP3   OH228592   0.536   7.121  18.438 -0.3540 -0.1388 -0.2497
 1466TIP3    H128593   0.596   7.194  18.422  0.7366 -0.8428  0.5202
 1466TIP3    H228594   0.474   7.156  18.503  0.6432 -0.1254  0.7294
 1467TIP3   OH228595   0.080   1.448  16.763  0.1287 -0.2512  0.3092
 1467TIP3    H128596  -0.001   1.416  16.723  1.8179 -2.0889 -1.9582
 1467TIP3    H228597   0.122   1.501  16.695  1.3552 -0.2934  0.9983
 1468TIP3   OH228598   4.413   2.863  18.962 -0.3754 -0.0345 -0.2515
 1468TIP3    H128599   4.383   2.953  18.971  0.7156  0.1679  2.5971
 1468TIP3    H228600   4.334   2.810  18.964 -0.9401  0.7960 -0.3284
 1469TIP3   OH228601   4.044   5.714  17.721 -0.2412  0.0864 -0.0061
 1469TIP3    H128602   4.114   5.767  17.758 -0.4249 -0.1453  0.6944
 1469TIP3    H228603   3.976   5.713  17.789 -1.2572  0.9410 -0.9753
 1470TIP3   OH228604   6.085   5.214  16.927 -0.3721 -0.2950  0.3512
 1470TIP3    H128605   6.171   5.252  16.911 -0.7172 -0.3528 -1.8293
 1470TIP3    H228606   6.075   5.145  16.862 -0.7274 -2.6817  2.7213
 1471TIP3   OH228607   1.859   3.234  16.480  0.2884 -0.0880  0.4539
 1471TIP3    H128608   1.879   3.305  16.418 -0.2963 -0.1247  0.2125
 1471TIP3    H228609   1.766   3.215  16.464  0.5533 -1.2030  0.2163
 1472TIP3   OH228610   3.183   0.545  17.544 -0.5946  0.2199 -0.1642
 1472TIP3    H128611   3.255   0.605  17.524 -2.0265  2.0312 -0.2168
 1472TIP3    H228612   3.104   0.599  17.534 -1.8038 -0.1935  4.6341
 1473TIP3   OH228613   4.271   5.753  19.262  0.2477 -0.0081 -0.7803
 1473TIP3    H128614   4.307   5.665  19.261  1.3388  0.4165 -0.6353
 1473TIP3    H228615   4.254   5.772  19.354  0.1199 -0.0231 -0.8007
 1474TIP3   OH228616   2.215   4.881  18.091  0.0709 -0.0827 -0.4462
 1474TIP3    H128617   2.303   4.893  18.128  0.2157 -0.7093 -0.5847
 1474TIP3    H228618   2.203   4.957  18.034  0.0542  0.6173  0.4589
 1475TIP3   OH228619   5.482   2.830  18.131 -0.1826  0.0974 -0.0065
 1475TIP3    H128620   5.469   2.912  18.178 -1.3850 -0.6019  0.9405
 1475TIP3    H228621   5.397   2.812  18.091 -0.5000 -1.5981  1.3187
 1476TIP3   OH228622   7.435   5.082  18.691 -0.1925  0.5003  0.2911
 1476TIP3    H128623   7.413   5.165  18.648 -0.6438  0.0277 -0.4107
 1476TIP3    H228624   7.351   5.046  18.719  0.1076  0.9320  1.8635
 1477TIP3   OH228625   2.601   2.329  18.471 -0.2167  0.4857 -0.6627
 1477TIP3    H128626   2.562   2.243  18.483 -0.2809  0.8003  1.9846
 1477TIP3    H228627   2.533   2.390  18.499  1.0606  1.1759  1.1541
 1478TIP3   OH228628   3.885   4.912  16.883  0.1622 -0.4729 -0.7532
 1478TIP3    H128629   3.842   4.968  16.818 -0.9992 -0.3824  0.0539
 1478TIP3    H228630   3.915   4.836  16.833  0.3303  0.1282 -1.5850
 1479TIP3   OH228631   6.755   5.604  18.664 -0.3201  0.5649 -0.1400
 1479TIP3    H128632   6.764   5.570  18.575  0.4851  1.1755 -0.3009
 1479TIP3    H228633   6.665   5.636  18.668 -0.5450  0.0103 -0.5411
 1480TIP3   OH228634   1.586   0.486  18.436  0.5191  0.2172  0.3244
 1480TIP3    H128635   1.641   0.455  18.364  0.1749  0.6322 -0.1266
 1480TIP3    H228636   1.626   0.450  18.515  0.4387 -0.9348 -0.1383
 1481TIP3   OH228637   4.089   2.366  18.364  0.2112  0.2572  0.2330
 1481TIP3    H128638   4.036   2.371  18.285  1.7045  1.0113 -0.7730
 1481TIP3    H228639   4.067   2.444  18.414 -1.3501 -0.6320  1.0226
 1482TIP3   OH228640   2.910   3.164  18.636  0.0522 -0.5008 -0.6597
 1482TIP3    H128641   2.907   3.115  18.553 -0.3338 -0.2925 -0.7697
 1482TIP3    H228642   2.937   3.099  18.701 -0.5737 -0.8966 -0.7823
 1483TIP3   OH228643   5.271   3.166  16.290 -0.8632 -0.3355  0.1353
 1483TIP3    H128644   5.315   3.102  16.345 -1.0468 -1.4953 -1.0039
 1483TIP3    H228645   5.195   3.119  16.256 -2.4255  1.2792  1.2180
 1484TIP3   OH228646   4.231   4.795  16.494 -0.2970 -0.6764  0.0861
 1484TIP3    H128647   4.275   4.807  16.410  0.4735  0.8880  0.6844
 1484TIP3    H228648   4.165   4.728  16.477  0.9790 -1.6219 -1.3248
 1485TIP3   OH228649   1.782   3.605  16.693  0.5148 -0.0339 -0.5160
 1485TIP3    H128650   1.749   3.569  16.610 -0.7236 -1.5173  0.5584
 1485TIP3    H228651   1.740   3.690  16.700 -0.0900 -0.2829 -0.9872
 1486TIP3   OH228652   2.606   5.433  16.701  0.5902 -0.2441 -0.1806
 1486TIP3    H128653   2.567   5.352  16.669 -1.4806  0.0523  1.3734
 1486TIP3    H228654   2.676   5.405  16.760  0.4502 -0.8998 -0.3240
 1487TIP3   OH228655   5.071   0.166  17.993 -0.1050 -0.1285 -0.3289
 1487TIP3    H128656   5.166   0.158  17.987 -0.0615 -0.0005  0.2215
 1487TIP3    H228657   5.050   0.244  17.943  0.2350  0.7329  0.8398
 1488TIP3   OH228658   1.093   6.849  19.063 -0.2972  0.1226  0.3025
 1488TIP3    H128659   1.124   6.820  19.148  0.1206  1.2494  0.5524
 1488TIP3    H228660   1.109   6.944  19.062 -0.1022  0.1060 -1.0989
 1489TIP3   OH228661   3.306   1.843  17.542 -0.2375 -0.4366 -0.2462
 1489TIP3    H128662   3.302   1.938  17.533  0.2061 -0.2516  1.2206
 1489TIP3    H228663   3.328   1.828  17.634  0.1326 -1.9504 -0.5414
 1490TIP3   OH228664   3.190   4.025  17.411  0.1948  0.1066  0.5062
 1490TIP3    H128665   3.238   4.067  17.339 -0.5950  0.6515  0.2789
 1490TIP3    H228666   3.166   4.098  17.468 -0.0070 -0.2111  0.8254
 1491TIP3   OH228667   5.263   4.526  18.220  0.3118  0.2159 -0.6033
 1491TIP3    H128668   5.336   4.587  18.233  0.4669 -0.3364  1.5454
 1491TIP3    H228669   5.305   4.445  18.192  0.6518 -0.2995  1.2761
 1492TIP3   OH228670   1.147   2.919  17.562 -0.0345  0.6913  0.7680
 1492TIP3    H128671   1.160   3.013  17.550  2.0575  0.4343  0.6798
 1492TIP3    H228672   1.234   2.881  17.547 -1.2724 -1.5084 -1.5175
 1493TIP3   OH228673   7.097   3.126  17.347 -0.0017  0.2161 -0.2680
 1493TIP3    H128674   7.021   3.165  17.390  0.9559  2.4940 -0.5185
 1493TIP3    H228675   7.059   3.067  17.282 -1.5708  1.1260 -0.2432
 1494TIP3   OH228676   2.079   6.073  17.658  0.2784  0.2743  0.0509
 1494TIP3    H128677   2.024   6.121  17.597  1.0995  1.9702  0.5968
 1494TIP3    H228678   2.168   6.086  17.626  0.7148  1.0591  1.4877
 1495TIP3   OH228679   5.708   3.124  16.624 -0.1243  0.4564  0.4042
 1495TIP3    H128680   5.630   3.073  16.643  1.8130 -2.1576  2.0150
 1495TIP3    H228681   5.734   3.160  16.709 -0.7771  3.3352 -0.4948
 1496TIP3   OH228682   2.115   3.177  17.817  0.4138 -0.4366  0.0728
 1496TIP3    H128683   2.181   3.170  17.747  1.2884  1.8436  0.5930
 1496TIP3    H228684   2.064   3.096  17.809  0.1983 -0.1377 -3.4601
 1497TIP3   OH228685   0.113   5.290  16.924  0.2884  0.4103 -0.0956
 1497TIP3    H128686   0.133   5.383  16.914  0.2679  0.2639 -1.7067
 1497TIP3    H228687   0.187   5.245  16.883  0.4813 -0.3068  0.9981
 1498TIP3   OH228688   0.044   2.889  18.257 -0.4159 -0.9700 -0.2479
 1498TIP3    H128689  -0.029   2.847  18.211  0.5216 -0.5473 -2.2306
 1498TIP3    H228690   0.098   2.927  18.187  0.9233  0.0072  1.2427
 1499TIP3   OH228691   2.673   4.205  16.424 -0.2114  0.1779 -0.3580
 1499TIP3    H128692   2.747   4.217  16.484 -0.9379  0.9823  0.3999
 1499TIP3    H228693   2.685   4.117  16.389 -0.8050 -1.0980  2.4492
 1500TIP3   OH228694   0.946   7.207  17.436  0.2200 -0.3696 -0.0378
 1500TIP3    H128695   0.909   7.119  17.448 -0.7808 -0.2421 -1.7684
 1500TIP3    H228696   0.986   7.203  17.349 -3.4608  1.9563 -2.1137
 1501TIP3   OH228697   6.681   3.066  18.359  0.3925 -0.1494 -0.2656
 1501TIP3    H128698   6.689   2.978  18.394 -0.2183 -0.6201 -1.2657
 1501TIP3    H228699   6.771   3.092  18.337  0.8224  0.2575  1.8012
 1502TIP3   OH228700   7.233   4.718  16.495  0.6480  0.2519  0.2229
 1502TIP3    H128701   7.329   4.712  16.496  0.5960 -0.7612  0.3405
 1502TIP3    H228702   7.213   4.783  16.562  1.2951  1.2765 -0.5552
 1503TIP3   OH228703   2.386   6.552  17.923 -0.1321  0.3843 -0.1398
 1503TIP3    H128704   2.362   6.459  17.914 -0.8440  0.6290 -0.8671
 1503TIP3    H228705   2.397   6.565  18.017  0.9098 -0.6662 -0.0887
 1504TIP3   OH228706   2.668   3.972  17.781  0.3706  0.2453  0.0239
 1504TIP3    H128707   2.686   4.065  17.767  1.2691 -0.0048 -0.5845
 1504TIP3    H228708   2.632   3.968  17.870 -1.0196  1.3266 -0.4588
 1505TIP3   OH228709   1.547   2.867  18.713  0.3919  0.0596  0.3859
 1505TIP3    H128710   1.622   2.927  18.718  2.6124 -2.5357  0.6256
 1505TIP3    H228711   1.517   2.860  18.804  0.8466 -0.0165  0.5349
 1506TIP3   OH228712   0.140   4.927  16.636 -0.2691  0.2866 -0.3507
 1506TIP3    H128713   0.215   4.911  16.578  0.2736 -1.9573  0.8538
 1506TIP3    H228714   0.161   5.009  16.679  0.6000  0.6313 -1.3779
 1507TIP3   OH228715   5.490   6.403  16.187 -0.5828  0.7047 -0.5487
 1507TIP3    H128716   5.449   6.318  16.168 -0.6475  0.1560  1.7278
 1507TIP3    H228717   5.569   6.404  16.134 -0.2644 -1.0793 -0.1772
 1508TIP3   OH228718   4.259   0.154  17.307  0.2063 -0.4294 -0.0667
 1508TIP3    H128719   4.199   0.080  17.308 -0.8289  0.3612  1.8733
 1508TIP3    H228720   4.265   0.182  17.398  2.0464  0.7279 -0.4707
 1509TIP3   OH228721   6.760   1.615  18.036  0.4691  0.5963  0.2718
 1509TIP3    H128722   6.800   1.696  18.069 -0.7407  0.9748  0.8667
 1509TIP3    H228723   6.738   1.636  17.945 -0.4066  1.1764  0.6021
 1510TIP3   OH228724   4.011   6.949  18.219 -0.6263  0.4354  0.0799
 1510TIP3    H128725   4.042   6.945  18.310 -0.2352  0.3886 -0.0555
 1510TIP3    H228726   4.069   6.890  18.171 -0.7845  0.5189 -0.2160
 1511TIP3   OH228727   5.746   3.928  18.299  0.0963  0.0984 -0.5819
 1511TIP3    H128728   5.792   3.864  18.354  0.3522  1.3560  0.7396
 1511TIP3    H228729   5.682   3.877  18.250  0.7230 -1.2452 -0.0452
 1512TIP3   OH228730   0.719   3.209  19.301  0.0181 -0.6316 -0.0790
 1512TIP3    H128731   0.724   3.162  19.217 -1.6901  1.3589 -1.4155
 1512TIP3    H228732   0.669   3.151  19.358  0.3083 -1.5958 -0.7813
 1513TIP3   OH228733   6.908   1.394  17.939 -0.0000 -0.2427  0.2430
 1513TIP3    H128734   6.863   1.475  17.965 -0.1128  0.6420 -2.4167
 1513TIP3    H228735   6.853   1.324  17.973 -0.1688  0.7496  2.1803
 1514TIP3   OH228736   6.158   2.911  18.679  0.0334 -0.3186  0.5052
 1514TIP3    H128737   6.249   2.883  18.671 -0.1326 -1.2375  1.6597
 1514TIP3    H228738   6.122   2.857  18.749 -1.4489 -0.0742 -0.0349
 1515TIP3   OH228739   1.853   5.251  16.249  0.1740 -0.4345 -0.0116
 1515TIP3    H128740   1.864   5.320  16.183 -0.2046 -1.0897 -0.7824
 1515TIP3    H228741   1.883   5.290  16.330  1.7548  0.0369 -0.7721
 1516TIP3   OH228742   1.959   0.488  17.076  0.3476  0.2187  0.0196
 1516TIP3    H128743   2.015   0.564  17.062 -0.1883  0.7277  0.5208
 1516TIP3    H228744   1.889   0.521  17.133  0.1357 -0.6658  0.2883
 1517TIP3   OH228745   5.554   0.211  16.895  0.0762  0.0930 -0.7639
 1517TIP3    H128746   5.574   0.228  16.987 -0.5165  1.4510 -0.8550
 1517TIP3    H228747   5.460   0.191  16.893  0.2020 -0.5101 -1.0126
 1518TIP3   OH228748   0.181   4.398  17.781  0.4545 -0.1488  0.0211
 1518TIP3    H128749   0.262   4.358  17.751  0.3448 -1.5197  1.4104
 1518TIP3    H228750   0.210   4.468  17.840  0.7306 -2.0314  2.2782
 1519TIP3   OH228751   1.437   3.567  18.219  0.1594  0.0743  0.0712
 1519TIP3    H128752   1.483   3.649  18.201 -1.5692  1.0982  0.1446
 1519TIP3    H228753   1.345   3.588  18.207 -0.3858 -1.6334  1.0022
 1520TIP3   OH228754   4.003   5.460  17.206  0.0443 -0.3923 -0.1621
 1520TIP3    H128755   4.038   5.469  17.295  0.7467 -0.2732 -0.4436
 1520TIP3    H228756   3.949   5.381  17.209 -1.4617  0.6222  0.8411
 1521TIP3   OH228757   5.005   6.228  17.737 -0.0472 -0.3830 -0.4568
 1521TIP3    H128758   4.955   6.158  17.696  0.7398 -0.8041 -0.7277
 1521TIP3    H228759   5.084   6.185  17.769 -0.1109  0.1627  0.4608
 1522TIP3   OH228760   1.109   6.085  16.739  0.1806  0.1828  0.0085
 1522TIP3    H128761   1.098   5.998  16.700 -2.8984 -0.2451  1.4772
 1522TIP3    H228762   1.143   6.068  16.827 -0.0187  0.4737  0.1449
 1523TIP3   OH228763   2.155   2.780  16.545  0.3596  0.6347 -0.6783
 1523TIP3    H128764   2.077   2.836  16.544  0.7915  1.2355 -1.3341
 1523TIP3    H228765   2.193   2.790  16.458  2.0934  1.6360  0.1534
 1524TIP3   OH228766   0.080   5.874  17.995 -0.2512 -0.1193  0.7818
 1524TIP3    H128767   0.102   5.780  17.998  0.1461 -0.0810 -0.3938
 1524TIP3    H228768  -0.016   5.876  17.990 -0.2687 -0.4512  0.9367
 1525TIP3   OH228769   3.310   3.682  18.611  0.1091  0.3442  0.0201
 1525TIP3    H128770   3.232   3.637  18.644  1.3384 -2.7851 -0.9615
 1525TIP3    H228771   3.373   3.675  18.682  0.7062 -0.6661 -0.5889
 1526TIP3   OH228772   0.097   7.337  18.650  0.0202  0.2935  0.4836
 1526TIP3    H128773   0.089   7.369  18.560  0.3320  0.6139  0.5698
 1526TIP3    H228774   0.154   7.400  18.693 -0.6695  0.5107  1.0944
 1527TIP3   OH228775   7.471   4.411  18.541 -0.3695 -0.3660 -0.6691
 1527TIP3    H128776   7.462   4.420  18.446  0.2364  0.0848 -0.6925
 1527TIP3    H228777   7.510   4.494  18.569 -3.6734  0.9322  0.4541
 1528TIP3   OH228778   6.253   6.547  17.987  0.3332  0.2893 -0.3773
 1528TIP3    H128779   6.176   6.576  17.938  0.5381  0.7582 -0.4192
 1528TIP3    H228780   6.324   6.548  17.924  0.2318 -0.9181 -0.5486
 1529TIP3   OH228781   7.156   2.886  16.255  0.3953  0.4107 -0.1850
 1529TIP3    H128782   7.199   2.841  16.328 -1.9639  0.4730  1.3692
 1529TIP3    H228783   7.126   2.969  16.293  0.4210  1.1241 -1.6571
 1530TIP3   OH228784   5.155   2.249  17.421  0.4395  0.6609 -0.0857
 1530TIP3    H128785   5.079   2.305  17.431 -0.3509 -0.6486  1.7442
 1530TIP3    H228786   5.133   2.169  17.470  2.6461 -0.0971 -0.2150
 1531TIP3   OH228787   4.084   6.450  16.940 -0.1661  0.1382 -0.0094
 1531TIP3    H128788   4.018   6.519  16.933  0.5185  0.8144  0.0707
 1531TIP3    H228789   4.078   6.403  16.857 -0.4360  0.4729 -0.1851
 1532TIP3   OH228790   7.090   3.771  18.488 -0.0698  0.2723  0.2423
 1532TIP3    H128791   7.148   3.709  18.532 -0.5403  0.3456  0.9965
 1532TIP3    H228792   7.020   3.788  18.552 -0.4199  0.8987 -0.2877
 1533TIP3   OH228793   6.266   6.706  17.662 -0.0509 -0.2693 -0.6957
 1533TIP3    H128794   6.351   6.668  17.682 -0.2944  0.4092  1.9426
 1533TIP3    H228795   6.205   6.665  17.724 -1.5089 -0.1593 -1.9842
 1534TIP3   OH228796   1.841   3.491  17.455 -0.1387 -0.3323 -0.1126
 1534TIP3    H128797   1.764   3.537  17.487 -1.8947 -2.4506 -1.0302
 1534TIP3    H228798   1.895   3.478  17.534  0.3428  2.8721  0.2189
 1535TIP3   OH228799   0.022   2.725  19.018 -0.5646  0.3132  0.6129
 1535TIP3    H128800   0.104   2.734  19.068  0.4314  0.2371 -0.9408
 1535TIP3    H228801  -0.011   2.639  19.043  1.9662 -1.4809 -1.6296
 1536TIP3   OH228802   4.982   3.010  17.825  0.1288 -0.5645  0.2278
 1536TIP3    H128803   4.966   2.916  17.815  0.8894 -0.9414  2.1232
 1536TIP3    H228804   4.921   3.038  17.894 -1.8865  0.9421 -1.9682
 1537TIP3   OH228805   5.037   6.916  17.353  0.5845 -0.5610  0.2336
 1537TIP3    H128806   4.980   6.988  17.383 -0.1799 -0.9773 -0.1849
 1537TIP3    H228807   5.024   6.847  17.418 -0.5145 -1.1934 -0.6249
 1538TIP3   OH228808   0.723   1.933  18.766  0.0181 -0.2335 -0.1589
 1538TIP3    H128809   0.646   1.987  18.786 -0.5623 -1.0451 -0.1649
 1538TIP3    H228810   0.789   1.962  18.828  0.2195  1.5434 -1.1426
 1539TIP3   OH228811   6.944   3.135  18.283 -0.1385 -0.3610 -0.0378
 1539TIP3    H128812   7.037   3.159  18.288  0.3404 -2.2414  1.2124
 1539TIP3    H228813   6.938   3.080  18.206 -0.9368  2.2880 -2.0159
 1540TIP3   OH228814   3.759   1.118  16.364  0.3121 -0.1752  0.8288
 1540TIP3    H128815   3.768   1.023  16.365  1.3930 -0.1182 -0.6969
 1540TIP3    H228816   3.844   1.151  16.391 -0.0853  0.3766  1.4435
 1541TIP3   OH228817   2.283   5.797  18.636 -0.7242 -0.6485  0.0137
 1541TIP3    H128818   2.204   5.843  18.607  0.5861  1.0325 -1.1194
 1541TIP3    H228819   2.285   5.717  18.582 -0.2668  0.6340 -1.9691
 1542TIP3   OH228820   2.082   1.588  18.029  0.0840  0.1463 -0.3978
 1542TIP3    H128821   2.025   1.524  17.989  1.3120 -0.9380 -0.4741
 1542TIP3    H228822   2.143   1.537  18.082  0.8648  1.2726 -0.1595
 1543TIP3   OH228823   1.902   6.753  17.156  0.2884 -0.2102 -0.0393
 1543TIP3    H128824   1.832   6.721  17.099  1.0294  0.0701 -1.1370
 1543TIP3    H228825   1.891   6.703  17.238 -1.2041 -0.1372 -0.1657
 1544TIP3   OH228826   1.855   0.826  17.679  0.4556 -0.0621 -0.1203
 1544TIP3    H128827   1.825   0.754  17.733 -1.1813  1.4155  1.0721
 1544TIP3    H228828   1.775   0.874  17.657  1.3562  0.7150 -1.8992
 1545TIP3   OH228829   3.711   3.753  18.327 -0.1326 -0.1312 -0.3733
 1545TIP3    H128830   3.794   3.718  18.294 -0.0435  1.1473 -1.6393
 1545TIP3    H228831   3.726   3.766  18.421 -0.0690 -3.0068  0.1163
 1546TIP3   OH228832   5.491   4.763  17.396 -0.2509  0.2830  0.1391
 1546TIP3    H128833   5.555   4.702  17.432  0.4159 -0.0660 -1.5669
 1546TIP3    H228834   5.415   4.754  17.453  0.3049 -1.1800  0.6931
 1547TIP3   OH228835   4.385   3.030  18.326 -0.0550 -0.3359 -0.3610
 1547TIP3    H128836   4.397   2.990  18.240  0.7110  1.3269 -1.0769
 1547TIP3    H228837   4.465   3.082  18.340 -0.6875  0.3681  0.8085
 1548TIP3   OH228838   2.593   5.178  17.139  0.0833  0.1715  0.2093
 1548TIP3    H128839   2.595   5.144  17.229  1.2431 -0.3919 -0.0093
 1548TIP3    H228840   2.623   5.105  17.085 -0.3434  0.5931 -0.6208
 1549TIP3   OH228841   4.875   7.276  17.722  0.2201  0.2202  0.3800
 1549TIP3    H128842   4.949   7.333  17.742  0.2859 -0.6320  2.9151
 1549TIP3    H228843   4.806   7.336  17.693  0.5499  1.5483  2.1616
 1550TIP3   OH228844   6.689   3.637  18.535  0.3632  0.3721  0.4358
 1550TIP3    H128845   6.637   3.697  18.481  2.2897  1.0292 -0.7952
 1550TIP3    H228846   6.717   3.691  18.609 -1.0390 -0.1212  1.3749
 1551TIP3   OH228847   2.596   7.465  18.728 -0.0039  0.1811  0.9649
 1551TIP3    H128848   2.583   7.560  18.726  0.0212  0.2292 -1.9411
 1551TIP3    H228849   2.508   7.429  18.736 -0.1585  0.4717  0.6052
 1552TIP3   OH228850   1.767   1.821  17.918  0.3860  0.2900 -0.0332
 1552TIP3    H128851   1.767   1.728  17.938 -1.1850 -0.0504 -1.3946
 1552TIP3    H228852   1.684   1.854  17.952  1.2091  1.3750  1.0362
 1553TIP3   OH228853   2.242   3.785  17.812  0.1646 -0.0708  0.0898
 1553TIP3    H128854   2.192   3.738  17.879  0.6304 -1.0701 -0.2531
 1553TIP3    H228855   2.277   3.862  17.857 -0.8316  0.1162  0.5840
 1554TIP3   OH228856   5.295   1.424  17.695 -0.1031  0.0349 -0.1912
 1554TIP3    H128857   5.287   1.342  17.744 -0.6380  0.8151  1.0771
 1554TIP3    H228858   5.230   1.418  17.625  0.5797 -1.0410 -0.7633
 1555TIP3   OH228859   4.104   3.080  17.335  0.5180  0.5526  0.6575
 1555TIP3    H128860   4.026   3.098  17.387 -0.6583 -0.7411 -0.5742
 1555TIP3    H228861   4.137   2.997  17.370 -0.4062 -0.4402 -0.7384
 1556TIP3   OH228862   6.774   7.336  17.536  0.3915  0.1773  0.0742
 1556TIP3    H128863   6.715   7.318  17.463 -0.6961  1.6844  0.5321
 1556TIP3    H228864   6.716   7.359  17.608  1.4425 -1.4069  1.4759
 1557TIP3   OH228865   3.539   1.168  17.125  0.3945 -0.3920  0.4327
 1557TIP3    H128866   3.541   1.134  17.035  2.7252  2.2879 -0.6885
 1557TIP3    H228867   3.460   1.220  17.130  0.3101 -0.4680 -0.1017
 1558TIP3   OH228868   6.511   3.905  16.473 -0.7150  0.4079 -0.0745
 1558TIP3    H128869   6.589   3.955  16.498 -1.5964  2.0696 -0.4772
 1558TIP3    H228870   6.490   3.937  16.385 -1.3561 -0.6718 -0.3280
 1559TIP3   OH228871   6.782   5.549  18.391 -0.7976 -0.1487 -0.1746
 1559TIP3    H128872   6.710   5.565  18.329 -1.3768 -1.6572  0.0758
 1559TIP3    H228873   6.849   5.506  18.339 -0.4731  0.3471 -0.1738
 1560TIP3   OH228874   1.640   5.031  16.207  0.2808  0.4702 -0.2580
 1560TIP3    H128875   1.656   4.986  16.124 -1.2284  0.8716 -0.7984
 1560TIP3    H228876   1.687   5.113  16.199  0.4630  0.3397 -0.5537
 1561TIP3   OH228877   1.519   6.194  18.270 -0.3749  1.0155 -0.2077
 1561TIP3    H128878   1.452   6.262  18.260 -0.4788  1.0082  0.3919
 1561TIP3    H228879   1.477   6.114  18.237 -1.1799  0.7173  1.4423
 1562TIP3   OH228880   2.998   1.107  16.025 -0.2771 -0.0229  0.4243
 1562TIP3    H128881   2.905   1.085  16.024 -0.2292 -0.2136 -0.2427
 1562TIP3    H228882   3.013   1.141  16.114 -1.0848  0.4536  0.3951
 1563TIP3   OH228883   5.119   0.644  16.989  0.2212  0.2134 -0.0651
 1563TIP3    H128884   5.084   0.727  16.956 -1.1856 -0.7553 -1.1607
 1563TIP3    H228885   5.214   0.654  16.986  0.1172  1.0712 -2.1451
 1564TIP3   OH228886   4.793   6.809  16.254  0.6095  0.4459  0.3313
 1564TIP3    H128887   4.845   6.731  16.232  1.6044  1.2921 -0.4217
 1564TIP3    H228888   4.768   6.846  16.170 -1.3042  0.0393  0.6813
 1565TIP3   OH228889   2.151   3.220  17.197 -0.2370 -0.0165  0.4517
 1565TIP3    H128890   2.209   3.295  17.213  0.8346 -1.0574  1.7777
 1565TIP3    H228891   2.195   3.147  17.241 -0.4405 -1.8078 -2.0944
 1566TIP3   OH228892   3.277   3.459  18.216  0.2775  0.3915  0.8047
 1566TIP3    H128893   3.197   3.507  18.238  0.5435  1.6827 -0.8051
 1566TIP3    H228894   3.256   3.412  18.135  1.0991  0.6796  0.4086
 1567TIP3   OH228895   3.858   4.498  17.113 -0.0254 -0.0678  0.1098
 1567TIP3    H128896   3.870   4.593  17.121 -0.6453 -0.1893  4.0154
 1567TIP3    H228897   3.945   4.462  17.129 -0.0037 -0.2216 -0.3322
 1568TIP3   OH228898   2.757   3.704  18.313 -0.1942 -0.0798 -0.3089
 1568TIP3    H128899   2.683   3.643  18.311 -1.0051  0.7044  2.0018
 1568TIP3    H228900   2.812   3.672  18.385  0.7619  0.3880 -0.8218
 1569TIP3   OH228901   6.811   3.403  16.617 -0.4684  0.1406  0.2776
 1569TIP3    H128902   6.762   3.387  16.536  1.3145  1.0053 -1.0361
 1569TIP3    H228903   6.902   3.381  16.595  0.2286  1.3540  1.7439
 1570TIP3   OH228904   4.091   4.385  17.175 -0.3186 -0.8158  0.1120
 1570TIP3    H128905   4.099   4.389  17.270 -1.4116 -1.7017  0.2582
 1570TIP3    H228906   4.149   4.313  17.149  1.2146  0.4340 -0.0906
 1571TIP3   OH228907   2.495   4.835  18.154 -0.5099  0.1785  0.4046
 1571TIP3    H128908   2.480   4.777  18.229  0.5350  1.0938  1.3837
 1571TIP3    H228909   2.548   4.906  18.191 -1.6140  1.6672 -0.7747
 1572TIP3   OH228910   1.042   1.477  18.300  0.0752  0.3330  0.3859
 1572TIP3    H128911   1.134   1.455  18.317 -0.3911  0.3894  3.4761
 1572TIP3    H228912   1.011   1.405  18.245  1.2865 -1.1944  1.5992
 1573TIP3   OH228913   4.337   5.584  19.529 -0.9606  0.0688  0.0678
 1573TIP3    H128914   4.331   5.540  19.444 -1.0702  0.6890 -0.2570
 1573TIP3    H228915   4.297   5.524  19.591 -0.6020 -0.5246 -0.2720
 1574TIP3   OH228916   1.537   4.057  16.879  0.4009 -0.5646 -0.5799
 1574TIP3    H128917   1.487   4.037  16.959 -2.7029  1.0133 -1.9227
 1574TIP3    H228918   1.534   3.976  16.828  0.9932 -1.0923  0.2028
 1575TIP3   OH228919   0.031   3.275  17.442 -0.3541  0.0978  0.1848
 1575TIP3    H128920   0.049   3.187  17.407 -0.4504  0.4103 -0.6727
 1575TIP3    H228921   0.083   3.333  17.388 -0.5995  0.6067  0.4945
 1576TIP3   OH228922   5.674   6.970  18.170  0.5571  0.7461 -0.0284
 1576TIP3    H128923   5.749   6.969  18.112  0.2769  1.2894 -0.4051
 1576TIP3    H228924   5.631   6.886  18.157 -1.0696  1.8684 -2.6934
 1577TIP3   OH228925   0.524   3.307  18.332 -0.3900 -0.0556  0.5998
 1577TIP3    H128926   0.612   3.304  18.369  0.0838  0.7644 -0.4304
 1577TIP3    H228927   0.534   3.271  18.244 -0.6810  1.8275 -0.2517
 1578TIP3   OH228928   1.757   7.057  18.992  0.1570 -0.1391  0.1108
 1578TIP3    H128929   1.765   7.032  19.083  0.9600 -0.2773  0.0107
 1578TIP3    H228930   1.845   7.085  18.967  0.1203 -0.8273 -0.8325
 1579TIP3   OH228931   4.611   0.550  16.620 -0.0245  0.3879  0.1275
 1579TIP3    H128932   4.672   0.589  16.557 -0.3179 -1.4508 -1.3723
 1579TIP3    H228933   4.526   0.590  16.598  0.0513  0.4824  0.0068
 1580TIP3   OH228934   1.626   5.613  18.092  0.3543 -0.4091 -0.1856
 1580TIP3    H128935   1.548   5.586  18.043  0.1483 -0.1407 -0.0100
 1580TIP3    H228936   1.698   5.607  18.028  0.1729 -0.5486 -0.3795
 1581TIP3   OH228937   5.462   0.396  17.314 -0.3060  0.3502  0.0184
 1581TIP3    H128938   5.403   0.452  17.264 -0.2498 -0.1213 -0.5920
 1581TIP3    H228939   5.503   0.454  17.377 -1.1142  0.7634  0.1724
 1582TIP3   OH228940   6.208   0.749  18.167 -1.1396 -0.1278 -0.0698
 1582TIP3    H128941   6.282   0.805  18.189 -1.2659  0.2775 -0.6598
 1582TIP3    H228942   6.243   0.687  18.102 -1.0468 -0.6315  0.4477
 1583TIP3   OH228943   4.364   5.433  19.294  0.1146  0.3227 -0.9215
 1583TIP3    H128944   4.373   5.338  19.299  0.3183  0.3601  3.2309
 1583TIP3    H228945   4.328   5.450  19.207  0.6297 -3.4529 -2.0407
 1584TIP3   OH228946   0.501   5.680  16.903  0.1169  0.6936 -0.1084
 1584TIP3    H128947   0.489   5.688  16.809  1.4979  0.4040 -0.3267
 1584TIP3    H228948   0.496   5.586  16.921  3.4406  0.3232 -0.4845
 1585TIP3   OH228949   1.958   2.299  17.877 -0.0265  0.5780  0.0554
 1585TIP3    H128950   2.037   2.318  17.825 -0.4774 -0.7978 -1.1979
 1585TIP3    H228951   1.987   2.306  17.968  1.3784  0.7130 -0.3755
 1586TIP3   OH228952   4.211   1.473  18.397 -0.5401 -0.2199 -0.3026
 1586TIP3    H128953   4.219   1.464  18.492 -0.7217 -2.1585 -0.4301
 1586TIP3    H228954   4.296   1.444  18.364 -0.6032  0.0995 -0.7426
 1587TIP3   OH228955   5.553   6.606  16.842 -0.2614  0.4285  0.1614
 1587TIP3    H128956   5.640   6.599  16.880 -0.1395  1.7820  0.1960
 1587TIP3    H228957   5.527   6.516  16.822  1.2440  0.0379 -0.0949
 1588TIP3   OH228958   0.843   3.500  16.982 -0.3912 -0.4346 -0.4472
 1588TIP3    H128959   0.864   3.408  16.964  2.2322 -0.0767  0.4082
 1588TIP3    H228960   0.863   3.511  17.075 -2.1397  0.6760 -0.1692
 1589TIP3   OH228961   6.984   2.382  17.634 -0.1373 -0.0029  0.5172
 1589TIP3    H128962   7.026   2.312  17.584  1.8479  0.9208  0.8188
 1589TIP3    H228963   7.042   2.397  17.709 -1.0591  1.2533  1.0211
 1590TIP3   OH228964   2.692   4.273  17.803  0.4782  0.0977  0.2479
 1590TIP3    H128965   2.780   4.311  17.798 -0.6261  3.1466  1.8894
 1590TIP3    H228966   2.683   4.247  17.895 -0.1853 -0.6296 -0.0156
 1591TIP3   OH228967   0.545   0.935  18.309  0.0110  0.1948  0.1709
 1591TIP3    H128968   0.454   0.916  18.286 -0.4045  1.4105  0.7665
 1591TIP3    H228969   0.591   0.934  18.225 -0.8523  1.1694 -0.3336
 1592TIP3   OH228970   4.947   3.510  16.161 -0.2614 -0.4183  0.0662
 1592TIP3    H128971   4.927   3.419  16.184 -0.7688 -0.7676 -1.6347
 1592TIP3    H228972   5.043   3.514  16.163 -0.2486 -0.7726  0.8684
 1593TIP3   OH228973   4.739   2.181  17.041 -0.6098 -0.0066 -0.6793
 1593TIP3    H128974   4.761   2.179  16.948 -0.5951 -0.0611 -0.6740
 1593TIP3    H228975   4.695   2.265  17.053  0.9299  0.7962 -0.3964
 1594TIP3   OH228976   6.633   0.128  17.265  0.2877 -0.5512 -0.9081
 1594TIP3    H128977   6.658   0.060  17.203 -1.4260 -1.0397 -1.1033
 1594TIP3    H228978   6.538   0.118  17.275  0.3390  0.3342  0.8217
 1595TIP3   OH228979   0.532   3.844  17.746  0.6680  0.2237  0.3977
 1595TIP3    H128980   0.468   3.832  17.815  0.9489  0.1909  0.6542
 1595TIP3    H228981   0.485   3.890  17.677  0.6250  1.0759  0.9763
 1596TIP3   OH228982   0.451   2.256  19.260  0.0343 -0.0250 -0.9309
 1596TIP3    H128983   0.424   2.338  19.301  0.0637 -1.2937  1.8347
 1596TIP3    H228984   0.370   2.211  19.241  0.0329 -0.4750  0.0755
 1597TIP3   OH228985   6.055   2.427  16.573 -0.2229  0.0269  0.4277
 1597TIP3    H128986   6.116   2.371  16.525 -3.2649 -0.8664 -2.8486
 1597TIP3    H228987   6.097   2.513  16.575  1.8984 -0.9509 -0.0027
 1598TIP3   OH228988   2.842   2.871  17.001  0.0921 -0.4011  0.0315
 1598TIP3    H128989   2.780   2.943  17.014  1.8511  1.2226 -0.1073
 1598TIP3    H228990   2.848   2.862  16.906  0.1204 -0.4966  0.0425
 1599TIP3   OH228991   3.818   3.077  17.160 -0.0622 -0.2402 -0.2308
 1599TIP3    H128992   3.747   3.014  17.173  0.8836 -1.8595 -2.3086
 1599TIP3    H228993   3.898   3.029  17.181  0.6095  0.5828 -0.8158
 1600TIP3   OH228994   6.050   1.739  18.329 -0.4635  0.1754 -0.2552
 1600TIP3    H128995   6.129   1.776  18.367 -1.0304  1.0814  0.0670
 1600TIP3    H228996   6.059   1.644  18.343  0.0588  0.3571  0.7654
 1601TIP3   OH228997   6.550   1.497  18.533 -0.2970 -0.0599 -0.2939
 1601TIP3    H128998   6.590   1.502  18.446  1.1925  0.3489  0.3825
 1601TIP3    H228999   6.542   1.588  18.561  0.1710 -0.2346  0.4064
 1602TIP3   OH229000   6.696   2.471  18.396  0.0331 -0.1925 -1.0450
 1602TIP3    H129001   6.710   2.378  18.412  1.6893  0.3097  0.9299
 1602TIP3    H229002   6.609   2.490  18.432  0.6164 -0.5870  0.6575
 1603TIP3   OH229003   2.899   5.605  15.844 -0.2926 -0.5336  0.1298
 1603TIP3    H129004   2.889   5.697  15.868  0.4455 -0.0135 -1.3991
 1603TIP3    H229005   2.829   5.589  15.781  0.6459 -0.4753 -0.9676
 1604TIP3   OH229006   1.533   2.042  16.890  0.4991  0.2887  0.3479
 1604TIP3    H129007   1.529   2.105  16.818 -0.8411 -1.1751 -0.9494
 1604TIP3    H229008   1.609   2.068  16.941 -0.2210  3.1895  0.1282
 1605TIP3   OH229009   6.574   0.062  18.042  0.2273  0.0684  0.3327
 1605TIP3    H129010   6.607   0.128  18.103  1.0776  1.7536 -1.7926
 1605TIP3    H229011   6.480   0.076  18.039  0.3992  1.2764 -0.1108
 1606TIP3   OH229012   1.551   3.815  18.169 -0.7229  0.4970  0.7231
 1606TIP3    H129013   1.559   3.869  18.248  0.3771  0.7672  0.4449
 1606TIP3    H229014   1.586   3.870  18.099 -0.0996 -0.3624  0.3408
 1607TIP3   OH229015   2.361   6.670  16.826 -0.1805 -0.0992 -0.4397
 1607TIP3    H129016   2.418   6.671  16.749  0.6395  0.4978  0.1660
 1607TIP3    H229017   2.412   6.626  16.893 -0.5072  0.2872  0.0635
 1608TIP3   OH229018   5.833   4.106  16.706 -0.0127  0.2433  0.5213
 1608TIP3    H129019   5.825   4.197  16.735  0.3677  1.0019 -1.5574
 1608TIP3    H229020   5.801   4.054  16.779 -2.2737  2.1348  0.9816
 1609TIP3   OH229021   6.336   4.952  16.722  0.5372  0.2613 -0.0479
 1609TIP3    H129022   6.401   4.884  16.741 -0.1660 -0.0273  1.4941
 1609TIP3    H229023   6.322   4.947  16.628  2.1088 -0.2483 -0.2830
 1610TIP3   OH229024   4.372   5.618  17.117  0.1334  0.3158 -0.0829
 1610TIP3    H129025   4.382   5.547  17.181  0.3712  0.6090  0.2061
 1610TIP3    H229026   4.426   5.590  17.043 -0.3832 -0.1699 -0.2866
 1611TIP3   OH229027   7.198   6.671  16.959 -0.0805  0.3192  0.4852
 1611TIP3    H129028   7.222   6.688  17.051  0.2343  0.5145  0.3714
 1611TIP3    H229029   7.131   6.736  16.939 -0.4701 -0.0107  0.7077
 1612TIP3   OH229030   0.524   3.209  17.129 -0.0748  0.1207  0.3947
 1612TIP3    H129031   0.501   3.229  17.038  0.0317 -0.2460  0.2864
 1612TIP3    H229032   0.608   3.164  17.123 -0.5825 -0.8881  0.5834
 1613TIP3   OH229033   3.412   6.472  17.055  0.3150 -0.0374 -0.1551
 1613TIP3    H129034   3.375   6.512  16.976  0.0235 -1.5192 -0.8069
 1613TIP3    H229035   3.344   6.413  17.086  1.8257 -2.4558 -1.1026
 1614TIP3   OH229036   3.606   6.240  18.708  0.0248  0.1935 -0.0355
 1614TIP3    H129037   3.659   6.203  18.638 -1.1284 -0.9600 -0.3450
 1614TIP3    H229038   3.545   6.170  18.731 -0.1029  0.8118  1.6270
 1615TIP3   OH229039   3.817   6.015  18.284  0.4003  0.2815  0.0649
 1615TIP3    H129040   3.758   6.025  18.209  1.3000 -0.6083 -0.7958
 1615TIP3    H229041   3.904   6.031  18.248  0.9642 -1.3579  0.6274
 1616TIP3   OH229042   3.400   0.801  18.049 -0.3217 -0.1488 -0.5799
 1616TIP3    H129043   3.461   0.838  18.113  0.1587 -0.8594 -0.6151
 1616TIP3    H229044   3.313   0.828  18.080  0.0516  1.7502 -1.0976
 1617TIP3   OH229045   5.984   0.686  18.342 -0.2091  0.4277 -0.0107
 1617TIP3    H129046   6.047   0.703  18.271  0.9406  0.1048  0.9042
 1617TIP3    H229047   5.936   0.768  18.351 -1.8724 -0.1382 -2.5675
 1618TIP3   OH229048   0.628   0.994  17.877 -0.3985 -0.1723 -0.0537
 1618TIP3    H129049   0.533   0.991  17.865 -0.5704  0.4106  1.0473
 1618TIP3    H229050   0.640   1.002  17.972  0.7214  0.8083 -0.2639
 1619TIP3   OH229051   2.047   0.191  17.824  0.7736  0.0804  0.2658
 1619TIP3    H129052   2.092   0.267  17.861 -0.3115  0.0480  1.7296
 1619TIP3    H229053   2.089   0.178  17.739  2.2185  1.1942  0.7602
 1620TIP3   OH229054   4.618   5.251  16.408  0.1374  0.3236 -0.0543
 1620TIP3    H129055   4.667   5.266  16.327 -0.1251 -0.6100 -0.3935
 1620TIP3    H229056   4.566   5.331  16.419  1.6758  1.3187  0.2977
 1621TIP3   OH229057   1.546   4.404  17.778 -0.1927 -0.1789 -0.1980
 1621TIP3    H129058   1.495   4.478  17.812 -0.4234  0.5841 -2.0989
 1621TIP3    H229059   1.481   4.337  17.758  0.0664 -1.2148  2.1031
 1622TIP3   OH229060   1.811   1.741  18.892 -0.0415 -0.3708  0.2074
 1622TIP3    H129061   1.730   1.712  18.935 -0.7097 -0.1279 -0.8438
 1622TIP3    H229062   1.818   1.685  18.814  0.9367 -0.5460  0.4126
 1623TIP3   OH229063   0.490   2.774  16.515 -0.0833  0.1397  0.3083
 1623TIP3    H129064   0.566   2.717  16.524 -0.9253 -0.8003  2.0719
 1623TIP3    H229065   0.457   2.756  16.427  2.3899  1.5244 -1.0097
 1624TIP3   OH229066   1.474   5.240  16.463 -0.0290 -0.1141  0.2506
 1624TIP3    H129067   1.379   5.247  16.472  0.0305  0.0318  0.7591
 1624TIP3    H229068   1.488   5.227  16.369 -0.6414 -1.6088  0.3342
 1625TIP3   OH229069   2.994   7.080  18.269  0.5053 -0.3984  0.5666
 1625TIP3    H129070   2.916   7.053  18.318 -0.3844 -0.1989 -0.6827
 1625TIP3    H229071   3.055   7.110  18.336 -1.1172  1.0191  1.4944
 1626TIP3   OH229072   2.740   2.805  18.075 -0.3985  0.0404  0.2882
 1626TIP3    H129073   2.823   2.835  18.037 -1.9377 -0.1043 -3.5589
 1626TIP3    H229074   2.714   2.876  18.134  2.6833 -0.2109  2.1661
 1627TIP3   OH229075   7.188   6.344  16.517 -0.5288 -0.6221  0.5440
 1627TIP3    H129076   7.234   6.271  16.476  0.6206  0.1378  0.4251
 1627TIP3    H229077   7.166   6.312  16.605  1.2731 -0.6428  1.0240
 1628TIP3   OH229078   6.936   3.359  16.202  0.6978 -0.5335  0.3826
 1628TIP3    H129079   6.877   3.363  16.278 -0.1581  0.7910 -0.3271
 1628TIP3    H229080   6.881   3.380  16.127  1.6460 -1.3246 -0.5629
 1629TIP3   OH229081   4.277   7.388  17.055 -0.0536  0.0471  0.2776
 1629TIP3    H129082   4.238   7.366  16.970 -1.4331  1.7879  0.4176
 1629TIP3    H229083   4.363   7.425  17.033 -0.3250  0.3234 -0.3399
 1630TIP3   OH229084   6.668   1.777  18.901 -0.6117  0.7868 -0.1768
 1630TIP3    H129085   6.758   1.746  18.897 -1.3860 -1.5939 -1.5346
 1630TIP3    H229086   6.651   1.813  18.813 -1.7601 -1.4998 -0.9873
 1631TIP3   OH229087   1.696   6.116  18.498  0.0951  0.8265 -0.6576
 1631TIP3    H129088   1.663   6.141  18.411  0.3609  0.7457 -0.7824
 1631TIP3    H229089   1.784   6.152  18.502 -0.5739  2.4416  0.3154
 1632TIP3   OH229090   3.673   6.009  18.038  0.1845 -0.0930 -0.0646
 1632TIP3    H129091   3.626   5.933  18.004  0.6977 -0.1765 -0.6077
 1632TIP3    H229092   3.683   6.067  17.962  1.6577 -0.4412 -0.1719
 1633TIP3   OH229093   5.738   7.267  17.973 -0.2366  0.4795 -0.2563
 1633TIP3    H129094   5.809   7.237  18.030  1.2171  3.2228 -0.4272
 1633TIP3    H229095   5.670   7.201  17.982  0.6059 -0.0985  3.3416
 1634TIP3   OH229096   5.175   2.669  17.219  0.2895 -0.5837 -0.4355
 1634TIP3    H129097   5.177   2.746  17.276  0.1079  0.3319 -1.6207
 1634TIP3    H229098   5.232   2.606  17.261  3.4162  1.5205 -1.2099
 1635TIP3   OH229099   3.749   3.938  17.020 -0.1892  0.0267  0.3676
 1635TIP3    H129100   3.739   3.919  17.113 -0.7169 -0.5035  0.2051
 1635TIP3    H229101   3.843   3.955  17.009  0.0115 -0.7522  0.8340
 1636TIP3   OH229102   4.330   6.929  18.550 -0.3840 -0.3883  0.8123
 1636TIP3    H129103   4.360   6.861  18.610 -0.6576 -1.7464 -0.5296
 1636TIP3    H229104   4.401   6.938  18.487 -1.0807 -0.7126 -0.0385
 1637TIP3   OH229105   5.075   0.292  17.100 -0.2726 -0.2107 -0.1375
 1637TIP3    H129106   5.041   0.203  17.097 -0.5678 -0.0888 -0.6376
 1637TIP3    H229107   5.031   0.336  17.027 -2.2741  1.1112  1.7270
 1638TIP3   OH229108   5.444   1.835  17.646 -0.4470  0.2475  0.2355
 1638TIP3    H129109   5.363   1.879  17.620  0.4565  1.7277 -0.1583
 1638TIP3    H229110   5.421   1.791  17.728 -1.2809  1.8237  0.8954
 1639TIP3   OH229111   1.036   2.990  16.753 -0.9482  0.4278  0.3409
 1639TIP3    H129112   1.122   2.975  16.715  0.0834  0.5520  2.4683
 1639TIP3    H229113   0.976   2.940  16.698  0.4278  0.5698 -1.3543
 1640TIP3   OH229114   6.839   7.307  18.911  0.1855 -0.0897  0.0785
 1640TIP3    H129115   6.757   7.353  18.930  0.4723  0.5086 -0.0945
 1640TIP3    H229116   6.907   7.365  18.943  0.5183 -1.2107  1.4905
 1641TIP3   OH229117   6.898   1.613  16.941 -0.3773  0.1002  0.5205
 1641TIP3    H129118   6.860   1.701  16.937 -2.5627 -0.8103 -0.2672
 1641TIP3    H229119   6.960   1.610  16.868  1.0700  1.5165  1.6223
 1642TIP3   OH229120   2.505   5.846  18.784  0.4370 -0.1177 -0.7471
 1642TIP3    H129121   2.427   5.806  18.746  0.0760  0.1641 -0.3115
 1642TIP3    H229122   2.499   5.939  18.762  0.2391  0.0452 -0.0397
 1643TIP3   OH229123   0.088   0.260  18.494 -0.2932 -0.0591 -0.1562
 1643TIP3    H129124   0.063   0.349  18.518  0.5020  0.1115  0.0822
 1643TIP3    H229125   0.179   0.252  18.525 -0.4787 -1.0706  0.1612
 1644TIP3   OH229126   4.649   2.915  16.068 -0.1602 -0.3456 -0.0373
 1644TIP3    H129127   4.741   2.892  16.083 -0.3741  0.4368  3.0780
 1644TIP3    H229128   4.600   2.846  16.113 -1.0007  0.5867  0.5172
 1645TIP3   OH229129   0.531   5.407  16.884 -0.4987  0.2785 -0.2382
 1645TIP3    H129130   0.550   5.351  16.808 -1.1074  0.5295 -0.5880
 1645TIP3    H229131   0.447   5.375  16.916 -0.2341  0.1652  0.3443
 1646TIP3   OH229132   4.979   1.788  18.327  0.5951 -0.1247 -0.4408
 1646TIP3    H129133   5.020   1.874  18.339 -0.4642  0.2717  0.4636
 1646TIP3    H229134   5.045   1.737  18.279  1.7905  0.7637  0.1956
 1647TIP3   OH229135   2.516   5.470  17.046  0.1724  0.4142 -0.1260
 1647TIP3    H129136   2.558   5.443  17.128  0.5854  1.9149  0.2038
 1647TIP3    H229137   2.476   5.391  17.011 -0.2275 -0.2199  1.6631
 1648TIP3   OH229138   3.303   6.258  18.420 -0.4629 -0.4106  0.5206
 1648TIP3    H129139   3.241   6.232  18.489  1.1492 -2.1618  1.4073
 1648TIP3    H229140   3.361   6.322  18.463  0.1965 -1.0793  0.6487
 1649TIP3   OH229141   4.108   5.704  18.184 -0.0623 -0.0664 -0.1154
 1649TIP3    H129142   4.126   5.610  18.177 -2.2802 -0.8320  2.4185
 1649TIP3    H229143   4.162   5.732  18.258  1.9149  1.1680 -1.9130
 1650TIP3   OH229144   7.137   1.044  17.767  0.0328 -0.1118 -0.0082
 1650TIP3    H129145   7.132   0.951  17.786 -0.2282 -0.5719 -2.0522
 1650TIP3    H229146   7.192   1.050  17.689 -1.6959  1.1821 -1.2375
 1651TIP3   OH229147   1.583   1.982  18.290 -0.0229  0.4137  0.1835
 1651TIP3    H129148   1.626   1.913  18.340  0.1605  0.0776 -0.4306
 1651TIP3    H229149   1.520   2.021  18.351 -0.3391 -0.4855  0.4369
 1652TIP3   OH229150   6.573   4.846  16.764 -0.6885  0.0411  0.1226
 1652TIP3    H129151   6.645   4.820  16.706 -0.9795  3.2188 -1.8997
 1652TIP3    H229152   6.614   4.855  16.850  1.1202  0.6965 -0.7465
 1653TIP3   OH229153   2.242   0.246  16.159  0.3942  0.5657 -0.2589
 1653TIP3    H129154   2.182   0.194  16.106  1.5173 -0.5501 -0.4890
 1653TIP3    H229155   2.197   0.330  16.171 -2.2670 -0.9821  1.5668
 1654TIP3   OH229156   7.036   3.405  18.925 -0.6874  0.2986 -0.0775
 1654TIP3    H129157   7.102   3.383  18.859  0.3541  0.4908  0.8902
 1654TIP3    H229158   7.016   3.322  18.968  1.2973  0.6920  1.7719
 1655TIP3   OH229159   7.313   6.139  17.593 -0.9699 -0.2153 -0.0146
 1655TIP3    H129160   7.390   6.137  17.536  0.2258 -0.9253  1.5512
 1655TIP3    H229161   7.285   6.230  17.592 -2.0900 -0.4597 -3.0769
 1656TIP3   OH229162   5.362   2.396  18.476 -0.0354  0.4872 -0.4728
 1656TIP3    H129163   5.339   2.379  18.384  2.7644 -1.6411 -0.8997
 1656TIP3    H229164   5.280   2.383  18.524 -0.6976 -2.9476 -2.2268
 1657TIP3   OH229165   1.176   3.552  17.647 -0.0195 -0.5793 -0.4007
 1657TIP3    H129166   1.124   3.582  17.722 -0.6297 -3.3433  0.3778
 1657TIP3    H229167   1.239   3.491  17.684  1.3961 -0.0557 -1.8497
 1658TIP3   OH229168   6.862   6.261  18.439  0.5086 -0.1964  0.3886
 1658TIP3    H129169   6.901   6.329  18.384 -1.6090  0.9335  0.1506
 1658TIP3    H229170   6.864   6.297  18.528 -0.5149  0.1836  0.2794
 1659TIP3   OH229171   7.086   6.130  17.408  0.1450  0.0651  0.1415
 1659TIP3    H129172   7.003   6.100  17.446  1.1637 -1.8868  0.9663
 1659TIP3    H229173   7.153   6.103  17.471  1.4979  0.7517 -0.9483
 1660TIP3   OH229174   4.719   4.608  16.315  0.0227 -0.0346 -0.0607
 1660TIP3    H129175   4.677   4.689  16.345  1.4240  0.2441  1.3273
 1660TIP3    H229176   4.647   4.551  16.291 -1.0169  1.5760 -0.9701
 1661TIP3   OH229177   4.781   5.075  16.541  0.1365 -0.1623  0.5633
 1661TIP3    H129178   4.735   5.148  16.499 -0.7138 -0.6462  0.6379
 1661TIP3    H229179   4.831   5.035  16.470  0.9118  0.7061  0.5945
 1662TIP3   OH229180   0.650   2.468  18.649  0.2537 -0.4050  0.6711
 1662TIP3    H129181   0.621   2.384  18.613  1.7214 -0.4921 -0.4066
 1662TIP3    H229182   0.641   2.529  18.576  1.8419 -0.2634  0.5438
 1663TIP3   OH229183   2.984   2.155  16.434 -0.1023 -0.4960 -0.0894
 1663TIP3    H129184   2.973   2.201  16.351  0.2229 -1.4316 -0.6726
 1663TIP3    H229185   3.071   2.181  16.465 -0.1410 -0.3018 -0.1470
 1664TIP3   OH229186   1.612   4.585  17.399  0.0346 -0.0119  0.2366
 1664TIP3    H129187   1.682   4.650  17.395  0.4572 -0.4922 -0.5049
 1664TIP3    H229188   1.553   4.616  17.467 -0.4942  1.8849 -1.0101
 1665TIP3   OH229189   2.786   1.617  17.893 -0.2366 -0.6745 -0.1817
 1665TIP3    H129190   2.759   1.699  17.851 -1.7566  1.2706  4.0381
 1665TIP3    H229191   2.849   1.643  17.960 -1.4182 -2.7103  1.8884
 1666TIP3   OH229192   1.297   3.168  17.522  0.3983  0.1390 -0.0631
 1666TIP3    H129193   1.284   3.242  17.581 -0.1469 -0.8414  1.0901
 1666TIP3    H229194   1.371   3.121  17.559 -0.2092 -0.7129  0.0918
 1667TIP3   OH229195   3.682   6.102  16.908  0.5612 -0.4337 -0.9827
 1667TIP3    H129196   3.738   6.110  16.986  0.5267 -1.0490 -0.8906
 1667TIP3    H229197   3.704   6.016  16.871  0.3933 -0.2514 -1.5090
 1668TIP3   OH229198   3.020   1.431  18.213  0.5548 -0.4409  0.1660
 1668TIP3    H129199   3.068   1.393  18.139  1.3091 -0.3963  0.6264
 1668TIP3    H229200   2.929   1.406  18.197  0.6581 -0.1230 -0.9643
 1669TIP3   OH229201   4.049   5.490  16.383 -0.1804 -0.2825 -0.1205
 1669TIP3    H129202   3.954   5.484  16.373 -0.0578 -1.1895 -0.8381
 1669TIP3    H229203   4.070   5.421  16.446 -0.1637  1.0262  1.3928
 1670TIP3   OH229204   5.079   5.835  18.960  0.2160  0.0229 -0.1143
 1670TIP3    H129205   5.165   5.796  18.972 -0.6253 -2.0865 -0.3364
 1670TIP3    H229206   5.029   5.806  19.037  0.1839  2.8614  1.0513
 1671TIP3   OH229207   0.326   0.752  17.592 -0.5696 -0.1205 -0.2095
 1671TIP3    H129208   0.268   0.764  17.517  0.6395 -0.8476 -1.3236
 1671TIP3    H229209   0.315   0.660  17.616 -0.7210  0.0323  0.3007
 1672TIP3   OH229210   5.166   2.229  17.138  0.0737  0.2549  0.2796
 1672TIP3    H129211   5.207   2.285  17.204 -1.0984 -1.1562  2.2950
 1672TIP3    H229212   5.101   2.179  17.186 -1.3003 -0.3833 -2.1019
 1673TIP3   OH229213   4.255   2.074  16.686  0.5847  0.0975 -0.1039
 1673TIP3    H129214   4.180   2.059  16.629  1.1583 -0.4808 -0.7066
 1673TIP3    H229215   4.300   1.990  16.690  1.5298  0.5880 -0.2168
 1674TIP3   OH229216   3.758   5.335  17.606  0.0665 -0.0408  0.1388
 1674TIP3    H129217   3.729   5.331  17.515  0.4086  0.5435 -0.0022
 1674TIP3    H229218   3.680   5.318  17.658 -0.0395 -0.8291 -0.2724
 1675TIP3   OH229219   0.842   5.313  18.366  0.0995  0.1222  0.1836
 1675TIP3    H129220   0.760   5.280  18.403  1.2411 -0.8382  2.0055
 1675TIP3    H229221   0.853   5.263  18.285 -0.0788 -1.3589  1.0233
 1676TIP3   OH229222   6.745   6.224  17.393  0.6391 -0.3915  0.0794
 1676TIP3    H129223   6.731   6.317  17.374  1.9584 -0.0253  0.7885
 1676TIP3    H229224   6.780   6.188  17.312 -0.0916 -0.3359 -0.2706
 1677TIP3   OH229225   2.997   6.549  18.297  0.1439 -0.1592 -0.2798
 1677TIP3    H129226   3.092   6.564  18.305  0.2783  0.8514 -2.8421
 1677TIP3    H229227   2.959   6.637  18.304 -0.3954 -0.2984 -1.3027
 1678TIP3   OH229228   7.238   2.376  18.174 -0.2335  0.1322 -0.7296
 1678TIP3    H129229   7.213   2.323  18.249 -0.4957  2.1963  0.7455
 1678TIP3    H229230   7.326   2.408  18.195 -0.5790  1.2826 -0.9480
 1679TIP3   OH229231   7.295   3.327  17.598  0.0820  0.0340  0.2027
 1679TIP3    H129232   7.357   3.288  17.537 -0.8414  0.3420 -0.9852
 1679TIP3    H229233   7.277   3.414  17.561  1.2202  1.2008  2.1573
 1680TIP3   OH229234   1.732   6.301  17.488  0.4182  0.0811 -0.5078
 1680TIP3    H129235   1.732   6.212  17.524 -0.4821  0.2538 -0.0401
 1680TIP3    H229236   1.780   6.353  17.552 -2.0902  0.5984  1.0959
 1681TIP3   OH229237   6.136   1.757  17.412 -0.6419  0.0970  0.1243
 1681TIP3    H129238   6.220   1.761  17.457 -0.8488 -0.5163  0.5655
 1681TIP3    H229239   6.070   1.767  17.481 -0.9395  0.6575 -0.2262
 1682TIP3   OH229240   0.011   3.327  19.107  0.4193  0.3388  0.2438
 1682TIP3    H129241  -0.043   3.401  19.080  1.2232  0.1543 -2.0779
 1682TIP3    H229242   0.092   3.366  19.139 -0.1045  0.5183  1.4020
 1683TIP3   OH229243   4.101   6.911  17.334 -0.3769  0.0797  0.6471
 1683TIP3    H129244   4.054   6.920  17.416 -0.2707 -0.2291  0.7439
 1683TIP3    H229245   4.164   6.841  17.350 -1.5535 -1.2302 -0.2267
 1684TIP3   OH229246   3.445   6.563  17.616  1.1477 -0.0930 -0.1374
 1684TIP3    H129247   3.463   6.537  17.706 -1.1392 -2.1242 -0.1477
 1684TIP3    H229248   3.449   6.481  17.567  0.5512  0.6809 -1.5432
 1685TIP3   OH229249   6.704   4.098  18.374  0.3294 -0.6275  0.0935
 1685TIP3    H129250   6.713   4.079  18.467 -1.5656 -2.1598  0.0384
 1685TIP3    H229251   6.611   4.117  18.362  0.5529 -0.3362 -1.4642
 1686TIP3   OH229252   2.377   2.845  16.704  1.1032  0.0846  0.5076
 1686TIP3    H129253   2.300   2.811  16.659 -0.1543  1.2754  1.6661
 1686TIP3    H229254   2.448   2.834  16.641 -0.3611  0.6818 -1.3652
 1687TIP3   OH229255   0.556   4.858  18.748 -0.2603  0.0008  0.5192
 1687TIP3    H129256   0.634   4.906  18.778  0.3649 -1.1808  0.8126
 1687TIP3    H229257   0.544   4.788  18.812 -1.6594  0.2410  0.5497
 1688TIP3   OH229258   4.170   5.938  16.213 -0.1552 -0.0407 -0.6243
 1688TIP3    H129259   4.121   5.926  16.131  1.2953  0.8606 -1.6722
 1688TIP3    H229260   4.211   6.024  16.204 -1.8002  1.1728  2.0716
 1689TIP3   OH229261   5.459   4.301  18.444 -0.3753  0.1377  0.0816
 1689TIP3    H129262   5.469   4.337  18.356 -1.0874  1.4171  0.4932
 1689TIP3    H229263   5.499   4.366  18.501  0.7957 -1.0453  0.6718
 1690TIP3   OH229264   5.649   2.138  19.030 -0.1516 -0.4005 -0.3102
 1690TIP3    H129265   5.629   2.158  19.121 -1.1200 -0.7691 -0.4339
 1690TIP3    H229266   5.566   2.111  18.992  0.2894 -0.4970 -1.2439
 1691TIP3   OH229267   2.369   5.569  16.702 -0.9291  0.1461  0.0394
 1691TIP3    H129268   2.310   5.497  16.725 -0.9870  0.2288  0.1525
 1691TIP3    H229269   2.455   5.541  16.731 -0.6087 -0.6660 -1.5522
 1692TIP3   OH229270   1.713   7.061  17.690 -0.1772 -0.2226 -0.3088
 1692TIP3    H129271   1.647   7.002  17.726 -0.0739 -0.7584 -0.9631
 1692TIP3    H229272   1.795   7.014  17.701  0.1961  0.6836  1.0234
 1693TIP3   OH229273   1.572   0.623  18.088 -0.2981 -0.5524  0.1268
 1693TIP3    H129274   1.559   0.714  18.062 -1.9551 -0.8098 -0.0648
 1693TIP3    H229275   1.651   0.624  18.142  0.2278  0.8391 -0.6286
 1694TIP3   OH229276   3.428   0.084  16.680  0.1482  0.0664  0.2203
 1694TIP3    H129277   3.348   0.032  16.681  1.0381 -1.3292  0.2821
 1694TIP3    H229278   3.457   0.085  16.772  1.0574 -0.8166 -0.0384
 1695TIP3   OH229279   0.597   0.715  18.502  0.3932 -0.7173 -0.1780
 1695TIP3    H129280   0.574   0.759  18.584  1.9628  0.1994 -0.1878
 1695TIP3    H229281   0.594   0.784  18.436 -1.1911 -1.5150 -0.9972
 1696TIP3   OH229282   4.383   2.583  18.439 -0.0390 -0.3003  0.0097
 1696TIP3    H129283   4.376   2.504  18.494 -0.3806 -0.3653 -0.1221
 1696TIP3    H229284   4.292   2.601  18.413 -0.2212  1.1504  1.4792
 1697TIP3   OH229285   2.273   3.194  16.957  0.0213 -0.3755  0.7055
 1697TIP3    H129286   2.289   3.282  16.924 -2.1837 -0.4250 -0.7539
 1697TIP3    H229287   2.204   3.205  17.023 -2.1952 -1.1748 -1.3421
 1698TIP3   OH229288   4.927   4.151  16.819 -0.0525  0.4545  0.3828
 1698TIP3    H129289   4.943   4.103  16.901  2.2890  1.0778  0.3638
 1698TIP3    H229290   4.920   4.242  16.846  1.0489  0.6986 -0.1375
 1699TIP3   OH229291   3.400   3.554  16.515 -0.3439  0.4768 -0.2140
 1699TIP3    H129292   3.372   3.468  16.484  0.4897  0.2136 -0.2747
 1699TIP3    H229293   3.359   3.616  16.455 -3.2822  0.3451  1.4977
 1700TIP3   OH229294   4.743   2.678  18.015  0.1761 -0.2432 -0.4647
 1700TIP3    H129295   4.690   2.640  17.944 -0.6521  0.9890 -0.5456
 1700TIP3    H229296   4.691   2.663  18.094  0.5366 -0.5632 -0.2874
 1701TIP3   OH229297   2.290   3.770  19.006  0.3735 -0.1690  0.4886
 1701TIP3    H129298   2.270   3.742  19.095  0.3820 -0.8108  0.2916
 1701TIP3    H229299   2.341   3.698  18.969 -1.0618 -0.6756 -0.5969
 1702TIP3   OH229300   6.570   7.446  16.767 -0.2616  0.2621  0.2963
 1702TIP3    H129301   6.507   7.434  16.696 -0.4067  1.1438  0.2627
 1702TIP3    H229302   6.550   7.376  16.829  0.1626 -0.8003 -0.7327
 1703TIP3   OH229303   4.163   6.254  16.181 -0.1749  0.0117  0.3239
 1703TIP3    H129304   4.220   6.294  16.247  0.2599  0.3626 -0.2536
 1703TIP3    H229305   4.109   6.327  16.150  0.4277  0.1007 -0.5350
 1704TIP3   OH229306   3.348   4.175  17.958 -0.5748 -0.7877 -0.3558
 1704TIP3    H129307   3.333   4.172  17.863 -0.0034 -0.9927 -0.4442
 1704TIP3    H229308   3.285   4.113  17.994 -1.2147 -0.2651 -0.5393
 1705TIP3   OH229309   3.867   3.159  18.291  0.3712  0.4008 -0.2213
 1705TIP3    H129310   3.929   3.086  18.285  0.4525  0.4070  0.4794
 1705TIP3    H229311   3.832   3.168  18.202 -1.0373 -1.7106  0.0276
 1706TIP3   OH229312   7.150   4.482  16.603  0.6267 -0.1636  0.2801
 1706TIP3    H129313   7.224   4.439  16.560 -0.7303 -2.1092 -0.2548
 1706TIP3    H229314   7.140   4.565  16.556 -0.4153 -1.9143 -2.9306
 1707TIP3   OH229315   3.202   2.719  17.571  0.1860  0.3658  0.1363
 1707TIP3    H129316   3.236   2.718  17.481  1.6155 -0.3885  0.6549
 1707TIP3    H229317   3.112   2.753  17.562  0.2336  0.1414 -1.5848
 1708TIP3   OH229318   5.864   2.906  16.976 -0.3874 -0.0310 -0.1191
 1708TIP3    H129319   5.870   2.813  16.999  3.3883  0.5669  2.2042
 1708TIP3    H229320   5.924   2.950  17.036  1.1340  3.3961 -3.6668
 1709TIP3   OH229321   5.968   2.947  18.148  0.7199 -0.3241  0.3405
 1709TIP3    H129322   6.019   3.027  18.137  2.0122 -1.1102  0.4097
 1709TIP3    H229323   5.950   2.943  18.242 -1.0711  0.8795  0.0910
 1710TIP3   OH229324   2.454   0.036  16.935 -0.0513  0.2356  0.0266
 1710TIP3    H129325   2.395   0.104  16.903 -1.9513 -0.9508  0.8306
 1710TIP3    H229326   2.478  -0.014  16.857 -1.3923 -0.2016 -0.1257
 1711TIP3   OH229327   4.802   5.334  16.222 -0.3313 -0.0271 -0.4718
 1711TIP3    H129328   4.857   5.408  16.196 -1.8845  1.4219  0.1816
 1711TIP3    H229329   4.742   5.322  16.149 -0.6354 -0.0779 -0.2146
 1712TIP3   OH229330   4.988   5.633  18.526  0.0337 -0.0286 -0.8405
 1712TIP3    H129331   4.973   5.706  18.466 -0.4784  1.1183  0.5936
 1712TIP3    H229332   4.975   5.671  18.613  2.6403 -1.1157  0.1468
 1713TIP3   OH229333   6.261   1.919  17.025 -0.8443  0.0917  0.6690
 1713TIP3    H129334   6.286   1.973  16.950 -1.9207 -0.4556 -0.1037
 1713TIP3    H229335   6.335   1.927  17.086 -0.7104  1.9394  0.3212
 1714TIP3   OH229336   1.682   7.052  18.704 -0.2506  0.1417 -0.3461
 1714TIP3    H129337   1.735   7.033  18.781 -1.1718 -0.1838  0.2080
 1714TIP3    H229338   1.698   7.145  18.687  1.2485 -0.1707 -0.7703
 1715TIP3   OH229339   5.321   0.010  16.912 -0.0911 -0.0750 -0.8364
 1715TIP3    H129340   5.230  -0.014  16.896  0.0467 -1.8967  0.6919
 1715TIP3    H229341   5.371  -0.038  16.846 -0.0773 -1.2494  0.0015
 1716TIP3   OH229342   5.818   2.816  17.572 -0.5168  0.0581 -0.2460
 1716TIP3    H129343   5.880   2.791  17.504 -0.9734 -0.5041 -0.4705
 1716TIP3    H229344   5.751   2.747  17.570 -0.2450 -0.2700  1.1583
 1717TIP3   OH229345   4.577   3.226  17.612 -0.1223  0.1030 -0.4234
 1717TIP3    H129346   4.652   3.237  17.554  0.2375  0.7713  0.1396
 1717TIP3    H229347   4.528   3.308  17.604 -0.5053 -0.1183 -0.3885
 1718TIP3   OH229348   1.342   5.435  18.167 -0.2186 -0.0666 -0.1281
 1718TIP3    H129349   1.316   5.525  18.187  0.1858  0.3112 -1.2346
 1718TIP3    H229350   1.295   5.382  18.231 -0.9186  0.8801  0.1663
 1719TIP3   OH229351   0.444   4.865  17.880 -0.2843 -0.1104 -0.1853
 1719TIP3    H129352   0.479   4.935  17.826 -1.0865  0.4736  0.0443
 1719TIP3    H229353   0.363   4.900  17.916  0.3497 -0.3928  1.6043
 1720TIP3   OH229354   2.442   5.215  16.633 -0.0091 -0.1013 -0.1147
 1720TIP3    H129355   2.359   5.196  16.591  0.4695 -1.6678 -0.4079
 1720TIP3    H229356   2.424   5.208  16.727 -1.0579  3.3225  0.0718
 1721TIP3   OH229357   2.892   6.164  18.164 -0.0744 -0.2253 -0.3733
 1721TIP3    H129358   2.926   6.130  18.246 -0.9039 -1.4021 -0.4917
 1721TIP3    H229359   2.804   6.126  18.156 -0.3520  0.5643 -1.3804
 1722TIP3   OH229360   3.426   2.832  16.428 -0.4332  0.0258 -0.1926
 1722TIP3    H129361   3.380   2.915  16.436  1.7412  1.1274  2.3113
 1722TIP3    H229362   3.515   2.855  16.402 -0.0434 -1.5835 -0.3913
 1723TIP3   OH229363   4.474   3.368  18.012  0.0242 -0.1799 -0.3279
 1723TIP3    H129364   4.438   3.398  18.095 -0.3515 -0.5134 -0.3691
 1723TIP3    H229365   4.569   3.371  18.025  0.1062  2.6448 -0.8934
 1724TIP3   OH229366   0.911   2.159  18.795  0.3174  0.6936  0.1002
 1724TIP3    H129367   0.934   2.154  18.887  0.8636  0.2554 -0.0557
 1724TIP3    H229368   0.933   2.249  18.769  0.7560  0.6223  0.2378
 1725TIP3   OH229369   4.209   4.165  17.097 -0.4503 -0.3005  0.7049
 1725TIP3    H129370   4.277   4.130  17.154 -0.2748 -1.6401 -0.2829
 1725TIP3    H229371   4.197   4.098  17.029 -1.8846  0.4522  0.1604
 1726TIP3   OH229372   3.213   2.732  16.272  0.1442  0.1295  0.3197
 1726TIP3    H129373   3.240   2.731  16.181 -1.0710 -2.0970 -0.0935
 1726TIP3    H229374   3.294   2.734  16.322  0.9134 -1.0020 -0.8330
 1727TIP3   OH229375   6.355   5.357  16.910  0.3611  0.3612 -0.1119
 1727TIP3    H129376   6.400   5.422  16.856  0.3026  1.2384  0.8514
 1727TIP3    H229377   6.327   5.406  16.987 -0.9696 -0.5037 -0.0215
 1728TIP3   OH229378   4.497   7.453  18.189  0.1929  0.0034  0.3838
 1728TIP3    H129379   4.419   7.508  18.182  0.2975  0.1748  0.5760
 1728TIP3    H229380   4.525   7.460  18.280  0.4888  0.0174  0.2948
 1729TIP3   OH229381   5.500   2.539  17.967 -0.8956 -0.0493 -0.3747
 1729TIP3    H129382   5.535   2.477  18.032  1.3380  0.9741 -0.5053
 1729TIP3    H229383   5.430   2.490  17.923 -1.4158 -1.3310  1.6848
 1730TIP3   OH229384   2.697   6.523  18.254  0.6117  0.2838  0.2458
 1730TIP3    H129385   2.706   6.618  18.246  0.6283  0.0960 -2.8777
 1730TIP3    H229386   2.787   6.490  18.252  0.5455  0.1275 -0.4132
 1731TIP3   OH229387   6.545   0.690  16.871 -0.6952 -0.5678 -0.4237
 1731TIP3    H129388   6.525   0.765  16.927 -1.6414 -1.1858  0.0898
 1731TIP3    H229389   6.513   0.614  16.920 -0.2670 -1.2533 -1.1846
 1732TIP3   OH229390   6.816   7.264  16.886  0.1945  0.0038  0.1031
 1732TIP3    H129391   6.851   7.237  16.971  0.5887  1.1170  0.3077
 1732TIP3    H229392   6.879   7.230  16.823  0.5881  0.2838  0.3431
 1733TIP3   OH229393   2.741   5.177  16.507  0.5754 -0.0907  0.2210
 1733TIP3    H129394   2.682   5.205  16.437  2.2751  0.5398 -1.0143
 1733TIP3    H229395   2.751   5.254  16.563  0.4130 -0.1297  0.3049
 1734TIP3   OH229396   5.436   1.514  16.499 -0.2999  0.2160  0.1824
 1734TIP3    H129397   5.360   1.483  16.450  0.7392 -1.5521 -0.3734
 1734TIP3    H229398   5.480   1.573  16.437  0.4291 -1.1728 -0.6568
 1735TIP3   OH229399   2.413   1.773  18.117  0.4168 -0.0078 -0.1794
 1735TIP3    H129400   2.411   1.798  18.025 -0.4382 -0.4894 -0.2998
 1735TIP3    H229401   2.425   1.678  18.116 -0.3799 -0.1200  0.1825
 1736TIP3   OH229402   3.280   6.494  16.651 -0.0408  0.4145 -0.6243
 1736TIP3    H129403   3.322   6.554  16.712  0.1448 -0.6000  0.2779
 1736TIP3    H229404   3.332   6.502  16.570  0.5071  0.8281 -0.2382
 1737TIP3   OH229405   6.471   1.016  18.924  0.3772 -0.2351 -0.4013
 1737TIP3    H129406   6.553   1.062  18.905 -0.3707  0.5711 -1.7948
 1737TIP3    H229407   6.416   1.082  18.966  0.5484 -0.8898  0.9343
 1738TIP3   OH229408   2.295   2.093  17.944 -0.4054 -0.1067 -0.0502
 1738TIP3    H129409   2.310   2.043  17.864  0.9467 -1.8414  1.2081
 1738TIP3    H229410   2.233   2.040  17.994  0.5848 -0.2499  1.0580
 1739TIP3   OH229411   7.473   6.636  18.594  0.2135 -0.0346 -0.2715
 1739TIP3    H129412   7.560   6.657  18.627  1.0011 -1.4784 -1.3294
 1739TIP3    H229413   7.414   6.663  18.665  1.5526  0.3082  0.7672
 1740TIP3   OH229414   6.996   6.270  18.748 -0.1704  0.7678  0.4178
 1740TIP3    H129415   7.040   6.280  18.832  0.5341  0.4741  0.0900
 1740TIP3    H229416   7.023   6.184  18.716 -0.5607  0.8076 -0.0372
 1741TIP3   OH229417   4.643   7.049  16.961  0.2346  0.1607  0.0623
 1741TIP3    H129418   4.656   6.966  17.007  0.6062  0.6895  0.9486
 1741TIP3    H229419   4.551   7.070  16.975 -0.3993 -1.0738 -1.8872
 1742TIP3   OH229420   3.937   1.929  17.209  0.2565  0.0093 -0.2969
 1742TIP3    H129421   3.963   2.006  17.158 -2.4503 -0.7263 -3.1485
 1742TIP3    H229422   3.990   1.858  17.174 -1.6069 -0.4978 -2.3847
 1743TIP3   OH229423   4.124   2.568  17.602  0.4310  0.0143 -0.1033
 1743TIP3    H129424   4.133   2.583  17.697 -0.7724  0.3776 -0.0309
 1743TIP3    H229425   4.185   2.631  17.563  0.2182  0.5525  0.4068
 1744TIP3   OH229426   0.790   1.128  17.242  0.1646  0.1899 -0.4824
 1744TIP3    H129427   0.836   1.047  17.265  0.9059  0.2847 -1.5266
 1744TIP3    H229428   0.747   1.155  17.322  1.6692 -0.0907  0.4593
 1745TIP3   OH229429   3.234   0.089  17.972 -0.1979  0.2813 -0.2721
 1745TIP3    H129430   3.140   0.072  17.984 -0.1428 -0.2855 -0.6588
 1745TIP3    H229431   3.244   0.181  17.998 -0.9952  0.5827 -0.9849
 1746TIP3   OH229432   6.310   7.304  17.042 -0.2730 -0.0258  0.3604
 1746TIP3    H129433   6.240   7.368  17.030 -0.9294 -0.4174  1.8337
 1746TIP3    H229434   6.343   7.320  17.130  1.2081 -0.1505 -0.1412
 1747TIP3   OH229435   4.611   2.444  17.064 -0.1837  0.4343 -0.4155
 1747TIP3    H129436   4.632   2.525  17.017 -0.4196  1.1771  0.7216
 1747TIP3    H229437   4.590   2.473  17.153  0.1114 -0.9161  0.1163
 1748TIP3   OH229438   5.202   3.343  17.120  0.1089  0.1047 -0.4005
 1748TIP3    H129439   5.120   3.382  17.092  0.0269  0.7067  0.6029
 1748TIP3    H229440   5.215   3.376  17.209  1.2673 -0.2411 -0.4167
 1749TIP3   OH229441   5.272   5.310  18.124  0.6167  0.0383  0.0929
 1749TIP3    H129442   5.189   5.293  18.169  1.3447 -0.0482  1.4440
 1749TIP3    H229443   5.301   5.224  18.094  2.0319 -0.5841  2.9241
 1750TIP3   OH229444   6.661   5.646  17.820 -0.1184 -0.3785 -0.2107
 1750TIP3    H129445   6.606   5.586  17.870  1.5511 -1.5381  0.3067
 1750TIP3    H229446   6.617   5.653  17.735 -2.7774  1.2945  1.1649
 1751TIP3   OH229447   4.404   3.765  18.695 -0.1846 -0.1253  0.3899
 1751TIP3    H129448   4.481   3.822  18.701  0.1896 -0.6472  0.6533
 1751TIP3    H229449   4.330   3.825  18.683  0.0879  0.4827  1.6079
 1752TIP3   OH229450   1.828   5.556  17.081 -0.3223  0.4310  0.3382
 1752TIP3    H129451   1.850   5.467  17.055  1.7736  1.2252 -0.9030
 1752TIP3    H229452   1.899   5.582  17.140 -0.9615  1.2415  0.7656
 1753TIP3   OH229453   0.857   4.427  17.206 -0.2171  0.3022  0.2691
 1753TIP3    H129454   0.796   4.354  17.216 -0.2435  0.2544 -0.2363
 1753TIP3    H229455   0.943   4.387  17.207 -0.1892  0.3651  0.9327
 1754TIP3   OH229456   5.461   0.455  18.842  0.3232 -0.2554  0.4542
 1754TIP3    H129457   5.460   0.370  18.797 -1.2327 -0.3092  0.5252
 1754TIP3    H229458   5.553   0.471  18.862  0.8459 -1.0869 -1.1317
 1755TIP3   OH229459   1.308   7.048  18.246  0.3267  0.0419 -0.0428
 1755TIP3    H129460   1.280   6.979  18.186 -0.3223  0.2261  0.0352
 1755TIP3    H229461   1.403   7.044  18.246  0.2993 -0.6048 -0.3288
 1756TIP3   OH229462   1.832   1.349  18.393  0.0708  0.1561 -0.2279
 1756TIP3    H129463   1.806   1.354  18.485  0.1420 -0.7751 -0.1485
 1756TIP3    H229464   1.792   1.268  18.360  0.5489  0.1574 -0.8494
 1757TIP3   OH229465   5.309   6.497  17.095  0.0936  0.0309 -0.1602
 1757TIP3    H129466   5.311   6.424  17.157  2.1124  1.3135  1.4043
 1757TIP3    H229467   5.359   6.466  17.019 -2.3034 -1.5051 -1.2581
 1758TIP3   OH229468   6.281   1.661  17.120 -0.1324  0.5023 -0.0498
 1758TIP3    H129469   6.271   1.754  17.099 -0.4255  0.0697 -2.0970
 1758TIP3    H229470   6.376   1.648  17.123 -0.0704  0.6442 -1.0098
 1759TIP3   OH229471   6.348   1.075  16.450 -0.1189 -0.1007 -0.4462
 1759TIP3    H129472   6.300   1.011  16.398 -0.9786 -0.8932  1.2347
 1759TIP3    H229473   6.280   1.125  16.496  0.5966  0.4049  0.0971
 1760TIP3   OH229474   7.130   4.262  17.961 -0.5167  0.6962 -0.0836
 1760TIP3    H129475   7.160   4.182  17.919 -1.7313  0.2128 -0.0680
 1760TIP3    H229476   7.035   4.251  17.970 -0.4964  1.4105  1.4369
 1761TIP3   OH229477   2.010   0.308  18.626 -0.3930 -0.0881  0.0221
 1761TIP3    H129478   2.001   0.388  18.574  1.3858 -0.8356 -1.5061
 1761TIP3    H229479   1.919   0.280  18.642 -1.0089  0.4597 -2.2031
 1762TIP3   OH229480   1.381   4.887  16.251 -0.4511 -0.0926 -0.3866
 1762TIP3    H129481   1.442   4.953  16.219  1.3506 -1.6557 -0.3984
 1762TIP3    H229482   1.322   4.935  16.309 -0.4171  1.8231 -1.8560
 1763TIP3   OH229483   7.069   0.956  19.329  0.3412  0.0279 -0.0501
 1763TIP3    H129484   7.097   1.023  19.266 -0.9563  0.3659 -0.3103
 1763TIP3    H229485   7.128   0.967  19.403  0.5922  1.0205 -0.3742
 1764TIP3   OH229486   1.376   7.458  17.524 -0.3217 -0.7537  0.6375
 1764TIP3    H129487   1.317   7.500  17.461 -1.0840 -1.3935  0.9142
 1764TIP3    H229488   1.440   7.412  17.470 -0.5150 -0.6748  0.3363
 1765TIP3   OH229489   2.993   6.500  18.684 -0.0674 -0.1033 -0.2354
 1765TIP3    H129490   2.991   6.566  18.615 -2.0957 -1.6325 -1.7577
 1765TIP3    H229491   2.912   6.514  18.733 -0.8106 -1.7275 -0.9239
 1766TIP3   OH229492   1.658   4.070  18.489  0.0164  0.0597  0.6404
 1766TIP3    H129493   1.650   4.081  18.583 -0.5639 -0.4112  0.6515
 1766TIP3    H229494   1.628   3.981  18.472  0.5303 -0.0130  0.0602
 1767TIP3   OH229495   5.651   3.645  17.612 -0.0784 -0.6010 -0.2727
 1767TIP3    H129496   5.639   3.717  17.551 -0.8807  0.9960  1.6739
 1767TIP3    H229497   5.746   3.632  17.616  0.1595  0.9905 -0.0028
 1768TIP3   OH229498   4.590   4.552  17.561  0.0704 -0.1493  0.0112
 1768TIP3    H129499   4.624   4.504  17.636  3.2359 -0.1495 -1.2827
 1768TIP3    H229500   4.499   4.523  17.554  0.2267 -1.6278  2.6126
 1769TIP3   OH229501   1.761   3.060  18.627  0.0453 -0.2616  0.5982
 1769TIP3    H129502   1.805   2.976  18.636 -0.6069 -1.0218 -2.2899
 1769TIP3    H229503   1.804   3.102  18.552 -2.8254 -0.2487 -1.1818
 1770TIP3   OH229504   3.235   1.483  17.028 -0.0155 -0.0413 -0.3823
 1770TIP3    H129505   3.289   1.562  17.026  0.3767 -0.2388  1.1583
 1770TIP3    H229506   3.251   1.445  17.114 -0.8533 -1.3537 -0.7731
 1771TIP3   OH229507   0.280   3.795  16.240 -0.6057 -0.0784  0.3325
 1771TIP3    H129508   0.212   3.806  16.173  0.0675  2.2226 -0.0631
 1771TIP3    H229509   0.346   3.740  16.198 -0.2426  1.2426 -0.9109
 1772TIP3   OH229510   0.282   5.156  17.221  0.2096 -0.1971  0.0917
 1772TIP3    H129511   0.338   5.229  17.250 -1.1714  0.6801  0.6784
 1772TIP3    H229512   0.324   5.078  17.256  1.9793  0.2470 -0.9220
 1773TIP3   OH229513   0.935   0.275  19.059 -0.1007 -0.1762  0.2033
 1773TIP3    H129514   0.878   0.331  19.005 -0.7887  0.0164  1.0983
 1773TIP3    H229515   0.876   0.240  19.126  0.6693 -0.6704  0.6273
 1774TIP3   OH229516   5.602   6.874  17.324 -0.2251  0.6904  0.0873
 1774TIP3    H129517   5.521   6.900  17.369 -0.6551 -1.5837  0.7295
 1774TIP3    H229518   5.572   6.819  17.251  0.7456 -1.0017  0.9195
 1775TIP3   OH229519   1.696   6.678  17.956  0.1034 -0.0073  0.4752
 1775TIP3    H129520   1.612   6.665  18.000  0.5705  1.4744  1.9164
 1775TIP3    H229521   1.675   6.677  17.863 -1.4340 -0.0941  0.8012
 1776TIP3   OH229522   5.817   4.676  17.397 -0.1670  0.3706 -0.1629
 1776TIP3    H129523   5.746   4.613  17.387  1.5569 -1.7772  0.3094
 1776TIP3    H229524   5.880   4.652  17.329  1.0357  0.8575  0.7465
 1777TIP3   OH229525   2.044   2.122  17.565  0.6885  0.3799 -0.0462
 1777TIP3    H129526   2.102   2.064  17.516 -0.2238 -0.0537 -0.6507
 1777TIP3    H229527   2.010   2.068  17.636 -2.3161 -0.7934 -2.1834
 1778TIP3   OH229528   1.699   4.267  16.856  0.2129  0.3541  0.2084
 1778TIP3    H129529   1.646   4.325  16.910 -0.6868 -0.4862  0.2498
 1778TIP3    H229530   1.659   4.180  16.866  0.7672 -0.0465 -0.8364
 1779TIP3   OH229531   2.730   4.363  18.964 -0.1624 -0.0946  0.4891
 1779TIP3    H129532   2.816   4.379  19.003 -0.1520  0.7062  0.1482
 1779TIP3    H229533   2.674   4.338  19.038  0.4506 -1.0414  0.6594
 1780TIP3   OH229534   4.927   0.502  16.584  0.0239  0.4699 -0.5658
 1780TIP3    H129535   4.993   0.435  16.566  0.3118  0.6187 -0.0878
 1780TIP3    H229536   4.868   0.499  16.509 -0.4648 -0.9178 -0.1535
 1781TIP3   OH229537   5.913   0.568  18.803  0.2751 -0.1891  0.0816
 1781TIP3    H129538   5.984   0.614  18.759  2.9457 -3.3510  0.7015
 1781TIP3    H229539   5.900   0.616  18.885  0.0760  1.6907 -0.9763
 1782TIP3   OH229540   2.884   1.880  18.881  0.0439 -0.4420 -0.6764
 1782TIP3    H129541   2.888   1.955  18.941 -0.4980 -1.3410  0.5205
 1782TIP3    H229542   2.968   1.835  18.894 -0.2893 -0.9298 -0.1904
 1783TIP3   OH229543   2.810   1.928  16.470  0.1697 -0.0427 -0.3548
 1783TIP3    H129544   2.836   1.869  16.400  3.9092 -0.5432  1.1864
 1783TIP3    H229545   2.883   1.989  16.479 -0.4152  0.4137  2.6023
 1784TIP3   OH229546   4.258   4.360  16.893  0.4332  0.1740 -0.0866
 1784TIP3    H129547   4.243   4.301  16.966  0.8965 -1.9586 -1.6072
 1784TIP3    H229548   4.353   4.357  16.879  0.5172  1.5985  0.0186
 1785TIP3   OH229549   0.518   1.592  16.612 -0.5386  0.3395 -1.0439
 1785TIP3    H129550   0.470   1.652  16.554 -1.3961 -1.1121 -1.8996
 1785TIP3    H229551   0.562   1.531  16.553  1.1537  0.7008 -0.2169
 1786TIP3   OH229552   0.285   4.686  17.490  0.7273  0.0389  0.2121
 1786TIP3    H129553   0.252   4.722  17.573  0.7611  1.2525 -0.2897
 1786TIP3    H229554   0.339   4.611  17.517 -0.2425 -0.3347  1.2066
 1787TIP3   OH229555   6.991   2.340  15.834  0.0335  0.0592 -0.2130
 1787TIP3    H129556   6.990   2.427  15.872  1.7463  0.7137 -1.5537
 1787TIP3    H229557   6.899   2.320  15.815 -0.4890  1.0530  1.1936
 1788TIP3   OH229558   4.363   0.908  16.974 -0.0032  0.2425  0.4334
 1788TIP3    H129559   4.349   0.813  16.967 -0.7834  0.2861  1.2389
 1788TIP3    H229560   4.449   0.916  17.016  0.5235 -0.0824 -0.5366
 1789TIP3   OH229561   4.217   2.447  16.618 -0.2340  0.5663  0.0042
 1789TIP3    H129562   4.249   2.535  16.599  2.5234 -0.5529 -1.0873
 1789TIP3    H229563   4.294   2.391  16.609 -1.8916 -1.9938  0.6153
 1790TIP3   OH229564   0.050   5.733  17.323 -0.0470  0.2814 -0.2770
 1790TIP3    H129565  -0.005   5.756  17.399  0.3885 -0.0395  0.1376
 1790TIP3    H229566   0.132   5.778  17.339 -0.1080  0.5708 -0.7857
 1791TIP3   OH229567   2.031   5.724  18.588  0.0793  0.2797 -0.0073
 1791TIP3    H129568   2.005   5.804  18.635 -0.0108 -0.7854  1.8682
 1791TIP3    H229569   1.957   5.703  18.532  0.1268  1.5256 -0.5700
 1792TIP3   OH229570   0.275   3.968  18.308 -0.2032  0.4050 -0.3471
 1792TIP3    H129571   0.240   4.053  18.333 -1.5408 -0.2626  0.1065
 1792TIP3    H229572   0.217   3.904  18.348  0.2184 -0.7304 -1.4551
 1793TIP3   OH229573   1.552   3.868  18.777 -0.2028  0.2916 -0.1585
 1793TIP3    H129574   1.593   3.946  18.813 -1.4859  0.0853  1.9137
 1793TIP3    H229575   1.623   3.803  18.774  0.4812  1.0328 -0.3367
 1794TIP3   OH229576   2.154   7.018  16.702  0.0360  0.2407  0.0741
 1794TIP3    H129577   2.176   6.941  16.649 -0.9544 -0.0329  0.0450
 1794TIP3    H229578   2.222   7.021  16.769  0.1116 -0.6442  0.0509
 1795TIP3   OH229579   5.997   3.856  16.920  0.3654  0.7870 -0.2757
 1795TIP3    H129580   5.944   3.930  16.951 -0.5755 -0.1609  0.4583
 1795TIP3    H229581   5.977   3.849  16.827 -0.0891  1.0247 -0.1965
 1796TIP3   OH229582   0.045   6.148  16.823 -0.4035  0.0722  0.5624
 1796TIP3    H129583  -0.016   6.076  16.840 -1.8560  0.6737 -1.6290
 1796TIP3    H229584   0.099   6.115  16.751 -1.2796  1.2156 -0.6659
 1797TIP3   OH229585   7.104   0.795  17.937  0.3523 -0.1307  0.2084
 1797TIP3    H129586   7.068   0.735  18.002  0.6621  0.9884  1.4627
 1797TIP3    H229587   7.179   0.835  17.981 -0.5329  2.0272 -0.1250
 1798TIP3   OH229588   1.285   1.950  16.789  0.0475 -0.1764  0.3438
 1798TIP3    H129589   1.239   1.941  16.872  0.7969 -1.7828  0.6264
 1798TIP3    H229590   1.371   1.984  16.812 -0.3051  0.9819  0.0219
 1799TIP3   OH229591   1.772   4.615  18.078 -0.3917  0.0281  0.7603
 1799TIP3    H129592   1.790   4.685  18.140 -0.4170  1.3000 -0.6029
 1799TIP3    H229593   1.799   4.651  17.993 -1.2133 -1.2895 -0.0974
 1800TIP3   OH229594   3.498   3.531  18.373  0.2402 -0.0519 -0.1766
 1800TIP3    H129595   3.558   3.582  18.319 -0.7200  0.5800 -0.6607
 1800TIP3    H229596   3.417   3.525  18.322 -0.2395 -0.5864  0.6131
 1801TIP3   OH229597   1.727   2.871  17.871 -0.4123  0.1500  0.3949
 1801TIP3    H129598   1.715   2.962  17.898  0.1747  0.1929  0.5187
 1801TIP3    H229599   1.771   2.877  17.786 -1.7635  0.0044 -0.3355
 1802TIP3   OH229600   7.175   1.064  16.716  0.0164  0.7409  0.2846
 1802TIP3    H129601   7.131   1.086  16.798  1.2749  1.7417  0.7301
 1802TIP3    H229602   7.115   1.004  16.672 -1.2454  1.1495  1.3721
 1803TIP3   OH229603   6.281   5.689  18.624  0.5369 -0.3123  0.3416
 1803TIP3    H129604   6.267   5.783  18.615  1.0245 -0.3666 -1.4595
 1803TIP3    H229605   6.375   5.679  18.633  0.3100 -0.5088  3.2185
 1804TIP3   OH229606   1.525   2.202  18.694  0.8181 -0.0811  0.6536
 1804TIP3    H129607   1.577   2.131  18.656 -1.0205 -0.4383 -1.4240
 1804TIP3    H229608   1.457   2.159  18.745  0.9216  0.2629  1.0872
 1805TIP3   OH229609   7.075   3.290  16.621  0.5400  0.3594  0.2403
 1805TIP3    H129610   7.102   3.291  16.713 -0.0841 -2.4411  0.5301
 1805TIP3    H229611   7.142   3.237  16.577 -1.5261 -2.2527  0.0102
 1806TIP3   OH229612   0.943   0.439  17.523 -0.2647  0.1022 -0.1298
 1806TIP3    H129613   0.907   0.390  17.449 -0.2430  2.1318 -1.5631
 1806TIP3    H229614   1.029   0.469  17.494 -0.2939  1.0187  0.6451
 1807TIP3   OH229615   1.655   1.155  18.806 -0.0747  0.5824  0.0149
 1807TIP3    H129616   1.729   1.094  18.809 -0.6781 -0.2758 -1.5019
 1807TIP3    H229617   1.582   1.105  18.844 -0.9384 -0.2725 -2.5521
 1808TIP3   OH229618   0.384   6.411  18.061  0.1950 -0.7455 -0.5032
 1808TIP3    H129619   0.421   6.326  18.082 -0.0970 -0.7433  0.0412
 1808TIP3    H229620   0.402   6.465  18.138  1.0140 -0.1032 -1.1334
 1809TIP3   OH229621   5.253   0.830  17.189 -0.0769 -0.2187  0.8561
 1809TIP3    H129622   5.268   0.819  17.095 -0.0396  1.3040  0.6547
 1809TIP3    H229623   5.187   0.899  17.195 -0.2878 -0.4988  1.9462
 1810TIP3   OH229624   1.801   6.099  17.171  0.1638  0.0448  0.1918
 1810TIP3    H129625   1.787   6.018  17.122  0.3043 -0.1062  0.4001
 1810TIP3    H229626   1.729   6.156  17.144  0.4756  0.1217 -0.5179
 1811TIP3   OH229627   7.004   1.360  17.442 -0.1133 -0.2015  0.1764
 1811TIP3    H129628   6.969   1.418  17.374 -1.1587 -0.9665  0.0217
 1811TIP3    H229629   6.958   1.387  17.521 -0.5469 -0.7457  0.1184
 1812TIP3   OH229630   1.683   7.462  16.413  0.5102 -0.2616 -0.6193
 1812TIP3    H129631   1.605   7.457  16.468  1.5777 -1.4862  0.8762
 1812TIP3    H229632   1.706   7.371  16.397  0.7579  0.0791 -2.3874
 1813TIP3   OH229633   0.243   5.189  18.485 -0.0223  0.5416 -0.3076
 1813TIP3    H129634   0.254   5.224  18.397 -0.5775 -0.9913 -1.0150
 1813TIP3    H229635   0.315   5.128  18.497  0.5316  1.3427  0.6490
 1814TIP3   OH229636   4.710   1.511  18.869 -0.0173  0.6285 -0.3590
 1814TIP3    H129637   4.628   1.462  18.868 -0.0124  0.6221 -0.4352
 1814TIP3    H229638   4.683   1.603  18.864 -0.0310  0.6408 -0.0939
 1815TIP3   OH229639   3.599   6.721  18.788 -0.2651 -0.1500  0.3589
 1815TIP3    H129640   3.686   6.759  18.774 -0.5851 -0.3175 -2.8294
 1815TIP3    H229641   3.615   6.627  18.800  0.0300 -0.0528  0.7560
 1816TIP3   OH229642   3.583   1.866  17.495  0.5908  0.3808  0.1283
 1816TIP3    H129643   3.608   1.856  17.587 -0.4172 -0.5801  0.3196
 1816TIP3    H229644   3.488   1.863  17.496  0.5432  1.0855 -0.8828
 1817TIP3   OH229645   4.492   5.509  16.415 -0.2142  0.1090 -0.0037
 1817TIP3    H129646   4.415   5.530  16.362 -0.5204 -2.3289 -0.6431
 1817TIP3    H229647   4.473   5.544  16.502 -1.9158 -0.1655 -0.2437
 1818TIP3   OH229648   2.868   2.844  16.710  0.1600  0.6130  0.3642
 1818TIP3    H129649   2.907   2.803  16.632  0.7603 -1.1008  1.4943
 1818TIP3    H229650   2.792   2.891  16.678  1.3835  1.4505 -1.4948
 1819TIP3   OH229651   5.658   3.774  17.173 -0.0082 -0.1500 -0.2155
 1819TIP3    H129652   5.628   3.859  17.140  1.0828  0.6110  0.6630
 1819TIP3    H229653   5.649   3.715  17.099  0.3818  1.0263 -1.2403
 1820TIP3   OH229654   7.358   5.850  17.521 -0.3373  0.6369 -0.7754
 1820TIP3    H129655   7.406   5.825  17.601  1.0943  0.9518 -1.5011
 1820TIP3    H229656   7.286   5.905  17.553  0.6893  1.4329  0.2538
 1821TIP3   OH229657   1.390   1.536  18.053  0.0621  0.3362 -0.3678
 1821TIP3    H129658   1.419   1.614  18.007  1.1124  0.9500  1.2703
 1821TIP3    H229659   1.470   1.495  18.086 -0.6112 -0.2010  0.6852
 1822TIP3   OH229660   5.051   6.690  17.509  0.1114  0.3637  0.1481
 1822TIP3    H129661   5.077   6.598  17.511 -1.7798 -0.2102 -0.1245
 1822TIP3    H229662   4.959   6.688  17.484 -0.0426  2.3226  0.4607
 1823TIP3   OH229663   6.771   1.839  18.342 -0.7698 -0.7635  0.3547
 1823TIP3    H129664   6.850   1.889  18.362 -2.0764  1.7964 -0.5469
 1823TIP3    H229665   6.791   1.794  18.260 -0.1327 -0.3917  0.2994
 1824TIP3   OH229666   5.304   5.068  17.470  0.4805 -0.1127  0.1234
 1824TIP3    H129667   5.323   4.981  17.434  0.1239  0.1686 -0.7827
 1824TIP3    H229668   5.250   5.110  17.403  0.5132  0.7531  0.6256
 1825TIP3   OH229669   7.081   3.135  16.312 -0.2765 -0.3226 -0.0119
 1825TIP3    H129670   7.035   3.212  16.278 -0.0625 -0.4923 -0.6833
 1825TIP3    H229671   7.146   3.171  16.373 -0.2475  0.0237 -0.2464
 1826TIP3   OH229672   3.201   5.376  17.598  0.1272 -0.0842 -0.0131
 1826TIP3    H129673   3.202   5.307  17.531 -0.4848 -0.0439 -0.0677
 1826TIP3    H229674   3.182   5.456  17.550  0.0367  0.0019  0.1654
 1827TIP3   OH229675   6.473   6.865  16.239  0.2423 -0.2171 -0.2859
 1827TIP3    H129676   6.558   6.822  16.227  0.8172  0.8759 -0.2968
 1827TIP3    H229677   6.421   6.836  16.165  0.8405 -0.3717 -0.6549
 1828TIP3   OH229678   3.883   7.139  17.388  0.4085  0.2118 -0.1319
 1828TIP3    H129679   3.887   7.044  17.403  0.3852  0.3429  0.7702
 1828TIP3    H229680   3.963   7.173  17.429 -0.5210  0.7826  1.2909
 1829TIP3   OH229681   0.208   4.328  16.993 -0.0581  0.0187 -0.1075
 1829TIP3    H129682   0.114   4.346  17.000  0.1084  1.4921 -1.1604
 1829TIP3    H229683   0.215   4.269  16.918 -0.0627  0.9889 -0.9011
 1830TIP3   OH229684   6.414   2.457  16.647  0.9442 -0.5546 -0.2412
 1830TIP3    H129685   6.351   2.385  16.649 -1.3570  1.3839  0.4679
 1830TIP3    H229686   6.455   2.449  16.561 -3.0644  0.2847 -2.4751
 1831TIP3   OH229687   0.098   4.025  18.991 -0.0823 -0.3558 -0.4166
 1831TIP3    H129688   0.123   4.108  18.950  2.1840 -1.1254 -0.6939
 1831TIP3    H229689   0.079   3.967  18.917 -2.2762  0.0057 -0.2244
 1832TIP3   OH229690   6.749   2.406  19.098  0.7976  0.3484  0.0756
 1832TIP3    H129691   6.815   2.469  19.068  0.5371  0.7265  0.2978
 1832TIP3    H229692   6.797   2.323  19.104  1.6681  0.9086  1.6938
 1833TIP3   OH229693   5.042   5.017  17.032  0.7566  0.0055  0.0444
 1833TIP3    H129694   5.091   5.080  16.980  0.7989  1.4569  1.7264
 1833TIP3    H229695   5.044   5.053  17.121 -0.1409 -1.8415  0.8716
 1834TIP3   OH229696   5.606   4.425  17.834 -0.3554  0.0875 -0.5332
 1834TIP3    H129697   5.676   4.395  17.893 -1.4254 -0.4487  0.5082
 1834TIP3    H229698   5.530   4.373  17.859 -0.9886  0.2445 -2.0451
 1835TIP3   OH229699   4.227   5.207  17.565 -0.7046 -0.0410 -0.2570
 1835TIP3    H129700   4.141   5.198  17.606  0.1567 -1.3114  1.3803
 1835TIP3    H229701   4.264   5.286  17.604 -1.3029  0.8102 -1.3607
 1836TIP3   OH229702   7.227   3.313  18.575  0.1492 -0.0917 -0.1774
 1836TIP3    H129703   7.282   3.297  18.652 -0.7316 -0.9714  0.2871
 1836TIP3    H229704   7.164   3.241  18.575  0.0329 -0.0238 -1.6369
 1837TIP3   OH229705   1.431   4.986  17.635 -0.0425 -0.4165  0.0268
 1837TIP3    H129706   1.519   5.016  17.659 -0.2756  0.7472 -0.5241
 1837TIP3    H229707   1.372   5.038  17.689 -0.4654  0.4612 -1.2395
 1838TIP3   OH229708   1.042   0.320  17.868 -0.2518  0.4398  0.1646
 1838TIP3    H129709   1.036   0.317  17.772  2.0596 -0.2744 -0.0416
 1838TIP3    H229710   1.082   0.236  17.891  0.1498  1.0199  1.6535
 1839TIP3   OH229711   3.011   7.244  18.724 -0.4252  0.5964  0.3008
 1839TIP3    H129712   3.051   7.187  18.658 -0.7368 -1.9273  2.1469
 1839TIP3    H229713   3.080   7.306  18.746  0.3641  0.1973 -0.9450
 1840TIP3   OH229714   5.036   5.890  17.090 -0.6397 -0.1970 -0.1764
 1840TIP3    H129715   5.023   5.965  17.033 -0.7868 -0.2205 -0.1755
 1840TIP3    H229716   5.060   5.819  17.031  0.8882  0.1784 -0.0570
 1841TIP3   OH229717   6.939   2.823  17.286  0.4729 -0.4260 -0.1602
 1841TIP3    H129718   6.844   2.825  17.296  0.4983  0.2460  0.0096
 1841TIP3    H229719   6.973   2.819  17.376  0.6135  0.3245 -0.1724
 1842TIP3   OH229720   5.050   3.322  16.455 -0.0565 -0.9253  0.1650
 1842TIP3    H129721   5.104   3.247  16.476 -0.6078 -0.9097  1.7758
 1842TIP3    H229722   4.966   3.285  16.429  0.4948 -0.9279 -1.7820
 1843TIP3   OH229723   4.354   4.795  18.829 -0.5238  0.4121  0.3442
 1843TIP3    H129724   4.370   4.709  18.791 -2.8533 -0.4304  1.0615
 1843TIP3    H229725   4.323   4.848  18.756  1.4800  0.8667 -0.2213
 1844TIP3   OH229726   5.353   0.155  17.996  0.2215 -0.4050  0.0810
 1844TIP3    H129727   5.416   0.186  18.061  1.1335  1.3393 -1.5140
 1844TIP3    H229728   5.389   0.185  17.912 -2.2619 -0.1519 -0.9857
 1845TIP3   OH229729   5.315   2.097  17.805  0.4063  0.2494  0.0518
 1845TIP3    H129730   5.318   2.180  17.757  0.9092 -0.3424 -0.9772
 1845TIP3    H229731   5.322   2.123  17.897  0.3842  1.3600 -0.2382
 1846TIP3   OH229732   3.378   5.344  16.612 -0.1513 -0.0375  0.0747
 1846TIP3    H129733   3.287   5.331  16.583 -0.0785  0.7625 -0.5400
 1846TIP3    H229734   3.409   5.419  16.561  1.0376 -0.6376 -0.1245
 1847TIP3   OH229735   1.205   2.409  17.471 -0.3182  0.4429  0.7532
 1847TIP3    H129736   1.140   2.362  17.418 -1.5520  2.2882  0.5251
 1847TIP3    H229737   1.203   2.365  17.556  0.1247 -1.2149 -0.0495
 1848TIP3   OH229738   1.563   1.623  17.451 -0.3165  0.1369 -0.0586
 1848TIP3    H129739   1.619   1.690  17.491  1.0683  0.4143 -2.2633
 1848TIP3    H229740   1.521   1.668  17.377 -2.1609 -0.5460  0.5264
 1849TIP3   OH229741   5.488   7.012  16.741  0.0952 -0.4856 -0.3162
 1849TIP3    H129742   5.570   7.054  16.713 -0.2792  0.4828 -0.0214
 1849TIP3    H229743   5.424   7.083  16.738 -1.1518 -1.6174 -2.3157
 1850TIP3   OH229744   5.672   1.653  17.064 -0.3180 -0.1353  0.1518
 1850TIP3    H129745   5.649   1.560  17.070  0.8248 -0.3533  1.7298
 1850TIP3    H229746   5.610   1.696  17.123  0.3620 -0.1549  0.8958
 1851TIP3   OH229747   6.738   3.994  16.654  0.0166 -0.2839  0.4051
 1851TIP3    H129748   6.818   3.985  16.705  0.5920  1.5704 -0.0789
 1851TIP3    H229749   6.677   3.931  16.692  1.1682 -0.5581  1.8591
 1852TIP3   OH229750   0.003   0.937  18.330 -0.5550 -0.1134  0.6742
 1852TIP3    H129751  -0.028   0.857  18.287  0.3559 -1.1804  1.9165
 1852TIP3    H229752   0.002   1.003  18.261  0.1243 -1.5640 -0.8006
 1853TIP3   OH229753   0.743   2.752  17.817 -0.6751 -0.5892 -0.3248
 1853TIP3    H129754   0.771   2.695  17.745  2.3086 -0.8443  0.8967
 1853TIP3    H229755   0.786   2.836  17.800 -1.9596  0.1493 -0.0905
 1854TIP3   OH229756   1.733   1.092  18.321  0.1845 -0.4689 -0.1469
 1854TIP3    H129757   1.793   1.050  18.259 -0.3424 -2.2190  0.4608
 1854TIP3    H229758   1.646   1.066  18.291 -0.1723  0.1807  0.2937
 1855TIP3   OH229759   1.843   4.824  18.235  0.3606 -0.6506  0.0947
 1855TIP3    H129760   1.817   4.905  18.192  2.8067  0.5958  0.7962
 1855TIP3    H229761   1.889   4.852  18.314 -0.6053 -2.8041  1.4981
 1856TIP3   OH229762   5.668   4.640  18.128 -0.6786 -0.8525 -0.2304
 1856TIP3    H129763   5.752   4.602  18.101 -0.4952  0.6865 -2.0617
 1856TIP3    H229764   5.692   4.706  18.193 -0.4399 -0.4080 -0.7572
 1857TIP3   OH229765   3.172   7.475  17.238 -0.0224  0.3036 -0.3698
 1857TIP3    H129766   3.170   7.519  17.323  0.4267  0.0153 -0.2029
 1857TIP3    H229767   3.179   7.382  17.259 -1.9354  0.0394 -0.7043
 1858TIP3   OH229768   2.613   4.428  16.085  0.6136 -0.2163 -0.4209
 1858TIP3    H129769   2.631   4.436  15.992  0.9188  0.3964 -0.3139
 1858TIP3    H229770   2.676   4.486  16.127 -0.8865  1.1424  0.0393
 1859TIP3   OH229771   1.959   7.447  17.931 -0.2410  0.3754 -0.3669
 1859TIP3    H129772   2.000   7.372  17.888 -1.1606 -0.4296  0.1268
 1859TIP3    H229773   1.976   7.521  17.872 -0.1312 -0.3968 -1.3243
 1860TIP3   OH229774   0.831   4.317  18.706 -0.2642  0.3512  0.0047
 1860TIP3    H129775   0.777   4.243  18.736 -0.7871  0.9665  0.6000
 1860TIP3    H229776   0.910   4.312  18.760 -1.4273  1.7729  1.9570
 1861TIP3   OH229777   2.599   0.397  16.188  0.1382 -0.2931 -0.0741
 1861TIP3    H129778   2.647   0.393  16.105 -0.5987 -0.3925 -0.5051
 1861TIP3    H229779   2.552   0.314  16.192 -1.4951  0.5774 -0.5936
 1862TIP3   OH229780   0.371   0.166  17.695  0.3099  0.2933 -0.1820
 1862TIP3    H129781   0.329   0.235  17.645  0.0923  1.0570  1.0044
 1862TIP3    H229782   0.374   0.200  17.785  1.9868 -0.4123  0.0726
 1863TIP3   OH229783   5.255   2.108  18.092 -0.3091  0.3445  0.1224
 1863TIP3    H129784   5.161   2.125  18.087 -0.3348  0.2284  0.2125
 1863TIP3    H229785   5.262   2.015  18.113 -0.1685  0.2863 -0.1842
 1864TIP3   OH229786   2.878   5.115  18.717  0.6157 -0.7414  0.0879
 1864TIP3    H129787   2.834   5.036  18.749 -0.0518 -0.8461 -1.0390
 1864TIP3    H229788   2.972   5.095  18.726  0.4530 -1.0347  1.2780
 1865TIP3   OH229789   4.036   1.692  17.125  0.0150  0.8297 -0.1471
 1865TIP3    H129790   4.026   1.628  17.195 -2.1100 -0.1516 -1.2530
 1865TIP3    H229791   4.103   1.654  17.068  0.7526  0.9662  0.6111
 1866TIP3   OH229792   1.971   5.670  16.845 -0.5683 -0.4302 -0.2411
 1866TIP3    H129793   2.042   5.607  16.831  0.0812  0.2246  0.0481
 1866TIP3    H229794   1.920   5.633  16.917 -1.4778 -1.7083 -1.4834
 1867TIP3   OH229795   0.695   4.947  17.194 -0.0623 -0.2039  0.7668
 1867TIP3    H129796   0.787   4.927  17.175  0.4594  1.4252  1.3673
 1867TIP3    H229797   0.675   5.024  17.140 -1.1735 -0.7095  0.4301
 1868TIP3   OH229798   2.733   2.847  18.387 -0.2207  0.6103  0.2290
 1868TIP3    H129799   2.779   2.847  18.471 -0.0995 -0.7830  0.1782
 1868TIP3    H229800   2.742   2.758  18.354 -2.3543  0.4769 -0.1325
 1869TIP3   OH229801   3.455   6.298  17.468  0.5998 -0.1697 -1.0076
 1869TIP3    H129802   3.443   6.232  17.535 -0.8883 -0.0722 -1.1387
 1869TIP3    H229803   3.544   6.284  17.436  1.0456 -0.7426  0.3945
 1870TIP3   OH229804   0.166   4.927  16.265  0.5840 -0.1875  0.3701
 1870TIP3    H129805   0.199   4.883  16.187  0.2308  1.4709 -0.7635
 1870TIP3    H229806   0.071   4.926  16.254  0.5538  0.4722  0.5390
 1871TIP3   OH229807   1.893   6.984  19.225  0.2531  0.1806 -0.4547
 1871TIP3    H129808   1.949   6.948  19.156  0.0966 -0.1825 -0.3907
 1871TIP3    H229809   1.916   6.934  19.303  0.3419  0.5095 -0.2687
 1872TIP3   OH229810   6.264   4.216  18.863  0.5739  0.2318  0.1942
 1872TIP3    H129811   6.240   4.126  18.839 -0.1767 -0.3137  2.7007
 1872TIP3    H229812   6.190   4.269  18.831  0.4037 -0.2017 -0.1486
 1873TIP3   OH229813   3.674   5.223  19.014 -0.0763 -0.1624 -0.4093
 1873TIP3    H129814   3.682   5.169  19.093  1.6719 -0.5790 -0.8170
 1873TIP3    H229815   3.718   5.172  18.946  0.0033  0.9744 -1.2304
 1874TIP3   OH229816   2.119   4.383  17.743 -0.1799 -0.3189  1.0331
 1874TIP3    H129817   2.149   4.468  17.775  0.0009 -0.1715  0.4935
 1874TIP3    H229818   2.024   4.385  17.756 -0.2955  0.3348  0.1973
 1875TIP3   OH229819   1.867   5.391  18.266  0.6695  0.9161  0.1327
 1875TIP3    H129820   1.895   5.302  18.289  1.2604  0.8822 -0.6562
 1875TIP3    H229821   1.772   5.383  18.254  0.7937  0.2296 -0.5527
 1876TIP3   OH229822   3.216   5.029  17.637 -0.1736 -0.3514  0.0835
 1876TIP3    H129823   3.123   5.012  17.651 -0.0895 -1.4386 -0.5554
 1876TIP3    H229824   3.235   4.989  17.553  0.7332  0.4663 -0.1154
 1877TIP3   OH229825   4.776   5.039  16.996  0.5169  0.7155 -0.1393
 1877TIP3    H129826   4.740   4.969  17.051 -0.4710 -2.2462 -4.1315
 1877TIP3    H229827   4.870   5.021  16.993  0.5565  0.8073  0.4257
 1878TIP3   OH229828   5.726   4.822  17.608 -0.2462 -0.4662 -0.5705
 1878TIP3    H129829   5.805   4.860  17.647 -1.0840 -2.3220  3.4853
 1878TIP3    H229830   5.759   4.763  17.541  1.6355  0.4735 -0.5513
 1879TIP3   OH229831   0.899   3.562  17.255  0.3676  0.2175  0.2579
 1879TIP3    H129832   0.852   3.644  17.267  1.9955  1.2822 -0.3538
 1879TIP3    H229833   0.916   3.531  17.344 -0.4435  0.4118  0.4878
 1880TIP3   OH229834   5.554   0.830  17.723  0.3326 -0.5687 -0.4942
 1880TIP3    H129835   5.540   0.830  17.818 -2.0229  0.8073 -0.7670
 1880TIP3    H229836   5.483   0.777  17.688  2.1780 -2.5480 -1.4562
 1881TIP3   OH229837   5.670   5.682  18.160  0.3924  0.2068  0.0456
 1881TIP3    H129838   5.613   5.724  18.226  0.3516 -1.4881  1.1369
 1881TIP3    H229839   5.613   5.620  18.115  0.9070 -0.0754 -0.2264
 1882TIP3   OH229840   7.027   4.218  17.570 -0.2460  1.1464  0.3993
 1882TIP3    H129841   7.041   4.212  17.475  0.7379 -2.7202  0.6152
 1882TIP3    H229842   6.939   4.183  17.582  1.2518 -3.0213  1.0296
 1883TIP3   OH229843   1.412   2.153  18.440 -0.5935 -0.2053 -0.9121
 1883TIP3    H129844   1.446   2.161  18.529 -2.2744  0.0112 -0.2508
 1883TIP3    H229845   1.407   2.242  18.408 -2.2559 -0.0378 -0.2894
 1884TIP3   OH229846   0.489   4.255  18.406 -0.0264 -0.3565  0.1598
 1884TIP3    H129847   0.413   4.287  18.357 -0.7823 -3.2762 -0.7579
 1884TIP3    H229848   0.455   4.184  18.460  1.6946 -0.2981  1.4130
 1885TIP3   OH229849   6.960   4.305  18.980  0.5217  0.2929  0.0704
 1885TIP3    H129850   6.984   4.373  18.916  0.4654 -1.3555 -1.7860
 1885TIP3    H229851   7.038   4.250  18.986  0.1715 -0.1411  0.6866
 1886TIP3   OH229852   1.333   6.360  16.764  0.6140  0.0095 -0.4653
 1886TIP3    H129853   1.417   6.406  16.757  0.8557 -0.6029 -1.9645
 1886TIP3    H229854   1.357   6.267  16.761  0.0144 -0.2154  0.9862
 1887TIP3   OH229855   3.603   5.535  16.031 -0.7985  0.3100  0.5974
 1887TIP3    H129856   3.544   5.475  15.986 -1.8320  0.0528  2.2154
 1887TIP3    H229857   3.605   5.504  16.121 -0.2752  1.9117  1.1790
 1888TIP3   OH229858   0.232   4.831  18.783 -0.1126 -0.4388  0.2699
 1888TIP3    H129859   0.304   4.888  18.755 -1.4169  1.4654  0.6403
 1888TIP3    H229860   0.163   4.845  18.718  0.4185 -3.7419 -1.2532
 1889TIP3   OH229861   4.303   0.640  16.134 -0.3394 -0.3603 -0.3701
 1889TIP3    H129862   4.211   0.660  16.153 -1.2470 -2.5020 -2.0344
 1889TIP3    H229863   4.350   0.667  16.213 -2.5041  0.0764  0.8644
 1890TIP3   OH229864   3.838   1.428  16.320  0.0541 -0.0540 -0.1862
 1890TIP3    H129865   3.908   1.464  16.374  0.2218 -0.0865 -0.3794
 1890TIP3    H229866   3.860   1.457  16.231 -0.3973  0.2829 -0.1937
 1891TIP3   OH229867   1.411   3.448  18.990  0.5671 -0.1347 -0.2614
 1891TIP3    H129868   1.335   3.421  19.042 -1.0719  2.3366 -1.1790
 1891TIP3    H229869   1.385   3.430  18.899  1.3719  0.0773 -0.5360
 1892TIP3   OH229870   7.383   0.769  18.571 -0.3480 -0.0269  0.1465
 1892TIP3    H129871   7.437   0.846  18.587  0.9433 -0.5923 -1.1681
 1892TIP3    H229872   7.293   0.799  18.583  0.1304  1.6570 -0.1981
 1893TIP3   OH229873   4.924   2.494  15.805 -0.1870  0.6955  0.2668
 1893TIP3    H129874   4.841   2.477  15.761 -0.9058 -0.8075  2.0934
 1893TIP3    H229875   4.924   2.588  15.822 -0.3822  1.1361 -1.8526
 1894TIP3   OH229876   0.030   4.686  16.550  0.0406  0.3904 -0.3958
 1894TIP3    H129877   0.080   4.668  16.471 -1.3632  0.8095 -1.4126
 1894TIP3    H229878   0.052   4.777  16.572  0.8730  0.0925  0.0496
 1895TIP3   OH229879   1.043   7.343  16.987  0.1307  0.0519 -0.6167
 1895TIP3    H129880   1.110   7.309  17.046 -0.8068 -0.1475  0.3780
 1895TIP3    H229881   1.063   7.304  16.902  1.9207  0.8999 -0.6060
 1896TIP3   OH229882   0.240   1.930  19.124 -0.0268 -0.2152 -0.1064
 1896TIP3    H129883   0.195   2.010  19.154  2.0194 -0.1386  3.2713
 1896TIP3    H229884   0.332   1.955  19.118  0.5700 -2.1377  0.3777
 1897TIP3   OH229885   1.536   2.017  16.539  0.4513 -0.1983 -0.0939
 1897TIP3    H129886   1.545   2.092  16.598 -0.5523 -0.2535  0.1363
 1897TIP3    H229887   1.519   2.055  16.453  2.7744 -0.0838 -0.5669
 1898TIP3   OH229888   7.063   2.591  16.487  0.2403  0.5736  0.0914
 1898TIP3    H129889   7.142   2.638  16.461  0.5953  0.7133  1.3575
 1898TIP3    H229890   7.001   2.609  16.416  1.7225 -0.6634 -1.6307
 1899TIP3   OH229891   6.862   4.249  17.984  0.1790  0.3328  0.0354
 1899TIP3    H129892   6.818   4.215  18.061  0.7190 -1.9612 -0.5844
 1899TIP3    H229893   6.795   4.298  17.937 -0.6326  0.1948  1.0378
 1900TIP3   OH229894   2.038   4.510  16.910 -0.2568 -0.3997 -0.3987
 1900TIP3    H129895   2.081   4.587  16.872 -0.2154 -0.0230  0.3820
 1900TIP3    H229896   2.104   4.474  16.970 -0.2094 -1.1563 -0.8885
 1901TIP3   OH229897   1.594   1.191  16.024 -0.0460 -0.4010  0.1239
 1901TIP3    H129898   1.589   1.232  16.111 -0.0767  0.0345 -0.0791
 1901TIP3    H229899   1.503   1.185  15.995  0.0493  0.8394 -0.5022
 1902TIP3   OH229900   5.962   6.569  16.518  0.0427 -0.0732 -0.3086
 1902TIP3    H129901   5.902   6.626  16.566  0.2653 -0.1103  0.0231
 1902TIP3    H229902   5.906   6.519  16.459 -0.0763  0.9343 -1.0610
 1903TIP3   OH229903   7.423   2.457  18.790  0.5873 -0.4174  0.0832
 1903TIP3    H129904   7.370   2.523  18.835  0.9941  0.9484 -1.3727
 1903TIP3    H229905   7.434   2.491  18.701  2.2918 -1.6035 -0.2102
 1904TIP3   OH229906   1.947   6.553  18.027  0.3238  0.1718 -0.9901
 1904TIP3    H129907   1.887   6.485  18.057  1.2046 -0.0875  0.2198
 1904TIP3    H229908   1.889   6.624  17.998 -0.5749 -0.1415 -0.0177
 1905TIP3   OH229909   7.413   4.589  16.818  0.0544  0.3441  0.4570
 1905TIP3    H129910   7.461   4.611  16.738 -0.1154 -0.5711  0.1026
 1905TIP3    H229911   7.356   4.665  16.833 -1.6915 -0.4445 -1.6447
 1906TIP3   OH229912   6.829   5.411  17.101 -0.2169  0.0248  0.4935
 1906TIP3    H129913   6.895   5.444  17.162 -0.8462  1.5126  0.4083
 1906TIP3    H229914   6.856   5.445  17.016 -0.8493  0.2697  0.3869
 1907TIP3   OH229915   0.371   5.149  16.961  0.5388 -0.2726 -0.1949
 1907TIP3    H129916   0.332   5.135  17.047 -0.2466 -1.7160 -0.7412
 1907TIP3    H229917   0.464   5.128  16.973  1.2309  2.8966  1.0442
 1908TIP3   OH229918   4.659   3.092  18.289 -0.1034  0.0251  0.3304
 1908TIP3    H129919   4.662   3.163  18.353 -2.8604 -1.6283  2.5006
 1908TIP3    H229920   4.749   3.060  18.285  0.5369  1.4834  1.8168
 1909TIP3   OH229921   0.494   4.218  18.786 -0.7186 -0.1168 -0.1202
 1909TIP3    H129922   0.464   4.182  18.702 -1.6420  1.4086 -0.4902
 1909TIP3    H229923   0.481   4.312  18.777  0.4844  0.2090  1.2438
 1910TIP3   OH229924   2.836   5.337  17.502  0.2895 -0.0517 -0.0198
 1910TIP3    H129925   2.801   5.292  17.579  1.7617 -0.9530  0.1519
 1910TIP3    H229926   2.877   5.417  17.537  1.5175 -0.7753  0.2343
 1911TIP3   OH229927   5.173   1.097  16.622 -0.2886  0.4682 -0.0224
 1911TIP3    H129928   5.096   1.053  16.586  0.0577 -0.5764  0.4724
 1911TIP3    H229929   5.161   1.189  16.599 -1.7230  0.3340  0.1163
 1912TIP3   OH229930   1.896   3.230  16.852 -0.3204 -0.3057 -0.0534
 1912TIP3    H129931   1.814   3.245  16.806 -0.6965  0.2787  0.7799
 1912TIP3    H229932   1.950   3.307  16.832 -1.1939  0.9045  1.9519
 1913TIP3   OH229933   5.018   2.238  17.863  0.7891  0.1836  0.2048
 1913TIP3    H129934   4.956   2.308  17.843 -0.6667 -0.7011  1.3912
 1913TIP3    H229935   5.101   2.268  17.826  0.2753  2.6522  0.8804
 1914TIP3   OH229936   1.701   7.133  17.409 -0.6430  0.2122  0.0578
 1914TIP3    H129937   1.758   7.061  17.381  1.0271  1.6832 -0.5030
 1914TIP3    H229938   1.689   7.119  17.503  0.5405 -0.2248  0.1631
 1915TIP3   OH229939   3.267   2.728  17.299 -0.3207 -0.1960 -0.6524
 1915TIP3    H129940   3.217   2.790  17.247 -0.0028 -1.0418 -2.0273
 1915TIP3    H229941   3.353   2.725  17.257  0.9554  1.2422  1.6709
 1916TIP3   OH229942   6.492   2.350  18.981  0.5741 -0.0730  0.0815
 1916TIP3    H129943   6.495   2.258  18.957 -0.7963 -0.1639  0.2275
 1916TIP3    H229944   6.582   2.370  19.009  0.3077 -2.0611  2.7262
 1917TIP3   OH229945   6.410   0.230  18.490  0.1953  0.0468 -0.0054
 1917TIP3    H129946   6.367   0.315  18.498  0.2540  0.0514  0.2953
 1917TIP3    H229947   6.503   0.249  18.503  0.2118 -0.0591  0.0344
 1918TIP3   OH229948   6.858   1.004  17.732  0.0435  0.3032 -0.2557
 1918TIP3    H129949   6.913   1.047  17.797  0.9192  0.3149 -0.9824
 1918TIP3    H229950   6.913   0.999  17.654 -0.1685 -1.7696 -0.3181
 1919TIP3   OH229951   1.189   2.139  16.096  0.1648 -0.1596 -0.0147
 1919TIP3    H129952   1.134   2.172  16.025  1.0034  0.3306 -0.4521
 1919TIP3    H229953   1.213   2.217  16.145 -1.0985 -0.5744  1.3504
 1920TIP3   OH229954   6.885   5.537  15.973  0.6321 -0.1420  0.8079
 1920TIP3    H129955   6.903   5.568  15.884 -0.8539  0.8606  0.8280
 1920TIP3    H229956   6.827   5.603  16.010  1.7147 -0.2105  2.7694
 1921TIP3   OH229957   5.571   0.578  17.513  0.1202 -0.3586 -0.0754
 1921TIP3    H129958   5.651   0.610  17.472 -0.2069  0.5390 -0.0292
 1921TIP3    H229959   5.507   0.647  17.497 -0.3265 -0.5334  0.9179
 1922TIP3   OH229960   0.333   2.569  17.967  0.6164  0.3215  0.2208
 1922TIP3    H129961   0.365   2.602  18.051  0.0930  0.8165  0.2381
 1922TIP3    H229962   0.240   2.591  17.967 -0.4549 -3.5014  1.3603
 1923TIP3   OH229963   2.825   3.887  18.097  0.2007 -0.2210  0.2296
 1923TIP3    H129964   2.744   3.912  18.052  0.5781 -0.7011 -0.7657
 1923TIP3    H229965   2.797   3.825  18.164 -0.4661  1.0544  1.1718
 1924TIP3   OH229966   4.231   0.866  18.307 -0.0734  0.1295  0.8023
 1924TIP3    H129967   4.243   0.949  18.262  1.2906 -0.1659  0.5718
 1924TIP3    H229968   4.201   0.890  18.395  0.4519  0.8708  0.7888
 1925TIP3   OH229969   6.918   2.569  15.958  0.1336 -0.4223  0.3724
 1925TIP3    H129970   6.849   2.587  16.022  0.5158  0.8518  0.4494
 1925TIP3    H229971   6.998   2.601  16.000  0.3558  0.6395 -0.8266
 1926TIP3   OH229972   4.813   1.157  17.797 -0.2609 -0.4295  0.0027
 1926TIP3    H129973   4.786   1.071  17.831 -0.1986 -0.6848 -0.5754
 1926TIP3    H229974   4.750   1.176  17.727 -0.2663 -0.0093  0.1212
 1927TIP3   OH229975   1.561   4.296  17.492  0.0389 -0.1926  0.2940
 1927TIP3    H129976   1.619   4.267  17.563  0.1669  1.8728  1.1127
 1927TIP3    H229977   1.601   4.378  17.461 -1.4164  0.2809 -0.4132
 1928TIP3   OH229978   0.268   2.442  19.312  0.0025  0.2080 -0.1981
 1928TIP3    H129979   0.224   2.497  19.247 -1.6361  0.5784  1.1546
 1928TIP3    H229980   0.275   2.497  19.390  0.4955 -0.7298  0.4362
 1929TIP3   OH229981   2.298   1.978  16.413  0.1973  0.0283  0.7906
 1929TIP3    H129982   2.270   1.888  16.429  0.3597 -0.2019 -0.1378
 1929TIP3    H229983   2.319   1.980  16.319  1.9279  0.5509  1.1446
 1930TIP3   OH229984   4.735   6.253  16.610 -0.0480 -0.0804  0.0764
 1930TIP3    H129985   4.653   6.302  16.607  0.6599  1.0850 -0.7998
 1930TIP3    H229986   4.735   6.202  16.530 -0.0543 -0.3241  0.2306
 1931TIP3   OH229987   7.088   7.146  18.124  0.0312 -0.3018 -0.0896
 1931TIP3    H129988   7.040   7.092  18.188  0.4286  0.9131  1.2957
 1931TIP3    H229989   7.169   7.096  18.108  0.3037 -0.2536  1.0177
 1932TIP3   OH229990   3.403   5.234  18.925  0.3834 -0.6825 -0.1980
 1932TIP3    H129991   3.488   5.206  18.958  1.0648  1.1417 -0.2693
 1932TIP3    H229992   3.409   5.330  18.923 -1.9437 -0.4779  0.4864
 1933TIP3   OH229993   7.126   1.284  18.812  0.6683  0.2883 -0.3858
 1933TIP3    H129994   7.042   1.288  18.858  1.2700  0.7479  0.7083
 1933TIP3    H229995   7.141   1.374  18.782  0.3175  0.0108 -1.4596
 1934TIP3   OH229996   2.794   4.377  16.992  0.1153 -0.3959 -0.1672
 1934TIP3    H129997   2.729   4.307  16.995 -0.4158  0.0942  0.0551
 1934TIP3    H229998   2.793   4.408  16.902  0.1120 -0.4556 -0.1883
 1935TIP3   OH229999   0.009   0.441  17.568 -0.0323 -0.9387 -0.0542
 1935TIP3    H130000   0.005   0.369  17.630 -1.1444 -0.8482  0.0097
 1935TIP3    H230001   0.008   0.399  17.482 -2.0790 -1.0051 -0.0445
 1936TIP3   OH230002   6.845   2.700  16.347 -0.6485  0.5630 -0.0469
 1936TIP3    H130003   6.756   2.721  16.375 -0.4935  3.2826 -1.2716
 1936TIP3    H230004   6.838   2.686  16.253  0.1368  0.1615 -0.0562
 1937TIP3   OH230005   6.674   2.757  17.275  0.0698  0.3324 -0.9427
 1937TIP3    H130006   6.648   2.695  17.343 -1.0190  1.7654  0.0151
 1937TIP3    H230007   6.683   2.703  17.196  2.6747 -1.6130  0.4999
 1938TIP3   OH230008   1.085   2.876  18.840 -0.4282  0.4012 -0.2362
 1938TIP3    H130009   1.097   2.783  18.859  0.8526  0.2332 -1.6573
 1938TIP3    H230010   1.084   2.881  18.744 -0.0577  1.8961 -0.1916
 1939TIP3   OH230011   2.027   2.565  16.867 -0.3692  0.2228  0.2872
 1939TIP3    H130012   1.971   2.641  16.880  0.4371  0.9130 -0.1492
 1939TIP3    H230013   2.116   2.600  16.871  0.0439 -0.8948  1.2396
 1940TIP3   OH230014   4.375   4.896  17.297 -0.0564  0.0010 -0.1803
 1940TIP3    H130015   4.408   4.981  17.268 -0.8576  0.2946 -0.2536
 1940TIP3    H230016   4.452   4.850  17.328  0.5364  0.4132 -0.9888
 1941TIP3   OH230017   0.036   0.670  18.806  0.2367  0.2181  0.3130
 1941TIP3    H130018  -0.017   0.682  18.727  1.0838 -0.8931 -0.4639
 1941TIP3    H230019   0.036   0.756  18.849 -0.1307  0.8861 -0.9687
 1942TIP3   OH230020   6.801   2.244  18.191  0.0260 -0.0918 -0.0984
 1942TIP3    H130021   6.717   2.290  18.196 -1.2577 -2.2283 -1.0696
 1942TIP3    H230022   6.859   2.307  18.149 -1.0463  1.4263  0.5608
 1943TIP3   OH230023   0.001   1.077  17.843 -1.1436  0.2148  0.0116
 1943TIP3    H130024   0.001   1.153  17.785 -1.2018  0.0358 -0.2234
 1943TIP3    H230025  -0.055   1.013  17.799  0.7481 -0.8520 -0.9605
 1944TIP3   OH230026   1.481   4.736  16.964 -0.3196 -0.1788  0.2470
 1944TIP3    H130027   1.532   4.669  17.010  0.5037  0.1620 -0.1410
 1944TIP3    H230028   1.390   4.709  16.975 -0.0559 -0.8354  0.9089
 1945TIP3   OH230029   0.640   1.344  18.141  0.0513  0.0883  0.0300
 1945TIP3    H130030   0.706   1.312  18.079 -0.5910 -0.7871 -0.2222
 1945TIP3    H230031   0.559   1.299  18.115 -0.1464 -0.5994  1.7478
 1946TIP3   OH230032   0.654   2.332  19.062 -0.4700 -0.1770 -0.0054
 1946TIP3    H130033   0.597   2.337  19.139  0.8880 -1.0627  1.1167
 1946TIP3    H230034   0.622   2.401  19.004 -1.0730  1.0403  1.6836
 1947TIP3   OH230035   0.468   3.065  18.705  0.1980  0.1079  0.3719
 1947TIP3    H130036   0.501   3.154  18.698 -1.4941  0.6626 -2.0277
 1947TIP3    H230037   0.545   3.009  18.696  1.0757  1.3278  0.1220
 1948TIP3   OH230038   0.411   1.194  18.017  0.2477 -0.7580  0.2747
 1948TIP3    H130039   0.341   1.231  17.964 -0.0849  0.5059  1.5174
 1948TIP3    H230040   0.371   1.121  18.064  0.5305 -1.8411 -1.1361
 1949TIP3   OH230041   0.105   4.730  17.717 -0.1107 -0.8701  0.5377
 1949TIP3    H130042   0.131   4.690  17.799 -0.3820 -1.7096  0.2198
 1949TIP3    H230043   0.010   4.741  17.725  0.1599  1.3524  1.3253
 1950TIP3   OH230044   0.624   2.167  18.038  0.2046  0.1540 -0.8951
 1950TIP3    H130045   0.644   2.260  18.031 -0.8379  0.3430 -1.5761
 1950TIP3    H230046   0.612   2.137  17.948  0.7861 -0.7105 -0.7061
 1951TIP3   OH230047   1.137   0.013  17.366 -0.1156  0.5008  0.2061
 1951TIP3    H130048   1.062   0.001  17.424  1.3295 -0.9807  1.8599
 1951TIP3    H230049   1.112   0.086  17.310 -2.3900  0.6778  1.3431
 1952TIP3   OH230050   5.197   5.375  18.541 -0.6984  0.1346  0.0389
 1952TIP3    H130051   5.193   5.293  18.589  0.8656  0.5128  0.8988
 1952TIP3    H230052   5.157   5.356  18.456  0.2075 -1.6978 -0.0162
 1953TIP3   OH230053   1.022   6.205  18.795 -1.0760 -0.4602  0.1252
 1953TIP3    H130054   1.032   6.300  18.796  0.8210 -0.6008 -0.3489
 1953TIP3    H230055   0.959   6.188  18.725 -0.4878  0.3950 -0.6304
 1954TIP3   OH230056   3.974   3.173  16.930 -0.2902 -0.5881 -0.5197
 1954TIP3    H130057   4.052   3.120  16.913  1.1166  1.6964 -1.8418
 1954TIP3    H230058   3.940   3.141  17.013  1.0354 -2.8059 -0.7601
 1955TIP3   OH230059   0.675   4.122  18.271 -0.2364 -0.5895  0.4628
 1955TIP3    H130060   0.625   4.051  18.231 -0.9942  0.0420  0.2754
 1955TIP3    H230061   0.612   4.169  18.326 -0.1281  0.8350 -0.5717
 1956TIP3   OH230062   0.637   0.557  17.477 -0.3030 -0.2251 -0.0599
 1956TIP3    H130063   0.650   0.543  17.571 -0.0520  0.2246 -0.0274
 1956TIP3    H230064   0.639   0.652  17.466  0.9588 -0.3064 -0.7039
 1957TIP3   OH230065   0.616   5.211  18.190  0.0834 -0.3689  0.3521
 1957TIP3    H130066   0.608   5.196  18.285 -0.6463  0.6701  0.4830
 1957TIP3    H230067   0.605   5.125  18.151 -0.0854 -0.7463  1.1946
 1958TIP3   OH230068   0.337   3.240  19.234  0.1502 -0.2533  0.4198
 1958TIP3    H130069   0.375   3.218  19.149 -0.1768  0.8765 -0.0409
 1958TIP3    H230070   0.297   3.326  19.221 -0.8912 -0.5596  1.4176
 1959TIP3   OH230071   6.897   4.104  17.142 -0.1419 -0.2794  0.4617
 1959TIP3    H130072   6.905   4.017  17.102  1.9010 -0.2931  0.8362
 1959TIP3    H230073   6.805   4.128  17.128 -1.0239 -2.8964  1.1957
 1960TIP3   OH230074   0.947   6.172  18.303  0.5039  0.9910  0.4052
 1960TIP3    H130075   0.921   6.181  18.394 -1.2876  0.7528 -0.0420
 1960TIP3    H230076   0.907   6.089  18.275  2.1624  0.3609 -0.2465
 1961TIP3   OH230077   5.688   6.149  16.195 -0.4016  0.3869  0.4767
 1961TIP3    H130078   5.660   6.174  16.107  1.2851  3.0195  0.5592
 1961TIP3    H230079   5.703   6.055  16.189  1.4344  0.7231 -2.6552
 1962TIP3   OH230080   2.482   2.754  17.785  0.0053  0.2439  0.3237
 1962TIP3    H130081   2.464   2.847  17.798 -0.1458  0.3676 -0.7220
 1962TIP3    H230082   2.419   2.726  17.718  1.6484 -0.0381 -1.1568
 1963TIP3   OH230083   2.076   2.286  18.116  0.3710  0.7721  0.2556
 1963TIP3    H130084   2.172   2.291  18.113  0.3600  0.4593 -1.5324
 1963TIP3    H230085   2.058   2.209  18.169  1.0896  1.0229  0.8936
 1964TIP3   OH230086   0.919   2.186  19.080  0.7890 -0.0368 -0.4916
 1964TIP3    H130087   0.831   2.221  19.068  1.1453  0.7354 -0.9011
 1964TIP3    H230088   0.976   2.264  19.083  1.2267 -0.3586  1.9529
 1965TIP3   OH230089   3.952   0.187  18.142  0.1355 -0.3986  0.0016
 1965TIP3    H130090   3.995   0.187  18.228  0.5009 -3.1281 -0.0657
 1965TIP3    H230091   3.958   0.277  18.112  2.3421  0.1231  1.7174
 1966TIP3   OH230092   5.127   6.614  18.499  0.3087  0.0789 -0.2895
 1966TIP3    H130093   5.141   6.625  18.405  0.0450  1.3838 -0.1990
 1966TIP3    H230094   5.177   6.685  18.539  0.0497 -0.1896  0.5310
 1967TIP3   OH230095   5.322   2.102  16.914  0.0338 -0.8147  0.6260
 1967TIP3    H130096   5.278   2.136  16.992  1.3967  0.3635  0.9154
 1967TIP3    H230097   5.328   2.177  16.855  0.5362 -1.2701  0.0817
 1968TIP3   OH230098   5.755   2.466  17.720  0.0506  0.0319  0.1495
 1968TIP3    H130099   5.815   2.469  17.646  0.3672 -0.5581  0.3769
 1968TIP3    H230100   5.743   2.558  17.746  0.3351  0.1981 -0.3107
 1969TIP3   OH230101   5.895   6.368  17.951  0.0885  0.6529 -0.1041
 1969TIP3    H130102   5.885   6.412  18.035 -0.1274  0.3441  0.0316
 1969TIP3    H230103   5.813   6.385  17.905 -0.1582  0.0503  0.1098
 1970TIP3   OH230104   3.915   5.624  17.962  0.0702  0.3864 -0.0706
 1970TIP3    H130105   3.965   5.556  17.916 -0.5857 -0.3188  0.2293
 1970TIP3    H230106   3.942   5.616  18.053  0.6144  1.1018 -0.1615
 1971TIP3   OH230107   6.837   3.166  18.693  0.1151  0.0114  0.5061
 1971TIP3    H130108   6.807   3.256  18.705 -1.3858 -0.4750  0.5967
 1971TIP3    H230109   6.772   3.126  18.635  0.4275 -1.1763  0.9408
 1972TIP3   OH230110   5.376   0.695  16.963  0.0475  0.1020  0.3128
 1972TIP3    H130111   5.440   0.761  16.992 -0.7502  0.5121  1.2000
 1972TIP3    H230112   5.416   0.655  16.886  1.1182  0.7459  0.5133
 1973TIP3   OH230113   6.341   7.223  17.986 -0.1817 -0.2871 -0.3880
 1973TIP3    H130114   6.355   7.271  17.904 -1.4192  2.0329  0.6577
 1973TIP3    H230115   6.251   7.190  17.979  0.6630 -2.6016 -1.0994
 1974TIP3   OH230116   0.383   3.670  16.573  0.3746  0.5277 -0.7059
 1974TIP3    H130117   0.455   3.608  16.583  0.3726  0.3985 -1.4605
 1974TIP3    H230118   0.309   3.616  16.546  0.7288  1.0019 -2.8223
 1975TIP3   OH230119   6.332   2.544  18.428 -0.1575 -0.5935 -0.2481
 1975TIP3    H130120   6.333   2.579  18.339  0.2376 -3.4393 -1.4911
 1975TIP3    H230121   6.239   2.541  18.451 -0.4135 -1.3465 -1.2867
 1976TIP3   OH230122   1.965   3.731  17.250 -0.6730  0.2308 -0.0298
 1976TIP3    H130123   2.026   3.687  17.309  1.2189  2.1202 -0.4484
 1976TIP3    H230124   1.914   3.661  17.210  0.5540 -1.3397  1.0737
 1977TIP3   OH230125   4.153   6.931  17.074  0.3920 -0.2123  0.2753
 1977TIP3    H130126   4.140   6.930  17.169  0.5293  0.0268  0.2978
 1977TIP3    H230127   4.065   6.940  17.037  0.3786  0.1309  0.3911
 1978TIP3   OH230128   0.466   2.921  17.386 -0.1846 -0.0859 -0.3589
 1978TIP3    H130129   0.419   2.954  17.309  0.5438  0.3150 -0.6433
 1978TIP3    H230130   0.551   2.893  17.352  0.9710  2.0344  0.5861
 1979TIP3   OH230131   7.024   5.439  17.463 -0.0351 -0.0806  0.0824
 1979TIP3    H130132   6.930   5.456  17.463 -0.6500 -2.6586 -2.5814
 1979TIP3    H230133   7.057   5.486  17.386  1.3946  2.5912  2.1589
 1980TIP3   OH230134   1.683   6.005  17.458 -0.4420 -0.2892  0.5149
 1980TIP3    H130135   1.714   6.034  17.372  2.3358 -2.3468  0.6700
 1980TIP3    H230136   1.631   5.927  17.439 -1.4338  0.3312  0.6153
 1981TIP3   OH230137   2.774   5.945  17.465 -0.0804 -0.5180 -0.1493
 1981TIP3    H130138   2.811   6.027  17.433  3.5199 -1.7949  0.2602
 1981TIP3    H230139   2.787   5.948  17.560 -0.3033 -1.3454 -0.0840
 1982TIP3   OH230140   4.846   5.658  15.830  0.1101 -0.1888  0.0790
 1982TIP3    H130141   4.814   5.594  15.766  0.8729  1.3956 -2.0157
 1982TIP3    H230142   4.882   5.605  15.901  1.1722 -2.1260 -1.7809
 1983TIP3   OH230143   1.005   0.173  16.413  0.2001 -0.6163  0.0333
 1983TIP3    H130144   1.024   0.205  16.501 -0.4053  1.2634 -0.4789
 1983TIP3    H230145   1.068   0.217  16.356 -0.9355  0.0407 -0.7516
 1984TIP3   OH230146   0.013   0.085  17.131 -0.5163 -0.3539 -0.1148
 1984TIP3    H130147  -0.076   0.119  17.142 -0.2837  0.1778  0.1570
 1984TIP3    H230148   0.027   0.085  17.036  0.2116  2.2823 -0.0756
 1985TIP3   OH230149   3.636   4.914  19.038  0.1347  0.9611 -0.7384
 1985TIP3    H130150   3.709   4.851  19.037  0.7225  1.6228 -0.7768
 1985TIP3    H230151   3.559   4.861  19.057  0.4990  0.1109 -1.5474
 1986TIP3   OH230152   6.846   4.996  18.759 -0.0391  0.0632 -0.3368
 1986TIP3    H130153   6.841   4.900  18.764 -1.3558  0.1505  0.6324
 1986TIP3    H230154   6.762   5.022  18.722  0.2846  0.8527 -0.5197
 1987TIP3   OH230155   6.878   6.435  16.434  0.7217 -0.1215 -0.0129
 1987TIP3    H130156   6.886   6.340  16.431 -0.1967 -0.1808 -1.1079
 1987TIP3    H230157   6.799   6.455  16.384 -0.6980  1.0327  2.4430
 1988TIP3   OH230158   0.884   1.188  18.343  0.2522 -0.2204 -0.2397
 1988TIP3    H130159   0.947   1.147  18.284 -1.8971 -1.7328 -1.6152
 1988TIP3    H230160   0.822   1.233  18.285 -0.9890 -0.3235  0.9445
 1989TIP3   OH230161   4.315   0.867  17.389  0.4645  0.5008 -0.3361
 1989TIP3    H130162   4.399   0.825  17.370 -0.4207 -0.2567 -2.9238
 1989TIP3    H230163   4.336   0.961  17.392  1.5530  0.2638  0.1554
 1990TIP3   OH230164   4.657   7.195  18.469 -0.6269  0.1495 -0.0325
 1990TIP3    H130165   4.673   7.200  18.375 -1.0855  0.1529 -0.1097
 1990TIP3    H230166   4.716   7.126  18.500 -0.6026  0.0265 -0.3499
 1991TIP3   OH230167   5.251   5.668  18.642 -0.0164  0.0058 -0.0683
 1991TIP3    H130168   5.197   5.592  18.618  0.6741 -0.2433 -0.8770
 1991TIP3    H230169   5.341   5.638  18.629  0.2931  0.6711  0.5037
 1992TIP3   OH230170   0.646   1.217  17.449  0.6370 -0.0511  0.3116
 1992TIP3    H130171   0.644   1.165  17.529 -0.1491  0.2099  0.4662
 1992TIP3    H230172   0.562   1.201  17.407 -0.0080  1.7464  0.8035
 1993TIP3   OH230173   5.113   2.561  18.586 -0.4414 -0.0299 -0.0203
 1993TIP3    H130174   5.051   2.634  18.587 -0.0849  0.2724  1.3459
 1993TIP3    H230175   5.198   2.601  18.569 -0.6819 -0.5637 -3.1391
 1994TIP3   OH230176   0.783   2.342  17.585 -0.4242 -0.3291  0.2166
 1994TIP3    H130177   0.699   2.316  17.622 -0.2098  0.2120  1.1207
 1994TIP3    H230178   0.784   2.438  17.593 -1.2488  0.0706 -3.0997
 1995TIP3   OH230179   2.525   6.299  16.770  0.1633  0.1142 -0.4997
 1995TIP3    H130180   2.583   6.283  16.845  0.5439  2.0916 -0.3320
 1995TIP3    H230181   2.446   6.249  16.791  1.4477 -1.9977 -0.3680
 1996TIP3   OH230182   6.148   3.874  17.154 -0.2142 -0.2884 -0.3529
 1996TIP3    H130183   6.212   3.935  17.191 -0.8049  0.3288 -0.3584
 1996TIP3    H230184   6.112   3.918  17.078 -0.1362 -0.9310 -0.7757
 1997TIP3   OH230185   5.201   4.808  17.002 -0.3784 -0.3509  0.3768
 1997TIP3    H130186   5.278   4.864  17.015  0.1239 -0.6419 -1.1142
 1997TIP3    H230187   5.128   4.870  16.996  0.2319  0.2658 -1.7453
 1998TIP3   OH230188   3.352   5.160  16.976 -0.6408 -0.0953  1.2130
 1998TIP3    H130189   3.329   5.084  16.923 -0.3227  0.6229  0.0095
 1998TIP3    H230190   3.303   5.232  16.938  2.2407  1.1744 -0.4302
 1999TIP3   OH230191   1.164   6.595  18.242  0.2058  0.3106  0.5173
 1999TIP3    H130192   1.253   6.560  18.249 -0.6003 -1.9071  0.7090
 1999TIP3    H230193   1.111   6.520  18.214 -1.8767  1.1206  2.0344
 2000TIP3   OH230194   4.233   3.049  16.947  0.5725  0.1098 -0.0553
 2000TIP3    H130195   4.322   3.056  16.914  0.8899  0.7918  0.9144
 2000TIP3    H230196   4.238   3.078  17.038 -0.9753  1.9495 -0.4956
 2001TIP3   OH230197   3.501   4.986  18.793  0.6689 -0.1797  0.6387
 2001TIP3    H130198   3.530   4.904  18.832  1.9481  0.5777  1.3403
 2001TIP3    H230199   3.459   5.033  18.865 -2.5082 -1.2456 -0.3368
 2002TIP3   OH230200   0.154   1.131  17.214 -0.3697  0.3346  0.7943
 2002TIP3    H130201   0.073   1.162  17.173 -0.2644  1.0021  1.0791
 2002TIP3    H230202   0.181   1.057  17.160 -1.4711 -0.2526  1.0255
 2003TIP3   OH230203   3.685   7.314  18.550 -0.3030  0.3862 -0.2766
 2003TIP3    H130204   3.697   7.314  18.645  0.9022  0.6546 -0.4070
 2003TIP3    H230205   3.764   7.272  18.517 -0.6820  0.3687 -1.1703
 2004TIP3   OH230206   4.570   2.621  18.246 -0.8856  0.5558  0.0495
 2004TIP3    H130207   4.654   2.599  18.285 -0.5840  0.6415 -0.5557
 2004TIP3    H230208   4.505   2.589  18.310 -0.4676 -1.5543 -0.5055
 2005TIP3   OH230209   6.790   0.747  17.786 -0.5281 -0.0434  0.1926
 2005TIP3    H130210   6.823   0.836  17.794 -1.2958  0.2137  0.5061
 2005TIP3    H230211   6.869   0.693  17.779 -0.0594  0.6398  0.1466
 2006TIP3   OH230212   0.059   2.693  17.831 -0.3619 -0.3847 -0.1189
 2006TIP3    H130213   0.120   2.640  17.780 -0.4409 -0.3724 -0.2275
 2006TIP3    H230214  -0.011   2.714  17.770  0.7467  1.7404 -0.7431
 2007TIP3   OH230215   3.120   7.415  17.722 -0.3199 -0.0189 -0.1775
 2007TIP3    H130216   3.191   7.384  17.779 -1.4436 -2.3137  0.1159
 2007TIP3    H230217   3.058   7.457  17.781  0.2443  0.9612 -0.2702
 2008TIP3   OH230218   1.242   5.099  18.571 -0.8315 -0.0997 -0.7849
 2008TIP3    H130219   1.240   5.015  18.525 -0.4660 -1.7483  1.9656
 2008TIP3    H230220   1.333   5.108  18.601 -0.9715  1.0511 -0.6597
 2009TIP3   OH230221   1.708   0.087  17.289  0.7089 -0.1328  0.2303
 2009TIP3    H130222   1.728   0.107  17.380 -0.6679 -2.5773  1.1564
 2009TIP3    H230223   1.793   0.081  17.246  1.3749  1.1084  1.2932
 2010TIP3   OH230224   7.215   3.997  17.303 -0.4892  0.1821 -0.5623
 2010TIP3    H130225   7.309   3.997  17.289 -0.6667  0.7495 -1.8564
 2010TIP3    H230226   7.186   4.083  17.272 -1.3314  0.3656  0.6377
 2011TIP3   OH230227   6.179   1.228  18.056  0.1914 -0.2476  0.3980
 2011TIP3    H130228   6.127   1.230  18.136 -0.2196 -0.2615  0.1362
 2011TIP3    H230229   6.173   1.137  18.025 -0.9651  0.1014 -0.4839
 2012TIP3   OH230230   6.894   4.714  17.925 -0.6887 -0.0611 -0.0008
 2012TIP3    H130231   6.803   4.700  17.950 -0.3511 -3.2024 -0.1934
 2012TIP3    H230232   6.901   4.676  17.837  1.2348 -1.8529  0.8566
 2013TIP3   OH230233   4.015   3.776  17.252 -0.2896 -0.2854  0.1694
 2013TIP3    H130234   4.002   3.734  17.166 -1.3763 -0.2780  0.3083
 2013TIP3    H230235   3.926   3.800  17.279  0.0649 -0.1719  1.2424
 2014TIP3   OH230236   4.590   2.415  18.883  0.0143  0.3091 -0.1706
 2014TIP3    H130237   4.577   2.508  18.864  0.0066  0.1933 -0.7578
 2014TIP3    H230238   4.502   2.377  18.879  0.1248  0.1101 -0.8957
 2015TIP3   OH230239   1.479   4.301  17.090 -0.0794 -0.3020 -0.2546
 2015TIP3    H130240   1.504   4.394  17.090 -1.3537  0.0673  0.7885
 2015TIP3    H230241   1.424   4.291  17.012 -3.4390  0.9017  1.7382
 2016TIP3   OH230242   5.260   2.058  16.646 -0.5614 -0.3604  0.0044
 2016TIP3    H130243   5.256   2.037  16.739 -2.0090 -2.0893 -0.3954
 2016TIP3    H230244   5.351   2.081  16.630 -0.2414 -0.2903  1.7893
 2017TIP3   OH230245   1.307   3.749  16.744  0.1766 -0.0394 -0.2087
 2017TIP3    H130246   1.288   3.829  16.695  0.6693 -0.1291 -0.5546
 2017TIP3    H230247   1.253   3.755  16.822  0.6555  0.9257  0.0669
 2018TIP3   OH230248   7.387   1.239  18.923 -0.2773 -0.4990  0.7321
 2018TIP3    H130249   7.296   1.263  18.907 -0.3649 -1.3603 -0.2034
 2018TIP3    H230250   7.410   1.182  18.849  2.0904  2.3808 -0.9682
 2019TIP3   OH230251   6.476   4.203  15.874  0.3423  0.0876  0.3931
 2019TIP3    H130252   6.408   4.200  15.941 -0.9134  1.2926 -0.7548
 2019TIP3    H230253   6.440   4.152  15.801  1.2262 -0.3194  0.2275
 2020TIP3   OH230254   3.736   2.663  18.398 -0.5735  0.4322 -0.1578
 2020TIP3    H130255   3.816   2.694  18.354 -1.5980  0.0395 -2.4132
 2020TIP3    H230256   3.684   2.742  18.410  0.2815  0.7647  1.7441
 2021TIP3   OH230257   0.021   3.809  16.065 -0.1654  0.6314  0.1791
 2021TIP3    H130258  -0.049   3.814  16.000  0.5970 -1.2067 -0.8622
 2021TIP3    H230259   0.101   3.827  16.016  0.2928  0.7043  0.9291
 2022TIP3   OH230260   3.723   5.055  17.136  0.1178 -0.0677 -0.0133
 2022TIP3    H130261   3.756   5.085  17.051  2.5453 -0.9595  0.5436
 2022TIP3    H230262   3.654   4.992  17.113  0.2981  0.1619 -1.3014
 2023TIP3   OH230263   7.362   7.434  17.476  0.6683 -0.2701  0.2049
 2023TIP3    H130264   7.362   7.413  17.383 -0.1026 -2.0050  0.5566
 2023TIP3    H230265   7.272   7.461  17.495  0.4249 -1.3926  0.7244
 2024TIP3   OH230266   5.437   2.988  16.699 -0.5048 -0.1066 -0.3245
 2024TIP3    H130267   5.493   2.952  16.768  1.5271  3.8095  0.3237
 2024TIP3    H230268   5.366   3.031  16.747  0.8739  2.5622 -0.5268
 2025TIP3   OH230269   0.649   4.646  17.947  0.1455 -0.5552  0.0711
 2025TIP3    H130270   0.598   4.717  17.908  0.3885  0.3687  1.3610
 2025TIP3    H230271   0.600   4.621  18.025  1.2104 -0.2626  0.8474
 2026TIP3   OH230272   0.974   2.129  16.846 -0.0126  0.1185  0.0716
 2026TIP3    H130273   1.016   2.133  16.932  0.0506  1.0301  0.0099
 2026TIP3    H230274   1.035   2.174  16.788 -0.6025  0.5681 -0.2118
 2027TIP3   OH230275   2.725   1.681  18.503 -0.7318 -0.0486 -0.2671
 2027TIP3    H130276   2.686   1.611  18.555  2.4160  0.9453  3.9859
 2027TIP3    H230277   2.798   1.640  18.457  0.1052  0.0790  0.9144
 2028TIP3   OH230278   6.404   0.932  17.252  0.5539 -0.2044 -0.0445
 2028TIP3    H130279   6.453   0.920  17.171 -0.6528 -0.5186 -0.7530
 2028TIP3    H230280   6.401   0.845  17.291  0.7612 -0.1378  0.1218
 2029TIP3   OH230281   3.654   0.316  17.145 -0.3489 -0.2087 -0.3539
 2029TIP3    H130282   3.746   0.317  17.119 -0.2935 -1.8072 -0.3140
 2029TIP3    H230283   3.622   0.231  17.116 -1.7261  0.1849 -0.0398
 2030TIP3   OH230284   6.738   4.721  18.779 -0.7316 -0.0393 -0.0682
 2030TIP3    H130285   6.783   4.708  18.863 -0.6634 -0.4177 -0.1633
 2030TIP3    H230286   6.647   4.697  18.796 -0.9528  0.9178  0.1768
 2031TIP3   OH230287   5.837   1.404  16.820 -0.2308 -0.2392  0.2449
 2031TIP3    H130288   5.864   1.344  16.889  0.7917 -0.3278 -0.2243
 2031TIP3    H230289   5.795   1.348  16.754 -1.8103 -0.0799  1.0516
 2032TIP3   OH230290   2.232   3.508  17.777  0.9569  0.3411  0.6771
 2032TIP3    H130291   2.265   3.597  17.770 -0.3399  0.7043 -2.7842
 2032TIP3    H230292   2.162   3.513  17.841  1.2176  1.6895  0.8861
 2033TIP3   OH230293   3.075   1.959  18.112 -0.8298 -0.1258  0.2185
 2033TIP3    H130294   3.095   1.974  18.020 -1.9887  1.2342  0.1427
 2033TIP3    H230295   3.071   1.863  18.121 -1.1267 -0.2690 -1.2442
 2034TIP3   OH230296   6.664   4.666  17.205  0.2067 -0.8049  0.1212
 2034TIP3    H130297   6.601   4.670  17.277  1.2036 -0.0470  0.9831
 2034TIP3    H230298   6.612   4.682  17.126 -0.5246  0.9704  0.9154
 2035TIP3   OH230299   1.033   5.801  17.377  0.1764  0.4358  0.2137
 2035TIP3    H130300   1.010   5.752  17.298 -0.6360  0.0542  0.6705
 2035TIP3    H230301   1.113   5.848  17.354 -0.1527  0.4810 -0.8918
 2036TIP3   OH230302   6.539   5.951  18.387 -0.0364  0.5237  0.3694
 2036TIP3    H130303   6.527   6.020  18.452 -2.2259 -0.6633  1.3308
 2036TIP3    H230304   6.508   5.990  18.305  0.4936  1.2539  0.5080
 2037TIP3   OH230305   0.194   6.111  18.120 -0.4180  0.4792  1.0111
 2037TIP3    H130306   0.142   6.038  18.088 -2.7244  1.9481  1.1595
 2037TIP3    H230307   0.172   6.184  18.061  1.7260  1.1397  0.9131
 2038TIP3   OH230308   6.294   6.790  18.335  0.3963 -0.0708 -0.4173
 2038TIP3    H130309   6.369   6.825  18.288  0.0627 -0.0316 -0.9312
 2038TIP3    H230310   6.237   6.866  18.350  1.7395  0.5079  2.5440
 2039TIP3   OH230311   4.373   6.222  18.516 -0.3240  0.1448  0.2562
 2039TIP3    H130312   4.294   6.182  18.553 -0.6306  0.8148  0.3419
 2039TIP3    H230313   4.412   6.269  18.589 -0.3414  0.5766 -0.0136
 2040TIP3   OH230314   0.992   5.229  17.501  0.0384 -0.1307 -0.0181
 2040TIP3    H130315   1.030   5.275  17.576 -1.0491 -1.5303  1.4676
 2040TIP3    H230316   1.044   5.149  17.493 -0.7301 -0.6623  0.1700
 2041TIP3   OH230317   5.147   5.172  16.474 -0.2341  0.0269  0.3001
 2041TIP3    H130318   5.122   5.196  16.385  0.6101  1.9914  0.5403
 2041TIP3    H230319   5.074   5.203  16.528 -0.2531 -0.1856  0.3984
 2042TIP3   OH230320   0.720   4.951  19.133  0.0730 -0.2311 -0.2228
 2042TIP3    H130321   0.709   4.964  19.039  0.8286  0.8552 -0.1688
 2042TIP3    H230322   0.632   4.961  19.169  0.1675  2.0468 -0.5199
 2043TIP3   OH230323   6.965   2.823  18.591  0.0593  0.4431 -0.4733
 2043TIP3    H130324   7.014   2.900  18.562 -1.8512  1.8685 -0.1080
 2043TIP3    H230325   7.001   2.804  18.678 -0.9602  2.4212  0.4620
 2044TIP3   OH230326   6.264   3.526  18.496  0.3112  0.2764  0.2160
 2044TIP3    H130327   6.224   3.481  18.571  1.3833  0.3525  0.8589
 2044TIP3    H230328   6.284   3.456  18.433  1.5579 -0.1345  1.0176
 2045TIP3   OH230329   0.706   4.530  18.498 -0.2548  0.4930 -0.2510
 2045TIP3    H130330   0.795   4.535  18.533 -0.4184 -1.2359  0.5323
 2045TIP3    H230331   0.665   4.458  18.547 -1.9291  0.9309 -0.9363
 2046TIP3   OH230332   3.886   1.354  18.675  0.0613  0.6735  0.6050
 2046TIP3    H130333   3.806   1.390  18.637  0.4412  1.0185  0.1190
 2046TIP3    H230334   3.930   1.309  18.603 -0.3293 -0.6434  1.1748
 2047TIP3   OH230335   6.617   4.885  18.122  0.6105  0.1462  0.2271
 2047TIP3    H130336   6.666   4.893  18.040  0.5781  0.1059  0.2037
 2047TIP3    H230337   6.678   4.915  18.189 -0.4508  3.5160 -0.1259
 2048TIP3   OH230338   5.597   1.405  17.810  0.2453 -0.1743 -0.1123
 2048TIP3    H130339   5.580   1.449  17.893  0.2966  0.0073 -0.1962
 2048TIP3    H230340   5.600   1.312  17.832  0.0217 -0.1442  0.0488
 2049TIP3   OH230341   1.887   5.173  18.567 -0.3462 -0.2210 -0.5438
 2049TIP3    H130342   1.870   5.267  18.579  0.8744 -0.2113  1.5047
 2049TIP3    H230343   1.831   5.131  18.632  2.0216 -0.6068  1.3606
 2050TIP3   OH230344   4.521   5.532  18.566  0.5062  0.0768  0.0697
 2050TIP3    H130345   4.548   5.623  18.582 -0.2330  0.2085  0.6579
 2050TIP3    H230346   4.568   5.507  18.487 -1.1573  1.8177 -1.5773
 2051TIP3   OH230347   1.425   2.134  17.773  0.1898 -0.5039  0.3999
 2051TIP3    H130348   1.513   2.097  17.774  0.3257 -0.1836  1.5358
 2051TIP3    H230349   1.375   2.079  17.833 -0.8222 -1.6395 -1.3825
 2052TIP3   OH230350   3.746   3.756  18.943 -0.0797 -0.5192  0.6051
 2052TIP3    H130351   3.665   3.713  18.917 -0.4082 -0.5720  1.6402
 2052TIP3    H230352   3.815   3.694  18.922 -0.3106 -0.5108 -0.2040
 2053TIP3   OH230353   4.416   4.892  16.960  0.0637  0.0887  0.4782
 2053TIP3    H130354   4.468   4.823  17.001 -0.3081 -1.2371 -1.1884
 2053TIP3    H230355   4.479   4.946  16.913  0.2108  0.0851  0.6732
 2054TIP3   OH230356   7.146   5.764  16.836  0.0245 -0.5878  0.5198
 2054TIP3    H130357   7.207   5.692  16.821  0.5281 -0.0468 -0.1277
 2054TIP3    H230358   7.077   5.752  16.771 -1.3685 -2.0050  2.1527
 2055TIP3   OH230359   3.727   6.006  16.531 -0.1493  0.0918  0.4384
 2055TIP3    H130360   3.671   6.082  16.549 -0.9527 -0.1748 -0.7488
 2055TIP3    H230361   3.666   5.932  16.531  0.3921 -0.3577  0.2418
 2056TIP3   OH230362   1.993   4.940  18.458 -0.6549  0.3488 -0.2985
 2056TIP3    H130363   1.985   5.031  18.488 -0.7954  1.1573 -2.6096
 2056TIP3    H230364   2.007   4.890  18.539  0.5189  2.5326  0.9518
 2057TIP3   OH230365   4.893   6.092  18.060  0.0219  0.2128  0.2045
 2057TIP3    H130366   4.823   6.035  18.092 -0.2558  0.2352 -0.3504
 2057TIP3    H230367   4.883   6.172  18.111 -0.1269  0.0814  0.3869
 2058TIP3   OH230368   1.640   3.572  18.464  0.1792  0.0987  0.1555
 2058TIP3    H130369   1.575   3.529  18.408 -0.3815  2.5625 -1.2031
 2058TIP3    H230370   1.651   3.512  18.538 -1.5631 -1.6880 -0.9366
 2059TIP3   OH230371   7.409   2.703  17.295  0.1329 -0.2226  0.2170
 2059TIP3    H130372   7.488   2.651  17.314 -0.2710 -0.6883  0.6760
 2059TIP3    H230373   7.338   2.638  17.292 -0.4519  0.3425  1.2320
 2060TIP3   OH230374   1.364   0.218  16.757  0.4565 -0.5834 -0.3606
 2060TIP3    H130375   1.425   0.277  16.711 -0.1859 -1.0078 -1.8026
 2060TIP3    H230376   1.279   0.234  16.715  0.1821 -2.2082 -0.4668
 2061TIP3   OH230377   0.905   0.901  17.954  0.0414  0.0796  0.7268
 2061TIP3    H130378   0.978   0.962  17.960  1.9489 -2.0469  0.2654
 2061TIP3    H230379   0.921   0.852  17.874 -0.6167 -1.9787  1.7951
 2062TIP3   OH230380   1.860   1.194  16.184 -0.5506 -0.5449  0.1400
 2062TIP3    H130381   1.802   1.189  16.107 -0.7162  1.8845  0.0196
 2062TIP3    H230382   1.803   1.220  16.256  0.1166  0.4110  0.3479
 2063TIP3   OH230383   0.968   4.212  18.296  0.3562  0.7156 -0.2858
 2063TIP3    H130384   1.062   4.223  18.282  0.2594  0.7047 -1.0046
 2063TIP3    H230385   0.959   4.124  18.332  0.4990  0.0674 -1.7553
 2064TIP3   OH230386   3.679   6.706  16.584  0.3967  0.4881  0.2224
 2064TIP3    H130387   3.678   6.781  16.644  1.1869  0.4233  0.3159
 2064TIP3    H230388   3.608   6.725  16.522  0.3341  1.1213  0.4807
 2065TIP3   OH230389   7.280   6.514  18.097  0.4968 -0.3168 -0.8520
 2065TIP3    H130390   7.205   6.573  18.104  0.3874 -0.6221  0.8322
 2065TIP3    H230391   7.247   6.429  18.124  1.1035 -0.7812 -1.5234
 2066TIP3   OH230392   7.189   6.833  17.249 -0.0386  0.5121  1.2354
 2066TIP3    H130393   7.220   6.917  17.215 -0.3794  1.7983  3.7906
 2066TIP3    H230394   7.258   6.805  17.310  0.3944 -1.4836 -0.0605
 2067TIP3   OH230395   4.744   0.154  18.037  0.4399 -0.7579 -0.5645
 2067TIP3    H130396   4.721   0.181  18.126  0.4056 -0.6050 -0.6204
 2067TIP3    H230397   4.813   0.215  18.011  0.6644 -0.9938 -0.5297
 2068TIP3   OH230398   0.041   2.998  17.347 -0.0240  0.0400  0.0488
 2068TIP3    H130399   0.121   2.987  17.295  1.2917 -3.1324  2.4306
 2068TIP3    H230400  -0.020   2.934  17.310 -0.1846 -0.0296  0.4371
 2069TIP3   OH230401   1.680   1.461  16.521 -0.0804  0.1358 -0.4110
 2069TIP3    H130402   1.724   1.421  16.446  1.1302  1.2274 -0.3219
 2069TIP3    H230403   1.707   1.408  16.596 -2.7120 -2.0806 -0.8530
 2070TIP3   OH230404   5.109   6.665  18.237 -0.2974 -0.2174 -0.0219
 2070TIP3    H130405   5.086   6.624  18.153 -0.8093 -1.1597  0.5650
 2070TIP3    H230406   5.137   6.753  18.213  0.9150 -0.9039 -1.3493
 2071TIP3   OH230407   1.245   1.061  18.375  0.5597  0.0174 -0.5884
 2071TIP3    H130408   1.215   1.090  18.461  3.3096 -0.4866  0.6483
 2071TIP3    H230409   1.204   0.975  18.363  1.2572 -0.5582  0.9221
 2072TIP3   OH230410   5.608   4.493  18.689 -0.2124  0.2164  0.1715
 2072TIP3    H130411   5.599   4.556  18.617 -0.5206  0.1973  0.1909
 2072TIP3    H230412   5.623   4.547  18.766 -0.5328  0.2709  0.1977
 2073TIP3   OH230413   4.194   4.112  17.433 -0.2372  0.0158  0.3020
 2073TIP3    H130414   4.273   4.088  17.385 -0.3591 -0.1880  0.2002
 2073TIP3    H230415   4.159   4.189  17.387 -0.7378 -0.6013 -0.3661
 2074TIP3   OH230416   1.079   6.394  16.325  0.1190 -0.1833  0.1012
 2074TIP3    H130417   1.118   6.480  16.339  0.0578 -0.2920  0.9545
 2074TIP3    H230418   1.095   6.346  16.406 -0.7916 -0.6089  0.0474
 2075TIP3   OH230419   5.743   6.180  18.550 -0.3369  0.6554 -0.5503
 2075TIP3    H130420   5.737   6.272  18.574  0.2868  0.3399  0.9455
 2075TIP3    H230421   5.689   6.135  18.614  0.8549 -0.1745 -0.0772
 2076TIP3   OH230422   1.291   7.374  17.162  0.1409 -0.0515 -0.0939
 2076TIP3    H130423   1.234   7.423  17.221  0.3321  1.5260 -1.1653
 2076TIP3    H230424   1.370   7.358  17.214  0.5866  1.9347 -0.0965
 2077TIP3   OH230425   6.041   6.904  16.809  0.0728  0.5073 -0.5788
 2077TIP3    H130426   6.059   6.973  16.872  0.7332  0.5759 -0.8366
 2077TIP3    H230427   6.084   6.827  16.845  1.5606  0.8468 -1.5680
 2078TIP3   OH230428   3.646   5.700  18.065 -0.2496  0.1168  0.2991
 2078TIP3    H130429   3.712   5.653  18.014  0.0313  2.5288 -1.7488
 2078TIP3    H230430   3.683   5.705  18.153  2.1464  0.9925 -0.6664
 2079TIP3   OH230431   7.242   1.476  17.828  0.1669  0.0537 -0.0033
 2079TIP3    H130432   7.178   1.532  17.871  0.3293 -0.7559  1.3647
 2079TIP3    H230433   7.211   1.387  17.844  0.3344 -0.2844 -1.4480
 2080TIP3   OH230434   6.470   1.874  17.238 -0.1293  0.2049  0.0654
 2080TIP3    H130435   6.512   1.960  17.238 -1.5349  0.9043  0.4272
 2080TIP3    H230436   6.537   1.816  17.201  0.6023  1.5573 -0.8244
 2081TIP3   OH230437   3.886   6.874  17.485  0.1000  0.2720  0.5856
 2081TIP3    H130438   3.836   6.843  17.410  0.0124  0.2559  0.6505
 2081TIP3    H230439   3.907   6.794  17.534 -2.7553  0.5096  2.4300
 2082TIP3   OH230440   5.252   2.345  16.427  0.3957  0.6113 -0.0576
 2082TIP3    H130441   5.339   2.319  16.460  0.3529  0.3476 -0.1461
 2082TIP3    H230442   5.219   2.406  16.492  0.7203  0.8417 -0.1083
 2083TIP3   OH230443   4.590   5.292  17.999 -0.0886 -0.6914 -0.2506
 2083TIP3    H130444   4.561   5.203  18.019 -0.1635 -0.9709 -1.4925
 2083TIP3    H230445   4.610   5.290  17.905 -1.2545  0.9144 -0.5739
 2084TIP3   OH230446   7.357   0.797  17.144  0.2057 -0.1492  0.2509
 2084TIP3    H130447   7.343   0.874  17.089  0.9006 -0.4917 -0.4261
 2084TIP3    H230448   7.273   0.751  17.142 -0.7114  1.3443  1.9184
 2085TIP3   OH230449   6.261   4.341  18.501 -0.1586  0.4952 -0.4829
 2085TIP3    H130450   6.173   4.358  18.535 -0.3799 -0.3185 -0.6305
 2085TIP3    H230451   6.313   4.417  18.529 -0.5229  0.2292  1.0005
 2086TIP3   OH230452   0.095   3.810  17.808  0.8561 -0.2575 -0.0261
 2086TIP3    H130453   0.015   3.817  17.860  0.7976 -1.7883  0.1154
 2086TIP3    H230454   0.079   3.867  17.733 -0.4509 -0.6937 -0.0986
 2087TIP3   OH230455   7.371   0.149  18.316  0.3451  0.3819  0.6341
 2087TIP3    H130456   7.393   0.211  18.247 -1.0128 -0.6921 -0.8371
 2087TIP3    H230457   7.350   0.204  18.392  2.2097  1.5754  0.3553
 2088TIP3   OH230458   6.569   2.685  16.478 -0.1589  0.2387  0.2406
 2088TIP3    H130459   6.480   2.703  16.507 -0.6016  1.5004 -1.7684
 2088TIP3    H230460   6.567   2.595  16.446  0.1376 -0.8883  3.1083
 2089TIP3   OH230461   4.044   0.219  16.267  0.1212 -0.6351  0.2251
 2089TIP3    H130462   3.999   0.212  16.183 -1.1558  0.3118  0.8050
 2089TIP3    H230463   3.990   0.167  16.327  0.4292 -0.4264  0.6899
 2090TIP3   OH230464   4.257   4.947  16.736 -0.0858 -0.3835  0.1165
 2090TIP3    H130465   4.228   4.879  16.674 -0.0955 -0.4474  0.1899
 2090TIP3    H230466   4.279   4.898  16.815  0.5446 -0.3771 -0.0461
 2091TIP3   OH230467   6.712   6.625  17.624  0.7049 -0.0354 -0.2243
 2091TIP3    H130468   6.756   6.697  17.669  2.4340  0.1134 -2.0252
 2091TIP3    H230469   6.629   6.662  17.594  0.1982  0.2778  1.4603
 2092TIP3   OH230470   3.210   4.333  18.221  0.6822 -0.1815  0.6848
 2092TIP3    H130471   3.161   4.414  18.212 -0.4727 -0.7129  1.9145
 2092TIP3    H230472   3.235   4.310  18.131  0.9952  1.4803  0.3223
 2093TIP3   OH230473   3.608   7.210  16.828 -0.1254 -0.1128  0.2537
 2093TIP3    H130474   3.585   7.302  16.843 -1.1082 -0.1088 -1.1307
 2093TIP3    H230475   3.548   7.181  16.759  0.9030 -1.4952 -0.0967
 2094TIP3   OH230476   4.671   2.206  17.787  0.3058  0.3649  0.4496
 2094TIP3    H130477   4.633   2.129  17.831 -0.5989  1.8884  2.5023
 2094TIP3    H230478   4.638   2.200  17.697 -1.3988 -0.6226  1.0786
 2095TIP3   OH230479   3.408   7.425  17.818  0.0002 -0.2458 -0.2764
 2095TIP3    H130480   3.461   7.435  17.897 -0.3763  0.3693 -0.0963
 2095TIP3    H230481   3.345   7.498  17.821  1.0976  0.8462 -2.0224
 2096TIP3   OH230482   7.477   4.908  17.453  0.1002 -0.4026 -0.2398
 2096TIP3    H130483   7.480   4.834  17.513  1.2106 -1.6913 -1.7917
 2096TIP3    H230484   7.521   4.979  17.499 -0.0343 -1.0141  0.8598
 2097TIP3   OH230485   3.272   3.196  16.941  0.2837 -0.1156  0.1092
 2097TIP3    H130486   3.286   3.246  17.022  1.4886  0.4731 -0.4461
 2097TIP3    H230487   3.295   3.256  16.871  0.0664 -0.8989 -0.6538
 2098TIP3   OH230488   3.773   5.480  18.972  0.2441 -0.5532 -0.1623
 2098TIP3    H130489   3.733   5.406  19.016  0.3398 -0.5264 -0.0304
 2098TIP3    H230490   3.738   5.557  19.016  0.5110 -0.5315  0.0159
 2099TIP3   OH230491   4.799   3.457  19.058  0.6936 -0.1276  0.3255
 2099TIP3    H130492   4.872   3.493  19.007 -0.2308  0.5995 -0.5348
 2099TIP3    H230493   4.831   3.455  19.148  1.8679 -0.0836 -0.0793
 2100TIP3   OH230494   0.524   5.969  17.114 -0.4983  0.1881 -0.2633
 2100TIP3    H130495   0.595   5.909  17.091  0.1752  0.8906 -0.0348
 2100TIP3    H230496   0.524   6.034  17.044 -0.7286  0.3497 -0.1130
 2101TIP3   OH230497   7.334   1.412  18.093  0.7592 -0.1855 -0.0273
 2101TIP3    H130498   7.265   1.376  18.036  1.5653  0.4962 -1.4981
 2101TIP3    H230499   7.397   1.341  18.102  0.6091 -0.3105  0.0306
 2102TIP3   OH230500   3.651   5.893  17.215  0.7196  0.4967  0.4304
 2102TIP3    H130501   3.714   5.965  17.213 -0.4254  1.4970 -0.6721
 2102TIP3    H230502   3.682   5.832  17.148  0.2921  1.1965 -0.4159
 2103TIP3   OH230503   1.629   4.681  16.232 -0.2084  0.5278  0.6074
 2103TIP3    H130504   1.692   4.616  16.200  1.2087  1.0589  2.2157
 2103TIP3    H230505   1.604   4.729  16.153 -0.6745 -1.3972 -0.4977
 2104TIP3   OH230506   6.987   4.630  16.415 -0.4552 -0.5293 -0.0656
 2104TIP3    H130507   6.942   4.687  16.477  1.2875 -1.0068  1.7561
 2104TIP3    H230508   7.077   4.664  16.412  0.3306 -2.4376  0.2143
 2105TIP3   OH230509   5.803   6.804  17.876  0.5483 -0.4453 -0.2625
 2105TIP3    H130510   5.744   6.845  17.813  0.6260 -1.2200 -0.8420
 2105TIP3    H230511   5.745   6.757  17.936  0.5146 -0.2713 -0.1573
 2106TIP3   OH230512   2.097   6.457  18.699 -0.7147  0.6430 -0.4145
 2106TIP3    H130513   2.127   6.536  18.743 -0.5300  0.4233 -0.1448
 2106TIP3    H230514   2.039   6.489  18.629  0.0463  1.0734 -0.8695
 2107TIP3   OH230515   2.982   2.937  17.593  0.5204  0.5772 -0.0963
 2107TIP3    H130516   2.894   2.912  17.620  0.8912  0.1785  0.7892
 2107TIP3    H230517   3.001   3.016  17.643  0.6015  0.7646 -0.4200
 2108TIP3   OH230518   5.322   6.977  17.323  0.2511 -0.3113 -0.5805
 2108TIP3    H130519   5.232   6.956  17.347  0.8855 -2.4950  0.1377
 2108TIP3    H230520   5.328   6.957  17.230 -0.5203  2.0017 -1.2128
 2109TIP3   OH230521   6.246   0.308  17.449 -0.1076  0.1255  0.0496
 2109TIP3    H130522   6.313   0.330  17.513  0.4982 -0.2704 -0.4304
 2109TIP3    H230523   6.258   0.214  17.432  0.7549  0.5086 -1.7461
 2110TIP3   OH230524   3.925   4.946  17.307  0.1649  0.0014  0.0428
 2110TIP3    H130525   4.003   4.995  17.285  0.2821 -0.5899 -0.9182
 2110TIP3    H230526   3.852   5.003  17.281  0.2961 -0.1608 -0.6954
 2111TIP3   OH230527   5.244   1.796  16.677 -0.0839  0.3317  0.1505
 2111TIP3    H130528   5.187   1.869  16.700 -1.1043  0.1060 -1.5269
 2111TIP3    H230529   5.268   1.811  16.586 -0.4706 -1.4985 -0.3055
 2112TIP3   OH230530   5.715   1.126  18.408 -0.2903 -0.2046  0.3308
 2112TIP3    H130531   5.758   1.185  18.471 -0.9340 -0.2640  0.8331
 2112TIP3    H230532   5.677   1.057  18.461  0.2106 -0.9414 -0.2376
 2113TIP3   OH230533   1.320   1.608  16.992  0.4563 -0.1456 -0.4147
 2113TIP3    H130534   1.306   1.562  16.910 -1.3039 -0.5357  0.0659
 2113TIP3    H230535   1.289   1.697  16.976  0.6928 -0.0515 -0.3538
 2114TIP3   OH230536   0.379   1.572  19.141  0.2283  0.3915 -0.1569
 2114TIP3    H130537   0.406   1.585  19.232 -0.7814  0.1203  0.1879
 2114TIP3    H230538   0.434   1.499  19.111  1.0806  0.9509 -0.0038
 2115TIP3   OH230539   3.482   4.884  17.185 -0.6270 -0.1538 -0.0904
 2115TIP3    H130540   3.428   4.914  17.112  0.8172  1.8211 -0.4464
 2115TIP3    H230541   3.471   4.951  17.252  1.2171  0.2484 -0.1373
 2116TIP3   OH230542   5.935   2.517  18.280 -0.2793  0.0330  0.1850
 2116TIP3    H130543   5.991   2.512  18.358 -0.7468  1.6891  0.6621
 2116TIP3    H230544   5.995   2.512  18.206  0.6226  2.4716  0.6883
 2117TIP3   OH230545   1.900   7.034  16.581  0.2054 -0.3780 -0.2664
 2117TIP3    H130546   1.992   7.029  16.608 -0.0297 -0.4043  0.5536
 2117TIP3    H230547   1.867   6.946  16.591 -0.9375  0.3210  3.2970
 2118TIP3   OH230548   4.727   2.124  16.765  0.2695 -0.5176  0.0747
 2118TIP3    H130549   4.818   2.142  16.745  0.3597 -1.7471 -0.7473
 2118TIP3    H230550   4.727   2.034  16.799 -0.4885 -0.1074  1.2367
 2119TIP3   OH230551   3.177   4.104  18.962 -0.0817 -0.2618  0.3980
 2119TIP3    H130552   3.229   4.176  18.928  0.6446 -0.3113  1.3632
 2119TIP3    H230553   3.174   4.040  18.891 -1.1548  0.8959 -0.6642
 2120TIP3   OH230554   5.341   3.180  16.927 -0.0887 -0.2560  0.0654
 2120TIP3    H130555   5.393   3.137  16.995  3.8281  2.2336 -1.0376
 2120TIP3    H230556   5.289   3.245  16.974 -1.9206 -2.3274  1.1203
 2121TIP3   OH230557   2.652   3.022  16.871 -0.2777 -0.8531  0.1253
 2121TIP3    H130558   2.608   2.956  16.923 -0.7340 -2.2656 -1.9504
 2121TIP3    H230559   2.647   2.990  16.781  1.7019  0.7819 -0.6544
 2122TIP3   OH230560   1.704   3.152  18.887  0.1319  0.1285 -0.1224
 2122TIP3    H130561   1.704   3.108  18.802 -0.1112  1.6480 -0.9418
 2122TIP3    H230562   1.797   3.170  18.904  0.0581  1.9699 -1.2858
 2123TIP3   OH230563   4.052   2.885  17.082 -1.3191 -0.2236  0.1007
 2123TIP3    H130564   4.113   2.915  17.015 -0.7899 -0.7232  0.3517
 2123TIP3    H230565   4.093   2.807  17.120 -0.7735  0.9856  2.1583
 2124TIP3   OH230566   3.419   3.651  17.442  0.0158  0.1030  0.4325
 2124TIP3    H130567   3.469   3.721  17.401 -1.0446  1.9153  2.0359
 2124TIP3    H230568   3.328   3.671  17.421 -0.5353  0.8214  3.0614
 2125TIP3   OH230569   7.222   4.126  18.182 -0.3613  0.5379  0.2282
 2125TIP3    H130570   7.204   4.191  18.114 -0.4880  1.6638  1.2948
 2125TIP3    H230571   7.316   4.110  18.174 -0.4304  0.4141 -0.4161
 2126TIP3   OH230572   6.267   2.423  17.494  0.7879 -0.2678 -0.0005
 2126TIP3    H130573   6.282   2.511  17.529  0.5024 -0.5546  0.8681
 2126TIP3    H230574   6.208   2.436  17.419 -0.5351  0.1419  1.0737
 2127TIP3   OH230575   0.741   0.419  16.238 -0.2561  0.2509 -0.4025
 2127TIP3    H130576   0.685   0.351  16.201  0.0019 -0.0493 -0.2496
 2127TIP3    H230577   0.804   0.438  16.168  0.1833 -0.2610 -0.1522
 2128TIP3   OH230578   4.242   3.882  18.951  0.2271 -0.4310  0.5308
 2128TIP3    H130579   4.226   3.905  19.043  0.7036  0.1221  0.4887
 2128TIP3    H230580   4.182   3.811  18.933 -1.3615  0.8248  0.6680
 2129TIP3   OH230581   3.281   2.419  16.705 -0.1531 -0.2033 -0.3463
 2129TIP3    H130582   3.261   2.508  16.734  0.6220 -0.0061 -0.4040
 2129TIP3    H230583   3.197   2.373  16.708  0.0055 -0.5078  3.2111
 2130TIP3   OH230584   5.846   1.831  17.886 -0.2285  0.3770 -0.3199
 2130TIP3    H130585   5.851   1.778  17.806  0.3561 -0.1754  0.0746
 2130TIP3    H230586   5.758   1.816  17.919  0.1889 -1.0216  0.2274
 2131TIP3   OH230587   5.687   7.423  16.360  0.2042  0.3580 -0.2189
 2131TIP3    H130588   5.677   7.428  16.265  0.5593 -1.9628 -0.4227
 2131TIP3    H230589   5.711   7.332  16.378  0.6027  0.8395  2.0671
 2132TIP3   OH230590   5.245   6.100  17.886 -0.2110  0.6074 -0.2739
 2132TIP3    H130591   5.251   6.028  17.949 -1.0994 -0.0623 -0.9342
 2132TIP3    H230592   5.241   6.179  17.940  0.6193  0.1643  0.4608
 2133TIP3   OH230593   2.063   0.043  18.937 -0.3610  0.0804 -0.4272
 2133TIP3    H130594   2.030   0.132  18.926  0.8169  0.5330 -0.4156
 2133TIP3    H230595   2.027  -0.005  18.862 -1.6937  0.3381  0.0216
 2134TIP3   OH230596   1.797   0.919  18.788 -0.6054  0.1419 -0.3908
 2134TIP3    H130597   1.832   0.831  18.798 -1.6183 -0.1699  0.6348
 2134TIP3    H230598   1.833   0.950  18.705  0.1898 -1.0259 -0.5051
 2135TIP3   OH230599   3.852   2.870  16.122  0.7932  0.1496  0.3491
 2135TIP3    H130600   3.828   2.779  16.139 -0.2142  0.6727  1.9959
 2135TIP3    H230601   3.769   2.914  16.101  1.2823  0.6807 -0.5672
 2136TIP3   OH230602   0.153   5.322  17.855 -0.5762 -0.1620 -0.2906
 2136TIP3    H130603   0.060   5.312  17.872 -0.3988  0.8604  1.5338
 2136TIP3    H230604   0.158   5.389  17.788 -1.1587 -0.0747 -0.2542
 2137TIP3   OH230605   1.212   1.923  19.041 -0.3462 -0.1469  0.2641
 2137TIP3    H130606   1.290   1.979  19.040 -0.4398  0.1367  2.4804
 2137TIP3    H230607   1.218   1.872  18.961  0.4669  2.0587 -1.1695
 2138TIP3   OH230608   5.188   0.429  16.828 -0.3055  0.0054  0.2802
 2138TIP3    H130609   5.163   0.513  16.867 -1.3590 -0.4503  0.6192
 2138TIP3    H230610   5.280   0.441  16.805 -0.2700  1.0561  0.8561
 2139TIP3   OH230611   0.627   0.703  17.738 -0.2627 -0.6523 -0.3768
 2139TIP3    H130612   0.543   0.662  17.760 -0.6377  0.3731  0.2210
 2139TIP3    H230613   0.642   0.766  17.809  2.9556 -3.4431  1.7018
 2140TIP3   OH230614   2.739   1.870  17.790 -0.1724  0.0896 -0.0544
 2140TIP3    H130615   2.644   1.869  17.784 -0.0872 -0.4809 -1.7881
 2140TIP3    H230616   2.759   1.949  17.839 -1.4787  1.1686 -1.1870
 2141TIP3   OH230617   5.544   6.200  18.352 -0.0753  0.2362  0.0877
 2141TIP3    H130618   5.482   6.132  18.377 -1.4759  1.5663  0.3419
 2141TIP3    H230619   5.609   6.200  18.422 -0.1100 -0.7551  0.1313
 2142TIP3   OH230620   1.964   6.218  18.012 -0.1569 -0.0151 -0.2654
 2142TIP3    H130621   1.941   6.179  17.927 -0.6444 -0.6206  0.1378
 2142TIP3    H230622   1.961   6.145  18.074  2.0486  0.0350 -0.0213
 2143TIP3   OH230623   3.656   1.590  16.505  0.4978  0.8205  0.0853
 2143TIP3    H130624   3.635   1.565  16.415 -0.6897 -1.0356  0.8268
 2143TIP3    H230625   3.749   1.568  16.515  0.5368  0.6668 -0.5770
 2144TIP3   OH230626   0.897   1.726  18.319 -0.5171  0.5522 -0.6276
 2144TIP3    H130627   0.815   1.694  18.280 -1.1328 -1.6303  2.1065
 2144TIP3    H230628   0.953   1.648  18.324  1.1686  1.6925 -1.0652
 2145TIP3   OH230629   1.919   6.637  15.850 -0.0890  0.6569 -1.3861
 2145TIP3    H130630   1.991   6.581  15.821 -0.1969  1.0596 -2.4840
 2145TIP3    H230631   1.950   6.726  15.834 -0.8899  0.8297 -2.0446
 2146TIP3   OH230632   6.261   4.871  17.736 -0.2832  0.3808  0.4372
 2146TIP3    H130633   6.310   4.914  17.806 -1.2718  0.1395  1.2928
 2146TIP3    H230634   6.315   4.883  17.658  1.2503 -0.0860  1.3932
 2147TIP3   OH230635   4.237   2.918  16.330 -0.4292 -0.3444 -0.1203
 2147TIP3    H130636   4.246   2.913  16.425 -0.6004  0.2915 -0.0658
 2147TIP3    H230637   4.154   2.875  16.311 -1.0517  0.6954  0.1592
 2148TIP3   OH230638   0.888   3.397  18.043  0.7111  0.2243  0.6800
 2148TIP3    H130639   0.888   3.469  18.106 -1.3947  0.9963 -0.0875
 2148TIP3    H230640   0.941   3.428  17.970  1.2675  0.2539  1.0899
 2149TIP3   OH230641   2.792   2.112  17.934  0.0022 -0.4399 -0.0188
 2149TIP3    H130642   2.775   2.071  18.019  1.4796 -1.4799 -0.1878
 2149TIP3    H230643   2.836   2.194  17.955  0.5449 -0.7897  0.2151
 2150TIP3   OH230644   0.736   0.122  16.410 -0.1014  0.3698 -0.2677
 2150TIP3    H130645   0.702   0.140  16.323  0.6423  2.2981 -0.1985
 2150TIP3    H230646   0.827   0.152  16.408 -0.0194  0.3051  1.1235
 2151TIP3   OH230647   0.004   0.164  16.562 -0.4785  0.6451 -0.2885
 2151TIP3    H130648   0.079   0.181  16.505 -1.9033 -0.3968 -2.6224
 2151TIP3    H230649  -0.066   0.219  16.526 -1.9246 -1.3918 -0.7760
 2152TIP3   OH230650   1.692   2.033  18.556  0.1998  0.6581  0.0870
 2152TIP3    H130651   1.775   2.064  18.520  1.3744 -1.1172  1.1435
 2152TIP3    H230652   1.683   1.943  18.524 -0.8633  0.5015  0.7536
 2153TIP3   OH230653   5.366   7.371  16.165  0.3515  0.3899 -0.2031
 2153TIP3    H130654   5.457   7.378  16.191  0.9577  1.5031 -2.4039
 2153TIP3    H230655   5.357   7.282  16.130 -0.6604 -1.4173  3.9861
 2154TIP3   OH230656   0.295   2.578  16.632 -1.1772  0.7165  0.1625
 2154TIP3    H130657   0.299   2.567  16.727 -0.9616  0.9517  0.1825
 2154TIP3    H230658   0.370   2.633  16.612  0.4355 -1.5662 -0.4746
 2155TIP3   OH230659   0.709   5.304  17.486  0.2386 -0.1460 -0.1894
 2155TIP3    H130660   0.796   5.265  17.477  0.0612 -0.5003 -0.3722
 2155TIP3    H230661   0.723   5.382  17.540  0.6032 -0.4233  0.1170
 2156TIP3   OH230662   6.676   2.176  17.614  0.0267 -0.1503  0.4022
 2156TIP3    H130663   6.698   2.108  17.677  1.0566  1.9385  2.4206
 2156TIP3    H230664   6.581   2.167  17.602  0.1406 -1.9699  0.4803
 2157TIP3   OH230665   1.728   5.052  18.083  0.5511 -0.2332  0.4543
 2157TIP3    H130666   1.703   5.142  18.107  0.9650 -0.3796  1.4875
 2157TIP3    H230667   1.801   5.064  18.022 -0.1681  0.1417 -0.3613
 2158TIP3   OH230668   6.986   6.198  16.105  0.5542  0.0946 -0.4536
 2158TIP3    H130669   6.938   6.252  16.041  0.5017  0.1142 -0.3965
 2158TIP3    H230670   7.074   6.237  16.108  0.3314  0.5701  0.0610
 2159TIP3   OH230671   5.836   1.165  18.863 -1.2406  0.0662  0.0980
 2159TIP3    H130672   5.742   1.181  18.854 -1.3996 -1.5227 -1.8196
 2159TIP3    H230673   5.852   1.088  18.809  1.3926  1.0306 -0.6374
 2160TIP3   OH230674   0.963   3.463  18.693  0.1183  0.2283 -0.1863
 2160TIP3    H130675   1.057   3.471  18.678  0.1352  0.3353 -0.0218
 2160TIP3    H230676   0.931   3.554  18.691  0.1689  0.2750  0.7464
 2161TIP3   OH230677   0.008   5.543  16.578 -0.0557 -0.0210  0.1932
 2161TIP3    H130678   0.039   5.613  16.520 -0.5610 -0.1077 -0.1931
 2161TIP3    H230679   0.086   5.491  16.598  0.2079  0.2911 -0.0266
 2162TIP3   OH230680   5.139   3.980  18.501 -0.3080 -0.6341  0.3217
 2162TIP3    H130681   5.152   4.071  18.525 -0.8336 -0.2812 -0.6823
 2162TIP3    H230682   5.223   3.954  18.461 -0.2600 -0.4964  0.3323
 2163TIP3   OH230683   5.833   0.579  17.384  0.2131  0.0450  0.1274
 2163TIP3    H130684   5.901   0.513  17.371  0.0959 -0.2148  0.7798
 2163TIP3    H230685   5.875   0.662  17.362  1.1522  0.0376  1.7859
 2164TIP3   OH230686   1.019   3.087  17.156 -0.0668  0.8180  0.4078
 2164TIP3    H130687   0.975   3.113  17.238 -0.4065 -0.4700  0.6507
 2164TIP3    H230688   1.108   3.121  17.165  0.2931 -0.3877  1.9003
 2165TIP3   OH230689   0.070   3.601  18.011 -0.6411 -0.5489  0.0473
 2165TIP3    H130690   0.037   3.579  17.923  1.2624 -0.5241 -0.7200
 2165TIP3    H230691   0.158   3.564  18.013  0.8027  2.6023  0.5669
 2166TIP3   OH230692   6.016   2.261  17.998 -0.3136 -0.4051  0.6658
 2166TIP3    H130693   6.043   2.211  18.075 -0.8410 -1.7270  0.0249
 2166TIP3    H230694   5.921   2.258  18.000 -0.3358 -0.1148  0.1690
 2167TIP3   OH230695   0.093   6.726  18.129 -0.0637 -0.2894  0.4880
 2167TIP3    H130696   0.102   6.664  18.202 -0.0594 -0.7361  0.1151
 2167TIP3    H230697   0.156   6.796  18.148  0.3477 -0.6913  0.6277
 2168TIP3   OH230698   2.452   3.869  18.452 -0.6002  0.0818 -0.2882
 2168TIP3    H130699   2.490   3.951  18.421 -0.3341  0.6666  1.4854
 2168TIP3    H230700   2.476   3.864  18.544 -3.3247 -0.3932  0.5005
 2169TIP3   OH230701   0.467   0.503  16.960  0.3258 -0.3439 -0.9001
 2169TIP3    H130702   0.408   0.578  16.969 -0.6847 -1.1670 -0.5248
 2169TIP3    H230703   0.437   0.457  16.882  1.8683  0.4140 -2.0006
 2170TIP3   OH230704   0.648   1.957  18.186  0.8625 -0.0932 -0.3710
 2170TIP3    H130705   0.637   2.041  18.142  0.7149  0.7749  1.2515
 2170TIP3    H230706   0.688   1.978  18.270  3.4408 -1.9545 -1.0069
 2171TIP3   OH230707   6.052   7.026  18.322 -0.5751  0.0811 -0.4173
 2171TIP3    H130708   5.988   7.050  18.388 -0.8951 -1.0690 -0.2813
 2171TIP3    H230709   6.028   6.937  18.297  2.7798 -1.7379  1.9419
 2172TIP3   OH230710   6.706   2.031  17.204 -0.2285  0.3633 -0.0385
 2172TIP3    H130711   6.637   2.092  17.233 -1.6384 -0.6637 -1.0698
 2172TIP3    H230712   6.763   2.084  17.149  0.0321  1.3220  1.1040
 2173TIP3   OH230713   2.074   5.915  15.923  0.4767  0.0608  0.0398
 2173TIP3    H130714   2.089   6.009  15.934 -0.7322  0.1844  0.9036
 2173TIP3    H230715   1.990   5.899  15.967  0.1602 -1.2456 -0.9617
 2174TIP3   OH230716   6.134   3.472  18.128 -0.0695 -0.1349  0.0401
 2174TIP3    H130717   6.108   3.385  18.158  1.7542 -0.6700  0.1864
 2174TIP3    H230718   6.108   3.530  18.199 -0.8741 -0.5950  0.1455
 2175TIP3   OH230719   5.395   6.458  18.044  0.1853 -0.4079  0.4846
 2175TIP3    H130720   5.448   6.380  18.026 -0.9287 -0.7572 -1.6095
 2175TIP3    H230721   5.387   6.459  18.140  0.7097 -2.5351  0.6232
 2176TIP3   OH230722   4.128   4.200  16.645  0.1497  0.2192 -0.2663
 2176TIP3    H130723   4.159   4.242  16.725  1.5692 -0.0083 -0.6567
 2176TIP3    H230724   4.153   4.260  16.575 -1.0517  0.4015 -0.5581
 2177TIP3   OH230725   6.967   3.678  18.847 -0.4229  0.0372  0.3790
 2177TIP3    H130726   6.973   3.634  18.931  0.7367 -1.4090 -0.4111
 2177TIP3    H230727   7.025   3.628  18.789  0.0357  1.9061 -0.8862
 2178TIP3   OH230728   4.308   5.032  18.186  0.5614 -0.3005  0.0622
 2178TIP3    H130729   4.216   5.036  18.163  0.5626  0.3366  0.1558
 2178TIP3    H230730   4.315   4.959  18.248  0.5054 -1.8652 -1.6576
 2179TIP3   OH230731   3.332   4.610  17.211 -0.4572 -0.1513 -0.2725
 2179TIP3    H130732   3.308   4.636  17.300 -0.0639  2.2562 -0.8017
 2179TIP3    H230733   3.278   4.532  17.194  0.2422 -1.3654  2.4016
 2180TIP3   OH230734   5.598   1.492  18.076  0.1432 -0.1258  0.0667
 2180TIP3    H130735   5.686   1.480  18.114  0.4419 -2.0294 -1.0987
 2180TIP3    H230736   5.544   1.426  18.120 -0.1823 -0.4162 -0.7535
 2181TIP3   OH230737   3.334   4.210  17.677 -0.5480  0.3991 -0.1497
 2181TIP3    H130738   3.380   4.154  17.614 -0.9241 -0.9900  0.7730
 2181TIP3    H230739   3.364   4.298  17.656  0.3904 -0.1721 -1.3788
 2182TIP3   OH230740   5.288   0.563  18.056 -0.1950  0.0031 -0.2247
 2182TIP3    H130741   5.276   0.632  17.991  1.3011 -0.3312 -0.9185
 2182TIP3    H230742   5.380   0.536  18.044  0.4063  0.5282  2.6120
 2183TIP3   OH230743   1.115   2.552  17.155 -0.0946 -0.4915  0.0665
 2183TIP3    H130744   1.167   2.622  17.196 -0.9514 -0.3779  1.0053
 2183TIP3    H230745   1.061   2.517  17.227 -1.8840 -0.0930 -1.0238
 2184TIP3   OH230746   3.220   4.281  18.500  0.1327  0.2065  0.1779
 2184TIP3    H130747   3.229   4.292  18.406 -1.5955  2.0608  0.1510
 2184TIP3    H230748   3.307   4.258  18.531  0.1574 -3.9207 -2.2025
 2185TIP3   OH230749   6.682   6.003  17.769 -0.1420  0.2103  0.5240
 2185TIP3    H130750   6.621   6.057  17.820 -0.4465 -0.6805  1.1136
 2185TIP3    H230751   6.672   5.915  17.804  0.4675 -0.2145 -0.3251
 2186TIP3   OH230752   0.376   1.097  17.374 -0.0827  0.4073  0.2958
 2186TIP3    H130753   0.297   1.115  17.324 -0.3381 -1.3952 -0.0434
 2186TIP3    H230754   0.345   1.085  17.464  0.1986  2.3554  0.6791
 2187TIP3   OH230755   4.904   4.869  17.488  1.0796 -0.1223  0.1954
 2187TIP3    H130756   4.962   4.925  17.540  0.7744  1.0852 -0.7145
 2187TIP3    H230757   4.883   4.796  17.545  2.6905 -0.0676  0.8996
 2188TIP3   OH230758   0.322   1.481  17.066  0.0252 -0.1589 -0.2374
 2188TIP3    H130759   0.369   1.400  17.050 -1.9043 -1.0818 -1.7013
 2188TIP3    H230760   0.313   1.522  16.980 -1.1772  0.3322  0.0930
 2189TIP3   OH230761   1.315   7.332  18.825 -0.4603 -0.0032 -0.2906
 2189TIP3    H130762   1.365   7.250  18.834  1.1448  0.9510 -0.0316
 2189TIP3    H230763   1.323   7.355  18.733 -0.2810  0.2234 -0.2204
 2190TIP3   OH230764   0.416   5.645  18.675  0.2476 -0.2303  0.5724
 2190TIP3    H130765   0.324   5.619  18.682  0.4929 -1.1906  0.4260
 2190TIP3    H230766   0.413   5.734  18.641 -0.6480  0.2003  1.7270
 2191TIP3   OH230767   2.004   4.376  18.969  0.2399  0.5875 -0.1384
 2191TIP3    H130768   1.959   4.369  18.885 -0.5977  2.7095  0.0806
 2191TIP3    H230769   1.965   4.307  19.023 -0.1555  0.0700 -1.0664
 2192TIP3   OH230770   6.607   1.379  17.515  0.2336 -0.0268  0.6653
 2192TIP3    H130771   6.545   1.403  17.584  0.2487 -1.4101  1.1821
 2192TIP3    H230772   6.690   1.418  17.542  0.0504  0.1382  0.9921
 2193TIP3   OH230773   1.271   5.710  18.144 -0.0162  0.1617 -0.0842
 2193TIP3    H130774   1.190   5.740  18.186 -1.7071 -0.5472 -2.6558
 2193TIP3    H230775   1.281   5.767  18.069  0.1339 -1.6865 -1.5346
 2194TIP3   OH230776   6.681   3.097  17.487  0.3596 -0.0786 -0.7194
 2194TIP3    H130777   6.690   3.088  17.392 -1.6978  2.7994 -1.3168
 2194TIP3    H230778   6.751   3.158  17.512  1.1709 -1.1620 -0.2510
 2195TIP3   OH230779   6.918   0.185  15.830  0.7340 -0.7894 -0.2301
 2195TIP3    H130780   6.843   0.135  15.799 -0.4286  0.6818  0.0912
 2195TIP3    H230781   6.889   0.224  15.912  0.9345  1.8281 -1.3060
 2196TIP3   OH230782   0.076   6.459  17.211 -0.0273 -0.2908 -0.3346
 2196TIP3    H130783   0.071   6.553  17.193  2.1448 -0.1021 -0.2739
 2196TIP3    H230784   0.064   6.452  17.306 -1.3741 -0.2268 -0.4839
 2197TIP3   OH230785   5.670   6.899  16.448  0.8972  0.3245  0.1288
 2197TIP3    H130786   5.648   6.979  16.496  0.5270  0.1296  0.2851
 2197TIP3    H230787   5.760   6.913  16.420  0.3626  1.4517 -1.1474
 2198TIP3   OH230788   1.483   1.355  17.666 -0.4289  0.0060  0.7665
 2198TIP3    H130789   1.491   1.285  17.731  0.6840  0.7039  1.4276
 2198TIP3    H230790   1.432   1.316  17.594 -0.8694 -1.0823  1.6358
 2199TIP3   OH230791   0.413   6.562  18.302 -0.0059  0.1222  0.5179
 2199TIP3    H130792   0.320   6.570  18.322  0.5752  1.5273  3.0646
 2199TIP3    H230793   0.446   6.651  18.303  1.5178 -0.4136  0.4937
 2200TIP3   OH230794   2.126   1.852  17.965 -0.2960  0.3180  0.2954
 2200TIP3    H130795   2.194   1.806  17.917 -0.7462 -0.2594  0.1947
 2200TIP3    H230796   2.082   1.783  18.016 -1.6149  0.4623 -0.5970
 2201TIP3   OH230797   6.080   1.064  17.684  0.0628  0.0219 -0.5171
 2201TIP3    H130798   6.061   1.010  17.761  0.4086  0.0722 -0.3976
 2201TIP3    H230799   6.072   1.154  17.716 -1.5015  0.0750 -0.9448
 2202TIP3   OH230800   4.993   2.231  18.324 -0.0394  0.6632  0.1549
 2202TIP3    H130801   4.948   2.276  18.396 -0.6027  0.0659  0.1844
 2202TIP3    H230802   5.011   2.300  18.261 -0.9278  0.9402  0.1842
 2203TIP3   OH230803   6.579   1.118  18.370  0.1939 -0.5554  0.6647
 2203TIP3    H130804   6.543   1.188  18.315 -0.3102 -1.1738  0.1818
 2203TIP3    H230805   6.557   1.143  18.459 -2.0667 -1.2152  0.3551
 2204TIP3   OH230806   5.442   7.256  17.287  0.7135  0.0232  0.7870
 2204TIP3    H130807   5.465   7.265  17.379  0.0944 -0.2197  0.9728
 2204TIP3    H230808   5.415   7.165  17.278 -1.5939  0.6504  0.9161
 2205TIP3   OH230809   1.441   4.704  18.258 -0.6843  0.5517  0.1926
 2205TIP3    H130810   1.454   4.797  18.243 -1.3473  0.6473  0.2042
 2205TIP3    H230811   1.495   4.661  18.191 -1.2835  0.9533 -0.5593
 2206TIP3   OH230812   4.136   7.298  18.618  0.0504  0.3614  0.3912
 2206TIP3    H130813   4.224   7.269  18.640 -0.1917  0.2176  1.2329
 2206TIP3    H230814   4.147   7.353  18.540  0.5770 -1.4774 -0.8774
 2207TIP3   OH230815   2.212   7.285  18.727  0.1777  0.5477  0.5820
 2207TIP3    H130816   2.240   7.205  18.770  2.7918  0.6891 -0.6502
 2207TIP3    H230817   2.257   7.355  18.775  0.6257  0.9597 -0.4183
 2208TIP3   OH230818   4.754   4.334  18.711  0.3460  0.2009 -0.2736
 2208TIP3    H130819   4.789   4.338  18.800  2.6327 -0.5804 -1.0718
 2208TIP3    H230820   4.805   4.398  18.661  0.3904 -0.6907 -1.4156
 2209TIP3   OH230821   4.456   3.101  15.811  0.1554  0.3455 -0.9956
 2209TIP3    H130822   4.437   3.194  15.796 -1.4972  0.2343  0.1500
 2209TIP3    H230823   4.548   3.091  15.787  1.4039  3.0229  1.9172
 2210TIP3   OH230824   5.271   1.851  18.150  0.2578 -0.3594  0.3440
 2210TIP3    H130825   5.268   1.767  18.103 -2.6152 -0.4100  0.4678
 2210TIP3    H230826   5.314   1.830  18.233  2.8605 -0.8581 -0.9962
 2211TIP3   OH230827   6.402   7.173  18.709  0.0558 -0.3012 -0.0357
 2211TIP3    H130828   6.485   7.155  18.753 -0.6603  0.4137  1.7060
 2211TIP3    H230829   6.420   7.249  18.653  0.6189 -0.2516  0.2108
 2212TIP3   OH230830   6.641   6.796  18.793 -0.1016 -0.1749  0.4006
 2212TIP3    H130831   6.665   6.768  18.705 -0.5399  1.0467 -0.1245
 2212TIP3    H230832   6.582   6.727  18.825  0.2957 -0.7670 -0.1423
 2213TIP3   OH230833   1.384   0.519  18.818  0.0873 -0.1030  0.1224
 2213TIP3    H130834   1.415   0.609  18.826  0.4329 -0.3145  1.4821
 2213TIP3    H230835   1.330   0.505  18.897  0.9173 -1.4012  0.4969
 2214TIP3   OH230836   2.987   6.715  17.838 -0.4008 -0.5673 -0.0627
 2214TIP3    H130837   2.940   6.773  17.779 -3.5940 -0.0274  2.7108
 2214TIP3    H230838   2.983   6.758  17.923  1.3936 -2.6290  1.1785
 2215TIP3   OH230839   2.471   0.508  18.023 -0.6563  0.3558  0.6846
 2215TIP3    H130840   2.528   0.449  17.975 -2.3278 -0.3263 -0.5713
 2215TIP3    H230841   2.497   0.498  18.114  0.3731 -0.8714  0.2854
 2216TIP3   OH230842   6.325   4.050  18.610  0.3777  0.1895  0.1687
 2216TIP3    H130843   6.347   4.113  18.541  1.4937  0.3123  0.6311
 2216TIP3    H230844   6.407   4.005  18.629  0.0194 -0.0232  1.2519
 2217TIP3   OH230845   4.176   5.636  16.835  0.5824 -0.0210  0.4520
 2217TIP3    H130846   4.253   5.635  16.778  0.5321 -0.5675  0.3826
 2217TIP3    H230847   4.176   5.549  16.876 -0.1714 -0.1412  0.2078
 2218TIP3   OH230848   4.130   7.062  17.704 -0.4664 -0.3342  0.3153
 2218TIP3    H130849   4.050   7.014  17.724  0.1030 -0.9900  1.0873
 2218TIP3    H230850   4.177   7.066  17.787  0.0918  0.4444 -0.0271
 2219TIP3   OH230851   6.016   5.780  16.680 -0.0916 -0.1962  0.0761
 2219TIP3    H130852   6.034   5.712  16.746  1.4713 -0.8669 -0.9742
 2219TIP3    H230853   6.085   5.845  16.694 -0.0431 -0.1040 -0.5553
 2220TIP3   OH230854   3.445   1.811  18.872  0.2013 -0.1599 -0.8541
 2220TIP3    H130855   3.443   1.846  18.783  1.0349  1.8184 -0.1491
 2220TIP3    H230856   3.536   1.785  18.885  0.3941  0.8339 -0.1391
 2221TIP3   OH230857   1.760   0.978  15.970 -0.2970 -0.7073  0.1242
 2221TIP3    H130858   1.694   0.919  15.932 -0.1204 -1.2391  0.6344
 2221TIP3    H230859   1.713   1.060  15.985 -0.4184 -0.5316 -1.0691
 2222TIP3   OH230860   3.145   5.102  15.958  0.0322  0.3513 -0.0895
 2222TIP3    H130861   3.213   5.062  16.012  0.0681 -0.0458 -0.4295
 2222TIP3    H230862   3.077   5.035  15.951  0.3481  0.1222 -1.1381
 2223TIP3   OH230863   2.786   4.772  17.471 -0.2094 -0.1576 -0.1712
 2223TIP3    H130864   2.846   4.716  17.520 -0.4003  1.6500  2.3473
 2223TIP3    H230865   2.729   4.810  17.538 -0.6279  2.3511 -1.8160
 2224TIP3   OH230866   7.213   2.470  17.145 -0.5701  0.4061 -0.6308
 2224TIP3    H130867   7.262   2.417  17.208  1.0413  2.2351 -0.2376
 2224TIP3    H230868   7.205   2.415  17.068 -1.6835 -1.5151  0.7656
 2225TIP3   OH230869   3.654   3.859  17.738 -0.4368  0.2800  0.1360
 2225TIP3    H130870   3.559   3.858  17.740 -0.4458  0.7680  0.1718
 2225TIP3    H230871   3.677   3.952  17.736  0.0478  0.1816  0.6736
 2226TIP3   OH230872   0.059   2.226  18.912 -0.1391 -0.4683 -0.2058
 2226TIP3    H130873   0.100   2.294  18.859  1.6398 -0.9873  0.4282
 2226TIP3    H230874   0.086   2.144  18.871  0.6263 -0.8587  1.0192
 2227TIP3   OH230875   3.353   0.353  16.110 -0.1927  0.0411  0.5226
 2227TIP3    H130876   3.286   0.302  16.064 -0.2014  0.7966 -0.3408
 2227TIP3    H230877   3.311   0.437  16.128  0.4559  0.4624  0.1156
 2228TIP3   OH230878   2.347   1.343  16.711  0.2989 -0.1466 -0.1163
 2228TIP3    H130879   2.251   1.349  16.705  0.1411 -1.8572  0.1221
 2228TIP3    H230880   2.373   1.421  16.759 -0.9565  0.4551 -0.3707
 2229TIP3   OH230881   2.790   4.432  17.493 -0.9148 -0.0838  0.0060
 2229TIP3    H130882   2.839   4.396  17.566 -1.2579  0.6820  0.6382
 2229TIP3    H230883   2.839   4.407  17.415  0.8784  1.2465  0.6486
 2230TIP3   OH230884   5.435   5.530  16.238 -0.1475  0.1359  0.0082
 2230TIP3    H130885   5.507   5.508  16.179 -0.2209  2.1750 -0.9592
 2230TIP3    H230886   5.365   5.559  16.179 -0.3973  1.7871  1.0515
 2231TIP3   OH230887   1.591   0.868  17.999 -0.1011 -0.4688 -0.4915
 2231TIP3    H130888   1.589   0.893  17.907 -0.1940 -0.7167 -0.5559
 2231TIP3    H230889   1.667   0.915  18.035 -0.0176 -0.4371 -0.7096
 2232TIP3   OH230890   1.739   6.337  18.121 -0.0362 -0.0184 -0.0189
 2232TIP3    H130891   1.805   6.296  18.065  0.4392  1.4348 -0.5685
 2232TIP3    H230892   1.671   6.270  18.130  0.3336 -0.6403 -1.5365
 2233TIP3   OH230893   6.289   5.531  16.299 -0.0396 -0.2614 -0.4655
 2233TIP3    H130894   6.212   5.506  16.248  0.5304 -1.4426 -0.7588
 2233TIP3    H230895   6.364   5.511  16.243  0.5180  0.2595  0.0753
 2234TIP3   OH230896   6.576   3.892  18.691  0.4788  0.2225 -0.4330
 2234TIP3    H130897   6.535   3.844  18.619 -0.2036 -0.1586  0.2062
 2234TIP3    H230898   6.613   3.825  18.747 -1.1469  0.3457  0.8702
 2235TIP3   OH230899   2.204   2.961  18.615  0.0074  0.2116 -0.2779
 2235TIP3    H130900   2.195   3.055  18.605  0.2880  0.0654 -2.4332
 2235TIP3    H230901   2.191   2.926  18.527  1.3410 -1.6403  0.1829
 2236TIP3   OH230902   4.816   6.828  17.161 -0.1016 -0.1449  0.1412
 2236TIP3    H130903   4.775   6.747  17.133  0.3608 -0.2975 -0.1119
 2236TIP3    H230904   4.908   6.818  17.136 -0.2595  0.9479 -1.0270
 2237TIP3   OH230905   3.349   5.283  18.428 -0.2199  0.8856 -0.0246
 2237TIP3    H130906   3.300   5.265  18.348 -0.2899 -0.0630  0.2107
 2237TIP3    H230907   3.328   5.373  18.450  0.5245  1.4717 -1.5661
 2238TIP3   OH230908   0.378   5.199  17.955  0.3806 -0.3051 -0.1975
 2238TIP3    H130909   0.375   5.206  18.050  1.6219  0.3418 -0.1845
 2238TIP3    H230910   0.291   5.228  17.926  0.6606  1.5574  0.6535
 2239TIP3   OH230911   0.608   0.453  18.566 -0.1237 -0.6223  0.2281
 2239TIP3    H130912   0.698   0.446  18.599  0.2422 -2.1108 -0.9991
 2239TIP3    H230913   0.593   0.547  18.557  2.0715 -0.3796 -1.5339
 2240TIP3   OH230914   6.621   1.692  17.794  0.0238  0.5482  0.4348
 2240TIP3    H130915   6.581   1.614  17.755  0.3352 -0.3841  1.9061
 2240TIP3    H230916   6.641   1.748  17.719 -1.7627 -0.0171 -0.5405
 2241TIP3   OH230917   0.233   6.727  17.657  0.7104 -0.0614  0.1073
 2241TIP3    H130918   0.182   6.792  17.706 -0.9211 -0.5257 -0.9067
 2241TIP3    H230919   0.209   6.644  17.696  0.3196 -0.3244 -0.6663
 2242TIP3   OH230920   4.559   6.710  16.037 -1.2535 -0.0489  0.6153
 2242TIP3    H130921   4.536   6.697  15.945 -0.8429  0.6176  0.4069
 2242TIP3    H230922   4.523   6.797  16.058  0.5358  0.7705  0.4395
 2243TIP3   OH230923   0.600   5.797  17.611 -0.1541 -0.0008  0.0187
 2243TIP3    H130924   0.617   5.729  17.545 -2.5808 -1.4710  0.7660
 2243TIP3    H230925   0.596   5.879  17.561 -2.2128 -1.1036 -1.8058
 2244TIP3   OH230926   6.356   6.893  17.990 -0.0329  0.0273 -0.1502
 2244TIP3    H130927   6.373   6.938  17.907 -0.7346 -1.8701 -1.3992
 2244TIP3    H230928   6.265   6.863  17.982 -0.6916  1.2528  2.0625
 2245TIP3   OH230929   7.292   2.915  18.931  0.0477 -0.3261  0.3027
 2245TIP3    H130930   7.289   2.824  18.962 -2.1703  0.2754  2.1569
 2245TIP3    H230931   7.369   2.952  18.973  0.9043 -1.3047 -0.3766
 2246TIP3   OH230932   0.867   3.037  18.905 -0.3251 -0.2330  0.3749
 2246TIP3    H130933   0.867   3.131  18.888 -2.2220 -0.5018 -1.5344
 2246TIP3    H230934   0.959   3.011  18.899  0.3379  1.5860  1.7657
 2247TIP3   OH230935   3.253   5.731  18.756  0.5875  0.6653  0.1636
 2247TIP3    H130936   3.247   5.803  18.694  1.6072  1.6779  1.2029
 2247TIP3    H230937   3.162   5.710  18.777  0.0423 -1.2263 -3.2958
 2248TIP3   OH230938   5.745   6.225  17.516  0.0370  0.3630  0.3011
 2248TIP3    H130939   5.721   6.278  17.440  0.4325  0.4490  0.2337
 2248TIP3    H230940   5.841   6.225  17.516  0.0930 -1.8323 -0.7502
 2249TIP3   OH230941   0.684   7.330  18.316  0.3974 -0.5669 -0.7659
 2249TIP3    H130942   0.774   7.300  18.299  0.2435 -0.9137 -0.9931
 2249TIP3    H230943   0.652   7.359  18.230  0.1020 -0.9810 -0.8012
 2250TIP3   OH230944   0.928   5.722  17.643  0.3929 -0.1145 -0.4314
 2250TIP3    H130945   0.968   5.779  17.709  2.4101 -1.5098 -0.3658
 2250TIP3    H230946   0.962   5.754  17.560  0.1336 -0.1689 -0.5605
 2251TIP3   OH230947   5.591   3.314  17.987 -0.1100  0.3023 -0.0543
 2251TIP3    H130948   5.658   3.353  18.043 -0.0014  0.1989 -0.1108
 2251TIP3    H230949   5.637   3.244  17.941  0.3971  1.7551 -1.9098
 2252TIP3   OH230950   0.361   7.472  18.567  0.5445  0.2615  0.5070
 2252TIP3    H130951   0.385   7.400  18.625  2.9877  1.2648  0.8569
 2252TIP3    H230952   0.410   7.547  18.601  1.5188  1.0545 -2.3715
 2253TIP3   OH230953   1.056   0.154  17.128 -0.6325  0.1537 -0.1514
 2253TIP3    H130954   1.080   0.178  17.038  0.3562  0.9148  0.2989
 2253TIP3    H230955   0.981   0.096  17.117 -1.4841  1.4174 -1.4017
 2254TIP3   OH230956   5.339   7.286  18.670  0.2625 -0.1356 -0.2299
 2254TIP3    H130957   5.366   7.291  18.762  1.5126 -0.1678 -0.5765
 2254TIP3    H230958   5.282   7.361  18.657  3.1061  2.1712 -0.3770
 2255TIP3   OH230959   6.971   7.021  17.837 -0.7541  0.0146  0.0220
 2255TIP3    H130960   7.011   6.953  17.891  0.0733  0.0637 -0.5039
 2255TIP3    H230961   6.920   7.074  17.897 -0.1365 -0.1438  0.6968
 2256TIP3   OH230962   6.254   0.808  18.740 -0.2727 -0.2362  0.1294
 2256TIP3    H130963   6.331   0.861  18.761 -1.6619  1.2342  1.8602
 2256TIP3    H230964   6.259   0.735  18.801  0.6133 -1.0997 -0.9346
 2257TIP3   OH230965   2.354   4.029  18.932  0.1259  0.1437 -0.3653
 2257TIP3    H130966   2.369   4.086  19.008  0.8902 -0.1671 -0.2687
 2257TIP3    H230967   2.340   3.942  18.969  1.7735 -0.2588 -0.5985
 2258TIP3   OH230968   4.338   4.313  18.506  0.3354 -0.6131 -0.5019
 2258TIP3    H130969   4.354   4.248  18.574 -0.2447  0.4313  0.6641
 2258TIP3    H230970   4.422   4.324  18.462  0.1762 -3.0113 -1.5251
 2259TIP3   OH230971   1.007   3.794  17.111 -0.0582  0.6187 -0.1947
 2259TIP3    H130972   0.958   3.856  17.166 -1.5301 -0.6073 -0.0685
 2259TIP3    H230973   0.941   3.752  17.057  0.7042 -1.7730  0.6208
 2260TIP3   OH230974   3.087   7.067  16.784  0.0244  0.0588  0.7701
 2260TIP3    H130975   3.060   7.137  16.843  1.0827  0.1044  1.2182
 2260TIP3    H230976   3.117   6.996  16.841 -2.5532 -1.4665  0.3894
 2261TIP3   OH230977   3.543   6.238  16.550  0.0264 -0.2720 -0.4529
 2261TIP3    H130978   3.557   6.315  16.604  0.1463 -0.8556  0.3647
 2261TIP3    H230979   3.465   6.259  16.499  0.3189  0.5620 -0.5680
 2262TIP3   OH230980   1.600   1.384  18.152 -0.4089  0.0659  0.0710
 2262TIP3    H130981   1.521   1.333  18.170 -0.1198 -0.3060  0.3140
 2262TIP3    H230982   1.627   1.418  18.237 -0.4871  0.4624 -0.0599
 2263TIP3   OH230983   2.252   0.264  18.705 -0.2877 -0.8241 -0.1122
 2263TIP3    H130984   2.164   0.265  18.667 -0.8835 -0.7296  1.2235
 2263TIP3    H230985   2.253   0.337  18.766  0.7536 -0.7910 -0.1436
 2264TIP3   OH230986   0.851   7.075  18.271  0.0124 -0.4033  0.2814
 2264TIP3    H130987   0.826   6.999  18.324 -1.9886  0.6021  0.8514
 2264TIP3    H230988   0.888   7.137  18.333  0.5994 -0.4540 -0.0101
 2265TIP3   OH230989   3.377   0.317  16.867 -0.2183  0.0826  0.7134
 2265TIP3    H130990   3.330   0.256  16.809  0.3836  0.6775 -0.4463
 2265TIP3    H230991   3.326   0.318  16.947 -0.5055 -1.6018  0.5993
 2266TIP3   OH230992   4.726   5.453  16.672  0.5280  0.6796 -0.4292
 2266TIP3    H130993   4.668   5.517  16.714  0.8718  0.4005  0.5094
 2266TIP3    H230994   4.667   5.396  16.622 -0.0105  0.4463  0.4479
 2267TIP3   OH230995   6.248   5.965  17.571 -0.0405 -0.0174  0.4431
 2267TIP3    H130996   6.330   6.000  17.537  1.2268 -1.7279  1.5963
 2267TIP3    H230997   6.256   5.972  17.666  1.1057 -4.7261  0.9609
 2268TIP3   OH230998   1.153   0.440  18.684  0.4294  0.1546 -0.5398
 2268TIP3    H130999   1.245   0.466  18.693  0.5582 -0.5420  0.2310
 2268TIP3    H231000   1.104   0.518  18.711  0.8181 -0.3640  1.9972
 2269TIP3   OH231001   1.248   6.719  18.776 -0.2660 -0.4372 -0.1843
 2269TIP3    H131002   1.312   6.768  18.723 -0.2138 -1.7238 -1.3749
 2269TIP3    H231003   1.193   6.787  18.816  0.3853  0.6201 -1.0188
 2270TIP3   OH231004   5.189   0.713  18.267  0.3628 -0.5300  0.5106
 2270TIP3    H131005   5.246   0.688  18.339  0.1605 -1.5810  0.3177
 2270TIP3    H231006   5.214   0.656  18.195  0.4838  0.4345 -0.2262
 2271TIP3   OH231007   3.523   2.614  16.617  0.2906 -0.1034 -0.5215
 2271TIP3    H131008   3.500   2.535  16.568 -1.4676  0.6946 -1.0605
 2271TIP3    H231009   3.509   2.686  16.555  0.0421  0.7754  0.5144
 2272TIP3   OH231010   0.924   4.302  18.997 -0.3053 -0.1998  0.1783
 2272TIP3    H131011   0.932   4.315  19.091  1.3498  1.8873 -0.1690
 2272TIP3    H231012   0.982   4.228  18.978  0.1153  0.0002  0.6730
 2273TIP3   OH231013   3.853   7.215  16.647  0.0162 -0.4335  0.2787
 2273TIP3    H131014   3.779   7.202  16.706 -1.2122 -0.0650 -1.1201
 2273TIP3    H231015   3.894   7.296  16.678 -0.6383 -0.2181  0.5909
 2274TIP3   OH231016   4.779   6.367  17.782 -0.6517 -0.2114  0.2810
 2274TIP3    H131017   4.756   6.392  17.871 -0.4689 -0.0950  0.2963
 2274TIP3    H231018   4.863   6.322  17.791  0.1887  1.2381 -0.0217
 2275TIP3   OH231019   3.307   0.502  18.259 -0.9230  0.3095 -0.0758
 2275TIP3    H131020   3.390   0.499  18.211 -0.1251 -0.5939  1.2774
 2275TIP3    H231021   3.274   0.412  18.255 -1.0899  0.3334  0.6239
 2276TIP3   OH231022   5.021   0.716  15.907  0.0831  0.1167 -0.2206
 2276TIP3    H131023   4.961   0.705  15.833 -1.2927  0.0184  0.8626
 2276TIP3    H231024   5.009   0.638  15.960 -1.0768  1.3834  1.5229
 2277TIP3   OH231025   6.083   1.368  17.114  0.0894 -0.5104  0.3981
 2277TIP3    H131026   6.096   1.414  17.032  0.9716  0.2923  0.9584
 2277TIP3    H231027   6.150   1.299  17.114  0.6178 -0.0083  0.7753
 2278TIP3   OH231028   2.930   2.573  18.042  0.1980 -0.0443 -0.2547
 2278TIP3    H131029   2.973   2.650  18.004  0.7656 -1.1456 -1.9759
 2278TIP3    H231030   2.849   2.608  18.080  2.1136  1.9418  2.3307
 2279TIP3   OH231031   1.650   4.887  19.039 -0.0496  0.0160  0.0363
 2279TIP3    H131032   1.612   4.877  19.126 -0.1392  1.3132  0.1700
 2279TIP3    H231033   1.700   4.807  19.025  0.7172  0.1741  1.6731
 2280TIP3   OH231034   7.127   3.744  17.293  0.0049  0.3081  0.5260
 2280TIP3    H131035   7.146   3.837  17.308  1.9290 -0.3028  2.4692
 2280TIP3    H231036   7.185   3.698  17.354 -0.2385 -2.2172 -1.0059
 2281TIP3   OH231037   1.134   4.427  18.755 -0.2150 -0.2263 -0.4431
 2281TIP3    H131038   1.209   4.476  18.790 -1.3451  0.2399  1.4288
 2281TIP3    H231039   1.058   4.479  18.777 -1.2087 -1.1751 -1.4655
 2282TIP3   OH231040   4.229   3.056  18.593 -0.2426 -0.1355  0.4672
 2282TIP3    H131041   4.140   3.075  18.566 -0.3502  0.5182  1.2406
 2282TIP3    H231042   4.281   3.066  18.513 -0.7518  0.2518  0.1819
 2283TIP3   OH231043   2.104   3.668  18.030  0.2517  0.0003  0.1260
 2283TIP3    H131044   2.043   3.729  18.070 -0.0385 -1.0124  1.2998
 2283TIP3    H231045   2.073   3.581  18.057  1.8010 -0.5736  0.1768
 2284TIP3   OH231046   0.326   3.617  17.774 -0.2615  0.6652 -0.0631
 2284TIP3    H131047   0.292   3.573  17.696 -1.3208  1.3435 -0.0026
 2284TIP3    H231048   0.257   3.678  17.799 -0.2562 -0.0205  1.8197
 2285TIP3   OH231049   6.062   3.230  16.857  0.1661  0.2506  0.2863
 2285TIP3    H131050   6.090   3.309  16.811 -1.3428 -0.0994 -1.3166
 2285TIP3    H231051   6.107   3.235  16.942  1.2943  2.0370 -0.3500
 2286TIP3   OH231052   4.405   4.468  18.942 -0.3844 -0.4474 -0.2951
 2286TIP3    H131053   4.316   4.449  18.971 -0.6797  0.8302 -0.2894
 2286TIP3    H231054   4.442   4.523  19.012 -0.5717  1.3448 -1.5229
 2287TIP3   OH231055   0.013   3.901  17.107 -0.0135  0.0903 -0.4951
 2287TIP3    H131056   0.096   3.879  17.151 -0.0476  2.2815  0.8169
 2287TIP3    H231057   0.038   3.914  17.016  0.7245 -1.1192 -0.4928
 2288TIP3   OH231058   0.148   3.968  16.607  0.1279  0.0865  0.1563
 2288TIP3    H131059   0.242   3.985  16.598  0.3517  0.2423  2.3660
 2288TIP3    H231060   0.125   3.920  16.527  1.9758  0.4312 -0.6393
 2289TIP3   OH231061   1.419   1.177  18.621  0.0106 -0.0369  0.2996
 2289TIP3    H131062   1.481   1.114  18.586 -1.1883 -0.9646 -0.2177
 2289TIP3    H231063   1.410   1.244  18.553  0.3367  0.0314  0.3231
 2290TIP3   OH231064   6.179   0.628  17.140 -0.5966 -0.3052  0.7239
 2290TIP3    H131065   6.255   0.665  17.185 -0.1350 -0.1160 -0.1913
 2290TIP3    H231066   6.189   0.534  17.151 -0.2861 -0.2768  0.7029
 2291TIP3   OH231067   6.367   4.558  18.177 -0.1322 -0.7897  0.2830
 2291TIP3    H131068   6.328   4.591  18.258 -0.5075 -0.6568  0.0567
 2291TIP3    H231069   6.439   4.502  18.205 -1.9401 -2.9655  0.8108
 2292TIP3   OH231070   2.870   4.171  16.586 -0.4460  0.3201  0.1936
 2292TIP3    H131071   2.861   4.079  16.611 -0.2062  0.3098  0.2401
 2292TIP3    H231072   2.959   4.178  16.552 -0.3946  0.5836  0.3871
 2293TIP3   OH231073   0.173   6.467  17.757 -0.2766 -0.2523  0.0590
 2293TIP3    H131074   0.249   6.445  17.812 -1.2500 -0.8898  1.1776
 2293TIP3    H231075   0.112   6.509  17.816 -1.7123 -1.7310 -0.3114
 2294TIP3   OH231076   3.702   2.641  18.015  0.5340  0.6784  0.2340
 2294TIP3    H131077   3.687   2.550  18.039  2.2497 -0.5754 -2.8107
 2294TIP3    H231078   3.616   2.675  17.992  0.1211 -1.0048 -0.9084
 2295TIP3   OH231079   2.735   1.543  17.348  0.2806 -0.2661  0.5295
 2295TIP3    H131080   2.722   1.457  17.308 -1.1365  0.0668  0.2211
 2295TIP3    H231081   2.721   1.529  17.441 -0.2482 -0.3249  0.4445
 2296TIP3   OH231082   1.218   6.064  18.485  0.0240  0.0997 -0.1996
 2296TIP3    H131083   1.267   5.986  18.459  0.4550  0.7269 -1.3445
 2296TIP3    H231084   1.247   6.083  18.574  0.0155 -0.9619  0.0401
 2297TIP3   OH231085   3.324   2.400  17.319 -0.6784  0.1755 -0.2776
 2297TIP3    H131086   3.302   2.445  17.237 -0.1180  0.9271 -0.0210
 2297TIP3    H231087   3.244   2.405  17.371 -0.8792  0.1341 -0.5755
 2298TIP3   OH231088   4.019   6.296  17.175  0.0503  0.1556  0.3013
 2298TIP3    H131089   4.008   6.367  17.112 -0.8405  0.0227  0.2910
 2298TIP3    H231090   4.106   6.262  17.158 -0.7309 -0.9251 -1.9644
 2299TIP3   OH231091   7.191   4.169  16.831  0.5588  0.5198  0.5051
 2299TIP3    H131092   7.275   4.211  16.810  1.5391 -0.5499  2.0614
 2299TIP3    H231093   7.213   4.077  16.846 -1.1499 -0.0872 -0.4402
 2300TIP3   OH231094   7.163   2.105  15.872  0.5259 -0.1036  0.1312
 2300TIP3    H131095   7.258   2.115  15.869  0.5355 -0.3184 -0.3970
 2300TIP3    H231096   7.129   2.195  15.870  0.7063 -0.0437 -0.1854
 2301TIP3   OH231097   1.520   5.753  17.441  0.0500 -0.3293 -0.2215
 2301TIP3    H131098   1.456   5.683  17.454  0.3324 -0.6126 -0.3346
 2301TIP3    H231099   1.602   5.707  17.422  0.1145  0.0353 -0.8620
 2302TIP3   OH231100   0.386   1.684  18.866 -0.2122 -0.5852  0.2555
 2302TIP3    H131101   0.294   1.691  18.841 -0.8790  2.8542  2.8754
 2302TIP3    H231102   0.384   1.650  18.956  1.1304 -1.1432  0.0966
 2303TIP3   OH231103   4.666   1.783  18.880 -0.7526 -0.1759  0.4097
 2303TIP3    H131104   4.661   1.878  18.883  2.2274  0.1071 -0.6346
 2303TIP3    H231105   4.581   1.753  18.912 -1.2199  2.7835  2.2492
 2304TIP3   OH231106   7.103   4.881  17.857 -0.6663 -0.0734 -0.5660
 2304TIP3    H131107   7.046   4.812  17.891 -1.7538 -0.0316 -2.1874
 2304TIP3    H231108   7.065   4.903  17.772  0.1513  1.9366 -0.4630
 2305TIP3   OH231109   0.951   4.364  16.664 -0.3363 -0.1164 -0.0208
 2305TIP3    H131110   0.996   4.432  16.715 -0.7807 -1.3992  2.2201
 2305TIP3    H231111   0.861   4.367  16.694 -0.7105 -0.6750 -1.0438
 2306TIP3   OH231112   6.586   5.300  17.172  0.0271 -0.3353  0.6424
 2306TIP3    H131113   6.665   5.324  17.124 -1.9068 -1.0722 -3.3866
 2306TIP3    H231114   6.566   5.377  17.226  1.4544  1.3977 -1.1615
 2307TIP3   OH231115   1.388   2.108  16.351  0.0501  0.4296  0.4514
 2307TIP3    H131116   1.428   2.100  16.264 -0.1219  0.3637  0.3756
 2307TIP3    H231117   1.335   2.187  16.345  0.2623  0.5800  0.5882
 2308TIP3   OH231118   3.065   3.074  17.342  0.1543  0.0402  0.1587
 2308TIP3    H131119   3.032   3.021  17.414 -0.4847  2.8505  2.1432
 2308TIP3    H231120   3.151   3.105  17.372  0.2705  0.5484 -0.6579
 2309TIP3   OH231121   4.803   2.959  16.699  0.4572  0.4206  0.3090
 2309TIP3    H131122   4.866   3.030  16.710 -1.6444  2.2932  1.1604
 2309TIP3    H231123   4.786   2.957  16.605  1.3642  0.2552  0.1387
 2310TIP3   OH231124   4.582   4.419  18.415  0.1020  0.3202 -0.3702
 2310TIP3    H131125   4.657   4.409  18.473 -0.6773  2.5208  1.1863
 2310TIP3    H231126   4.571   4.514  18.406 -1.1911  0.0539 -2.3198
 2311TIP3   OH231127   6.814   3.208  17.021 -0.1093 -0.3947 -0.0332
 2311TIP3    H131128   6.751   3.137  17.030  1.0180 -1.3120  0.8264
 2311TIP3    H231129   6.764   3.279  16.979 -2.0002 -0.7068  1.5514
 2312TIP3   OH231130   7.058   0.363  18.339 -0.5539 -0.2502  0.2410
 2312TIP3    H131131   7.047   0.322  18.253  1.1922  0.3093 -0.2878
 2312TIP3    H231132   7.010   0.305  18.399  1.0151 -2.5955 -0.6172
 2313TIP3   OH231133   4.717   4.331  18.073  0.3960  0.3209  0.0436
 2313TIP3    H131134   4.668   4.407  18.103  1.2850  1.0299 -0.2756
 2313TIP3    H231135   4.722   4.274  18.150  0.6687  1.0882  0.6032
 2314TIP3   OH231136   6.989   6.508  16.839  0.2842  0.0028 -0.3901
 2314TIP3    H131137   7.018   6.542  16.755  2.1739  0.1854  0.2804
 2314TIP3    H231138   7.060   6.451  16.868 -0.9774 -1.2227  0.4348
 2315TIP3   OH231139   5.369   3.129  18.872  0.1828  0.4856 -0.4331
 2315TIP3    H131140   5.366   3.177  18.789  2.6230  0.0041 -0.8622
 2315TIP3    H231141   5.442   3.168  18.921 -0.3861 -0.0966  0.9549
 2316TIP3   OH231142   6.146   3.975  18.820  0.3600 -0.4525  0.2358
 2316TIP3    H131143   6.204   3.988  18.745  2.2913  0.1980  1.7332
 2316TIP3    H231144   6.202   3.934  18.886 -1.3270 -1.1935  1.2610
 2317TIP3   OH231145   0.987   5.891  17.837 -0.1526 -0.2168  0.6226
 2317TIP3    H131146   1.062   5.950  17.841 -0.1766 -0.1245 -0.1569
 2317TIP3    H231147   0.913   5.943  17.867  0.1766 -0.4651  1.9121
 2318TIP3   OH231148   4.983   1.727  17.004  0.0419 -0.2336  0.0838
 2318TIP3    H131149   4.920   1.774  17.058 -0.6140 -1.4305  0.3905
 2318TIP3    H231150   5.052   1.699  17.065 -0.2076 -0.7466  0.1358
 2319TIP3   OH231151   4.688   1.820  16.736  0.2634  0.6293 -0.0312
 2319TIP3    H131152   4.606   1.861  16.709 -0.2540 -0.7869 -0.6473
 2319TIP3    H231153   4.710   1.760  16.665  0.9642 -0.2230  0.8867
 2320TIP3   OH231154   5.064   3.407  16.787  0.5244  0.3755  0.0752
 2320TIP3    H131155   5.015   3.458  16.852 -2.4455 -1.7506 -0.2707
 2320TIP3    H231156   5.038   3.445  16.703 -0.2383 -0.4577 -0.0846
 2321TIP3   OH231157   4.226   1.846  18.824 -0.1871  0.2128 -0.2813
 2321TIP3    H131158   4.222   1.854  18.728 -1.8165  1.6776 -0.1508
 2321TIP3    H231159   4.204   1.934  18.855  0.1927 -0.2791  1.4565
 2322TIP3   OH231160   2.572   5.797  16.388  0.3604  0.1439 -0.6701
 2322TIP3    H131161   2.634   5.730  16.360  0.8522  0.5086 -0.4472
 2322TIP3    H231162   2.579   5.866  16.322  0.4604  0.3504 -0.4447
 2323TIP3   OH231163   6.968   5.290  16.583 -0.1230 -0.9839 -0.0563
 2323TIP3    H131164   6.982   5.214  16.528  1.4024 -0.6396 -0.1974
 2323TIP3    H231165   6.953   5.362  16.522 -0.4944 -0.9722  0.0444
 2324TIP3   OH231166   3.646   2.982  16.330  0.9567  0.2003  0.1430
 2324TIP3    H131167   3.628   3.003  16.239  0.2982 -0.9504 -0.0224
 2324TIP3    H231168   3.605   3.053  16.380 -0.3455 -0.1224 -0.4074
 2325TIP3   OH231169   4.325   4.513  17.646 -0.3821  0.2575  0.3331
 2325TIP3    H131170   4.355   4.463  17.722 -0.6812  0.1342  0.3706
 2325TIP3    H231171   4.265   4.578  17.683  0.1094  0.7374  0.3031
 2326TIP3   OH231172   0.231   3.472  19.193 -0.7491  0.3307 -0.4644
 2326TIP3    H131173   0.274   3.553  19.165 -2.0509  0.6706 -1.5770
 2326TIP3    H231174   0.162   3.501  19.252  0.3597 -0.2038  1.1927
 2327TIP3   OH231175   2.695   7.331  16.187  0.1262 -0.1914 -0.0886
 2327TIP3    H131176   2.703   7.425  16.205 -0.2324 -0.5789  2.5905
 2327TIP3    H231177   2.777   7.294  16.219 -1.1126 -1.1183  2.2631
 2328TIP3   OH231178   5.510   0.124  17.487 -0.0149  0.4206  0.0649
 2328TIP3    H131179   5.593   0.113  17.532 -0.4045  0.2567  0.7657
 2328TIP3    H231180   5.527   0.188  17.418  0.4537  1.1044  0.8178
 2329TIP3   OH231181   5.086   4.496  16.109 -0.2860 -0.4732 -0.5051
 2329TIP3    H131182   5.013   4.510  16.050  0.6899 -0.9770 -1.8744
 2329TIP3    H231183   5.075   4.407  16.142  0.1311 -0.8433 -1.3434
 2330TIP3   OH231184   3.158   7.108  18.511 -0.6621  0.3263  0.2009
 2330TIP3    H131185   3.193   7.019  18.514  0.0960  0.6053 -0.1619
 2330TIP3    H231186   3.235   7.164  18.517 -1.2502  0.9958  2.2987
 2331TIP3   OH231187   6.429   6.769  16.940 -0.7234  0.0261  0.3590
 2331TIP3    H131188   6.420   6.787  16.847  1.7162 -0.4914 -0.0288
 2331TIP3    H231189   6.354   6.714  16.962 -0.9030 -0.4963 -1.4623
 2332TIP3   OH231190   6.531   0.840  18.713  0.2114  0.3477  0.0570
 2332TIP3    H131191   6.530   0.891  18.793  1.0383 -0.2365  0.4491
 2332TIP3    H231192   6.607   0.872  18.665  0.7157 -0.4836  0.2909
 2333TIP3   OH231193   0.025   3.543  15.937 -0.4915 -0.8159  0.0041
 2333TIP3    H131194   0.096   3.509  15.992  0.1393  1.0832  0.4043
 2333TIP3    H231195   0.009   3.632  15.969 -2.0926 -0.6850 -1.0196
 2334TIP3   OH231196   3.368   7.338  17.545  0.0662 -0.4078  0.1538
 2334TIP3    H131197   3.419   7.419  17.536 -0.8466  0.2094  0.2950
 2334TIP3    H231198   3.341   7.338  17.637  1.7658 -1.9616  0.7095
 2335TIP3   OH231199   2.566   0.713  17.411  0.4839  0.6603  1.0124
 2335TIP3    H131200   2.551   0.732  17.503  0.6073 -0.3116  1.2438
 2335TIP3    H231201   2.629   0.781  17.383 -2.3426  3.3273  0.6071
 2336TIP3   OH231202   1.102   2.883  18.562  0.5680 -0.2868  0.1040
 2336TIP3    H131203   1.113   2.976  18.583  2.0768 -0.6388  0.9956
 2336TIP3    H231204   1.101   2.881  18.466 -0.1135  0.7008  0.0693
 2337TIP3   OH231205   5.773   5.664  17.034  0.5436  0.2032  0.3411
 2337TIP3    H131206   5.785   5.575  17.003  1.2940  0.5198 -0.3161
 2337TIP3    H231207   5.693   5.694  16.991 -0.0972 -0.3732  1.1086
 2338TIP3   OH231208   7.206   6.323  18.905  0.4183  0.2614  0.2951
 2338TIP3    H131209   7.283   6.270  18.887 -0.4112 -0.1096 -2.6257
 2338TIP3    H231210   7.239   6.412  18.912  1.2326 -0.0251  0.2154
 2339TIP3   OH231211   1.033   4.650  17.627 -0.2077 -0.0909 -0.3440
 2339TIP3    H131212   1.022   4.659  17.533  0.2458  1.7317 -0.2510
 2339TIP3    H231213   1.116   4.602  17.637  0.4121  0.8488 -0.8759
 2340TIP3   OH231214   1.193   5.244  18.317  0.3252 -0.3323  0.4890
 2340TIP3    H131215   1.238   5.243  18.401 -0.6827 -2.4129  1.0712
 2340TIP3    H231216   1.142   5.163  18.316  1.0298 -0.8827 -2.5290
 2341TIP3   OH231217   0.769   4.137  17.529 -0.1170 -0.2148  0.4417
 2341TIP3    H131218   0.823   4.078  17.476  0.2127  0.5505 -0.0911
 2341TIP3    H231219   0.820   4.218  17.536  0.1196 -0.4827  2.4561
 2342TIP3   OH231220   7.412   3.544  16.577 -0.0666  0.0391  0.2485
 2342TIP3    H131221   7.363   3.463  16.593 -1.9088  1.3659  1.6892
 2342TIP3    H231222   7.345   3.611  16.567  1.4335  1.5439 -0.1979
 2343TIP3   OH231223   0.075   1.006  16.800 -0.5656  0.1017 -0.1971
 2343TIP3    H131224   0.063   1.060  16.722 -0.5400  0.1741 -0.1503
 2343TIP3    H231225   0.002   0.943  16.796 -1.1001  0.6812  0.2002
 2344TIP3   OH231226   2.793   5.674  18.581 -0.4404  0.1485  0.3980
 2344TIP3    H131227   2.782   5.768  18.595  0.4577 -0.0242  2.8540
 2344TIP3    H231228   2.788   5.663  18.487 -0.7974  2.6224  0.0497
 2345TIP3   OH231229   0.062   5.472  17.167  0.5372 -0.1184 -0.4442
 2345TIP3    H131230   0.147   5.427  17.162  0.5732 -0.1522  0.3120
 2345TIP3    H231231   0.075   5.540  17.233  0.2952  0.6110 -1.1329
 2346TIP3   OH231232   6.318   6.871  16.702 -0.0551  0.2258 -0.0277
 2346TIP3    H131233   6.382   6.942  16.704 -0.1245  0.2870  0.0067
 2346TIP3    H231234   6.339   6.822  16.622 -0.2747  0.5298 -0.2729
 2347TIP3   OH231235   0.431   3.997  18.938 -0.3527  0.2812 -0.4449
 2347TIP3    H131236   0.432   4.084  18.897  2.3327  0.8876  0.6970
 2347TIP3    H231237   0.435   4.014  19.032 -1.5860 -1.1269 -0.0883
 2348TIP3   OH231238   7.012   6.922  18.357 -0.1643 -1.0452 -0.6407
 2348TIP3    H131239   7.100   6.938  18.390 -0.2307 -0.8963 -0.5305
 2348TIP3    H231240   6.955   6.945  18.430 -0.2557 -2.0368 -0.3913
 2349TIP3   OH231241   7.194   0.955  16.223  0.2573  0.5051 -0.2260
 2349TIP3    H131242   7.257   1.026  16.216  1.0972 -0.0619  1.1664
 2349TIP3    H231243   7.124   0.991  16.277 -0.6593  1.1209 -1.7388
 2350TIP3   OH231244   3.024   1.355  17.621 -0.0936  0.3774  0.0927
 2350TIP3    H131245   3.041   1.396  17.706 -1.1010  0.5255  0.2395
 2350TIP3    H231246   2.929   1.362  17.610 -0.0102  0.0618 -0.8982
 2351TIP3   OH231247   0.264   0.343  17.407 -0.3485  0.0061 -0.0961
 2351TIP3    H131248   0.202   0.388  17.350  1.4283  0.4723 -1.7410
 2351TIP3    H231249   0.244   0.250  17.394 -1.2415  0.1698  0.0431
 2352TIP3   OH231250   3.678   7.457  18.826  0.8148  0.2381 -0.9354
 2352TIP3    H131251   3.713   7.387  18.881  0.1545  0.0687 -0.7188
 2352TIP3    H231252   3.583   7.445  18.830  0.6582  1.5110 -0.4020
 2353TIP3   OH231253   7.420   1.264  17.095  0.0604  0.1611 -0.0582
 2353TIP3    H131254   7.330   1.294  17.111  0.5850  0.7926  2.0031
 2353TIP3    H231255   7.451   1.318  17.023 -1.2781 -0.2568 -0.9987
 2354TIP3   OH231256   6.017   5.585  17.763 -0.2805 -0.1792  0.0590
 2354TIP3    H131257   5.937   5.628  17.793  0.1844  0.8539 -0.1459
 2354TIP3    H231258   5.998   5.491  17.771 -1.1354  0.0535  0.9946
 2355TIP3   OH231259   4.494   2.737  17.478  0.2534  0.2938 -0.7391
 2355TIP3    H131260   4.467   2.772  17.563 -1.5247 -0.6872 -0.8480
 2355TIP3    H231261   4.584   2.766  17.467  0.1111  1.4652  0.9279
 2356TIP3   OH231262   0.622   0.769  17.122  0.2412  0.0734 -0.0928
 2356TIP3    H131263   0.584   0.682  17.119  0.0018  0.1593  0.4033
 2356TIP3    H231264   0.582   0.810  17.198 -0.5244  1.0260 -0.9746
 2357TIP3   OH231265   0.132   5.092  17.621 -0.3098  0.2117  0.5403
 2357TIP3    H131266   0.062   5.118  17.680 -0.0567  0.2268  0.8374
 2357TIP3    H231267   0.182   5.172  17.605 -1.2674  0.5454 -0.9258
 2358TIP3   OH231268   4.561   4.889  18.966 -0.1076  0.1464  0.2914
 2358TIP3    H131269   4.477   4.852  18.939  0.2216 -0.5178  0.1359
 2358TIP3    H231270   4.604   4.911  18.884 -0.9630  2.4731  0.4045
 2359TIP3   OH231271   4.355   1.796  16.653 -0.0148 -0.4344 -1.1301
 2359TIP3    H131272   4.387   1.722  16.602 -0.2644 -0.3726 -1.3757
 2359TIP3    H231273   4.260   1.784  16.656 -0.2705  0.8779 -2.7483
 2360TIP3   OH231274   6.021   0.375  16.836  0.4748  0.2323  0.0104
 2360TIP3    H131275   5.945   0.321  16.814  0.5691  0.9002 -2.1787
 2360TIP3    H231276   5.984   0.460  16.862  0.4468  0.3862 -0.5256
 2361TIP3   OH231277   3.345   6.655  16.857  0.2595 -0.0280  0.1344
 2361TIP3    H131278   3.408   6.720  16.825 -0.6047  1.1262  0.7203
 2361TIP3    H231279   3.260   6.694  16.840 -0.6587 -3.3196 -4.6257
 2362TIP3   OH231280   7.443   0.497  18.984 -0.2425  0.5041 -0.3218
 2362TIP3    H131281   7.461   0.565  18.920  2.2277  0.9078  0.6874
 2362TIP3    H231282   7.407   0.424  18.933  0.9817  1.0561 -2.0748
 2363TIP3   OH231283   3.438   7.284  18.411 -0.1041  0.5098  0.0112
 2363TIP3    H131284   3.495   7.275  18.488 -0.8507  0.5469  0.5766
 2363TIP3    H231285   3.496   7.268  18.337  0.6995  0.7773  0.5640
 2364TIP3   OH231286   4.103   2.966  18.034  0.0158 -0.3161  0.0409
 2364TIP3    H131287   4.094   3.031  17.964  0.6122  1.1484  1.2686
 2364TIP3    H231288   4.136   2.887  17.990 -1.3464 -0.0335 -1.5916
 2365TIP3   OH231289   1.128   6.405  17.523  0.1612  0.4803 -0.2629
 2365TIP3    H131290   1.059   6.446  17.575  0.4070 -0.0875  0.5093
 2365TIP3    H231291   1.170   6.343  17.582  1.5400  1.0316 -0.6226
 2366TIP3   OH231292   6.236   5.965  16.719 -0.0787 -0.1189 -0.6842
 2366TIP3    H131293   6.278   5.929  16.641 -0.9644  0.1078 -1.2883
 2366TIP3    H231294   6.294   6.037  16.746  0.2976 -0.2728 -1.0689
 2367TIP3   OH231295   5.975   3.387  16.157  1.0278 -0.6117 -0.0399
 2367TIP3    H131296   5.949   3.479  16.154  0.4602 -0.7393  0.6183
 2367TIP3    H231297   5.897   3.339  16.130  1.8386 -0.8555 -2.1097
 2368TIP3   OH231298   0.948   2.102  17.234 -0.7178 -0.1295  0.5565
 2368TIP3    H131299   1.025   2.130  17.184 -0.0822 -3.2479 -0.4619
 2368TIP3    H231300   0.970   2.122  17.325  0.5572  0.5701  0.1282
 2369TIP3   OH231301   5.325   4.199  16.962  0.1223 -0.2061  0.3173
 2369TIP3    H131302   5.273   4.200  16.881  0.9935  1.4977 -0.2851
 2369TIP3    H231303   5.262   4.180  17.031 -0.9096 -0.3136 -0.6208
 2370TIP3   OH231304   0.345   5.697  17.135 -0.5727  0.6346  0.5358
 2370TIP3    H131305   0.315   5.655  17.054  0.1016  0.7127  0.2448
 2370TIP3    H231306   0.433   5.727  17.115 -0.1691  0.1169  1.4936
 2371TIP3   OH231307   4.001   4.669  16.394 -0.4616  0.2342  0.0402
 2371TIP3    H131308   4.054   4.641  16.319 -0.3658 -0.7080  0.4533
 2371TIP3    H231309   3.936   4.599  16.405 -0.8643  0.6651  0.4603
 2372TIP3   OH231310   3.052   3.481  17.824 -0.1082  0.1480  0.1891
 2372TIP3    H131311   3.047   3.562  17.773  3.2061  0.4798  0.1656
 2372TIP3    H231312   3.088   3.508  17.908  1.4703 -1.2815  0.0375
 2373TIP3   OH231313   7.384   6.128  18.825 -0.0515  0.3917 -0.6614
 2373TIP3    H131314   7.465   6.127  18.775  1.2982  0.1748  1.4109
 2373TIP3    H231315   7.349   6.039  18.816 -1.6371  1.2040 -3.8376
 2374TIP3   OH231316   6.104   5.354  17.559  0.2470  0.3806 -0.8400
 2374TIP3    H131317   6.127   5.263  17.540  0.2320  0.6652 -2.3218
 2374TIP3    H231318   6.184   5.403  17.538 -0.3906  0.9256 -2.0921
 2375TIP3   OH231319   2.325   5.472  18.221 -0.0087 -0.3176  0.4609
 2375TIP3    H131320   2.284   5.558  18.214 -2.0833 -1.3288 -0.7464
 2375TIP3    H231321   2.390   5.471  18.150 -0.8775 -0.1802 -0.3619
 2376TIP3   OH231322   4.271   0.282  16.893 -0.4233 -0.4432  0.3035
 2376TIP3    H131323   4.344   0.296  16.834  0.0181  1.3979  1.2363
 2376TIP3    H231324   4.232   0.368  16.905 -1.7712 -1.1182  1.1007
 2377TIP3   OH231325   2.002   4.074  17.575  0.0423 -0.3583 -0.4857
 2377TIP3    H131326   1.964   3.992  17.606 -1.4418  0.4427 -0.0509
 2377TIP3    H231327   2.026   4.057  17.484  1.6052 -1.8306  0.1586
 2378TIP3   OH231328   6.231   5.271  17.254 -0.2107  0.3440 -0.2005
 2378TIP3    H131329   6.200   5.230  17.335 -0.4641  1.3376  0.2311
 2378TIP3    H231330   6.312   5.226  17.233 -1.5506 -1.8361 -0.9460
 2379TIP3   OH231331   4.711   2.334  16.502  0.5768 -0.2497 -0.0976
 2379TIP3    H131332   4.632   2.315  16.551  1.4292  2.1919  2.4600
 2379TIP3    H231333   4.711   2.269  16.431 -5.1092  1.3161 -2.0752
 2380TIP3   OH231334   6.030   3.655  17.403  0.4327 -0.1864  0.1548
 2380TIP3    H131335   6.015   3.574  17.354 -1.8020  0.4966 -0.4080
 2380TIP3    H231336   6.021   3.724  17.338  2.9827  0.5597  0.4909
 2381TIP3   OH231337   4.555   5.489  16.945  0.5270 -0.0476  0.1293
 2381TIP3    H131338   4.539   5.395  16.942 -0.0489  0.0412  0.2313
 2381TIP3    H231339   4.518   5.523  16.863 -1.6180  0.4102  1.2157
 2382TIP3   OH231340   1.973   1.957  18.834  0.5055 -0.0451 -0.3963
 2382TIP3    H131341   2.060   1.917  18.832  0.2265 -0.6617 -0.3851
 2382TIP3    H231342   1.914   1.885  18.858 -0.2916 -0.1568 -2.4827
 2383TIP3   OH231343   6.462   7.374  18.300  0.4055 -0.2494  0.6641
 2383TIP3    H131344   6.433   7.399  18.213 -1.8985  1.0153  1.7029
 2383TIP3    H231345   6.394   7.314  18.332  0.5185  0.3247  2.0595
 2384TIP3   OH231346   2.845   6.000  15.928  0.0825  0.5386 -0.2454
 2384TIP3    H131347   2.841   5.932  15.995  0.4250  0.4508 -0.3129
 2384TIP3    H231348   2.869   6.079  15.975  0.2962  0.4826 -0.2590
 2385TIP3   OH231349   0.801   7.454  16.912  0.7501  0.2382 -0.0233
 2385TIP3    H131350   0.851   7.375  16.897 -0.6743 -0.5579 -0.7793
 2385TIP3    H231351   0.784   7.490  16.825 -0.3365  0.2494  0.1701
 2386TIP3   OH231352   5.224   3.737  17.002  0.0824  0.4329  0.0230
 2386TIP3    H131353   5.264   3.650  16.995 -3.0627 -1.1121 -0.9813
 2386TIP3    H231354   5.250   3.782  16.921 -2.3242 -1.6592 -2.1207
 2387TIP3   OH231355   6.335   4.204  17.552  0.0127  0.3206 -0.4896
 2387TIP3    H131356   6.409   4.194  17.613  0.5878  1.4575 -0.9708
 2387TIP3    H231357   6.263   4.233  17.607  0.8289  2.4662 -0.4484
 2388TIP3   OH231358   0.455   4.467  17.609 -0.0100 -0.0331 -0.0582
 2388TIP3    H131359   0.473   4.422  17.692  1.3978  0.6930  0.0697
 2388TIP3    H231360   0.454   4.397  17.544 -0.6221 -0.5529  0.4892
 2389TIP3   OH231361   3.970   1.333  18.413  0.3808 -0.3625 -0.2785
 2389TIP3    H131362   3.913   1.410  18.412  0.6673 -0.1380  0.1428
 2389TIP3    H231363   4.059   1.369  18.409  0.5088 -0.6794 -0.3028
 2390TIP3   OH231364   6.504   5.466  17.387 -0.5301  0.0610 -0.3971
 2390TIP3    H131365   6.474   5.543  17.436  0.9034  0.8850 -0.7729
 2390TIP3    H231366   6.480   5.392  17.443 -1.0125  0.8339  0.4576
 2391TIP3   OH231367   1.498   5.207  17.432  0.2856 -0.2589  0.7968
 2391TIP3    H131368   1.456   5.150  17.368 -1.2005  0.2347  1.2884
 2391TIP3    H231369   1.592   5.199  17.414 -0.0892  0.2589 -1.7893
 2392TIP3   OH231370   3.178   0.831  16.812  0.3017 -0.5721 -0.3440
 2392TIP3    H131371   3.219   0.847  16.727  0.0133 -0.2728 -0.4321
 2392TIP3    H231372   3.193   0.738  16.829 -0.4687 -0.8739 -1.1775
 2393TIP3   OH231373   7.070   0.829  16.967 -0.0012  0.0041 -0.3061
 2393TIP3    H131374   6.984   0.791  16.987 -0.3059  0.4355 -0.7828
 2393TIP3    H231375   7.065   0.918  17.002 -0.1003  0.3545 -1.1877
 2394TIP3   OH231376   4.145   2.589  18.917 -0.3572 -0.0015  0.6361
 2394TIP3    H131377   4.230   2.562  18.883  0.3813  0.4624  2.0208
 2394TIP3    H231378   4.109   2.510  18.956 -0.7558 -0.2908 -0.2846
 2395TIP3   OH231379   6.291   1.535  18.602 -0.2176 -0.1623 -0.2620
 2395TIP3    H131380   6.277   1.542  18.696 -1.1881 -0.6716 -0.3610
 2395TIP3    H231381   6.372   1.485  18.594  1.0434  1.6639  0.3018
 2396TIP3   OH231382   4.664   3.480  17.089 -0.2448  0.6538 -0.2567
 2396TIP3    H131383   4.757   3.458  17.091 -0.3273  0.3287 -0.0099
 2396TIP3    H231384   4.650   3.533  17.167 -1.0249 -2.3678  1.8321
 2397TIP3   OH231385   6.575   7.413  18.860 -0.0089 -0.0660  0.5784
 2397TIP3    H131386   6.522   7.449  18.789  1.6748  0.7402 -0.3441
 2397TIP3    H231387   6.565   7.318  18.852 -1.8717  0.0741  0.9279
 2398TIP3   OH231388   0.545   7.341  17.147  0.5973 -0.0415  0.3271
 2398TIP3    H131389   0.640   7.355  17.147  0.6705 -0.5216  0.6917
 2398TIP3    H231390   0.530   7.282  17.221  0.2031 -1.2747 -0.7142
 2399TIP3   OH231391   2.636   3.154  18.336  0.1274  0.3524 -0.2010
 2399TIP3    H131392   2.568   3.215  18.363 -0.0859  0.2893 -0.5982
 2399TIP3    H231393   2.608   3.069  18.371  0.0268  0.3338 -0.3301
 2400TIP3   OH231394   5.760   1.940  17.503  0.1274 -0.0996 -0.3242
 2400TIP3    H131395   5.736   1.993  17.427 -3.4868  1.8506  1.8926
 2400TIP3    H231396   5.761   1.850  17.469  0.3280  0.8063 -2.9831
 2401TIP3   OH231397   1.215   1.186  16.441  0.6572 -0.2384 -0.0685
 2401TIP3    H131398   1.281   1.154  16.379  1.4656 -0.1750  0.7293
 2401TIP3    H231399   1.247   1.272  16.468 -0.1718  0.1365 -0.2582
 2402TIP3   OH231400   0.981   2.173  17.510  0.4342  0.2700  0.5500
 2402TIP3    H131401   0.985   2.093  17.563 -0.9343 -1.1291 -1.3255
 2402TIP3    H231402   0.904   2.219  17.541 -1.1176 -1.1813 -0.9519
 2403TIP3   OH231403   2.974   0.666  18.248  0.4241 -0.4062  0.6184
 2403TIP3    H131404   2.968   0.586  18.197  0.3660  0.2312 -0.3972
 2403TIP3    H231405   3.038   0.646  18.317  0.2829 -1.3667  0.4828
 2404TIP3   OH231406   2.631   2.344  17.803 -0.5266 -0.7327  0.1779
 2404TIP3    H131407   2.683   2.269  17.830 -1.0999 -1.0054  0.5598
 2404TIP3    H231408   2.661   2.415  17.860 -0.3219 -0.7917  0.1453
 2405TIP3   OH231409   1.976   6.669  17.639 -0.4435  0.1657  0.0142
 2405TIP3    H131410   1.976   6.576  17.618 -0.0066  0.1312  0.1553
 2405TIP3    H231411   2.029   6.710  17.571 -1.2676  0.4223 -0.4888
 2406TIP3   OH231412   1.626   4.780  18.485  0.5458  0.1306  0.1912
 2406TIP3    H131413   1.554   4.730  18.447 -1.1577  2.6569 -0.2092
 2406TIP3    H231414   1.692   4.785  18.415  0.9026 -1.7216  0.3604
 2407TIP3   OH231415   5.964   0.639  16.921 -0.0263  0.5605 -0.3517
 2407TIP3    H131416   6.043   0.658  16.972  0.3847 -0.6927 -0.4825
 2407TIP3    H231417   5.979   0.681  16.837  2.5313 -3.1177 -2.0032
 2408TIP3   OH231418   5.175   1.257  16.268  0.5562  0.9134  0.2220
 2408TIP3    H131419   5.269   1.274  16.264  0.6781  0.0691 -1.1964
 2408TIP3    H231420   5.149   1.246  16.177 -0.6383 -0.2589  0.6742
 2409TIP3   OH231421   2.165   2.169  16.250 -0.4812 -0.2740  0.4899
 2409TIP3    H131422   2.153   2.106  16.321  1.6663  0.5461  1.6729
 2409TIP3    H231423   2.239   2.135  16.200  0.8605  1.3330  1.2777
 2410TIP3   OH231424   4.037   2.379  17.311  0.1400 -0.1416  0.0604
 2410TIP3    H131425   4.047   2.341  17.398  0.7355 -0.7997 -0.2849
 2410TIP3    H231426   4.124   2.409  17.287 -0.1413  0.6095 -0.0614
 2411TIP3   OH231427   0.513   6.755  18.763 -0.0288 -0.1496 -0.1931
 2411TIP3    H131428   0.597   6.793  18.788 -0.6284  0.9160  0.2793
 2411TIP3    H231429   0.509   6.765  18.668  0.0254  0.5670 -0.1264
 2412TIP3   OH231430   5.803   5.386  16.065 -0.1101  0.2345 -0.2004
 2412TIP3    H131431   5.783   5.479  16.072  1.2378  0.5793 -0.5992
 2412TIP3    H231432   5.768   5.360  15.980 -0.7283  0.2977  0.0276
 2413TIP3   OH231433   4.813   6.958  18.505  0.1488  0.0811  0.1987
 2413TIP3    H131434   4.889   6.977  18.450  1.0291 -1.0118  0.9755
 2413TIP3    H231435   4.810   6.862  18.508  1.1063  0.0368  3.2518
 2414TIP3   OH231436   0.972   5.401  17.234 -0.0851 -0.2875 -0.1973
 2414TIP3    H131437   1.046   5.456  17.208 -0.3394  0.4443  0.5511
 2414TIP3    H231438   1.005   5.353  17.310  0.3096 -1.6018 -1.1688
 2415TIP3   OH231439   3.658   3.679  16.957 -0.2264 -0.0736  0.1420
 2415TIP3    H131440   3.711   3.757  16.940 -0.7788 -0.0134 -1.4592
 2415TIP3    H231441   3.601   3.671  16.881  0.1487 -2.3268  0.0120
 2416TIP3   OH231442   2.343   2.020  17.651  0.5484 -0.0986  0.6179
 2416TIP3    H131443   2.368   2.112  17.656  1.1616 -0.3154  1.7343
 2416TIP3    H231444   2.394   1.985  17.578  0.2342  0.4540  0.1207
 2417TIP3   OH231445   3.073   4.549  18.830 -0.0289  0.2781  0.0578
 2417TIP3    H131446   3.135   4.480  18.849  0.1490 -0.3711 -2.5197
 2417TIP3    H231447   3.090   4.573  18.739 -2.8870  0.7390 -0.4611
 2418TIP3   OH231448   6.204   0.383  16.632  0.0503  0.2789  0.0141
 2418TIP3    H131449   6.126   0.373  16.686  0.5841 -0.8863  0.6078
 2418TIP3    H231450   6.239   0.469  16.656  0.6219 -0.4558  2.0387
 2419TIP3   OH231451   0.862   0.848  19.041 -0.4353 -0.1355  0.3254
 2419TIP3    H131452   0.817   0.854  19.125  2.6339  1.0235  2.0408
 2419TIP3    H231453   0.887   0.939  19.020  1.9755 -0.7840  0.0769
 2420TIP3   OH231454   1.161   1.077  17.599  0.4042  0.2384 -0.1745
 2420TIP3    H131455   1.092   1.140  17.620  0.2370  0.1434 -0.4271
 2420TIP3    H231456   1.123   0.992  17.621  0.0314  0.0878 -1.3076
 2421TIP3   OH231457   4.591   1.160  17.656  0.1087 -0.1231  0.0975
 2421TIP3    H131458   4.578   1.071  17.688 -0.6162 -0.0587 -0.0006
 2421TIP3    H231459   4.507   1.203  17.670  0.3769  0.4776 -0.0893
 2422TIP3   OH231460   3.498   1.993  18.657  0.4252  0.2214  0.2870
 2422TIP3    H131461   3.560   1.993  18.584  1.9924  0.7493  1.5612
 2422TIP3    H231462   3.486   2.085  18.678  0.6025  0.0413  1.1857
 2423TIP3   OH231463   5.356   1.821  16.418  0.1781  0.4869 -0.1710
 2423TIP3    H131464   5.317   1.873  16.347  1.4007  0.3353 -0.9830
 2423TIP3    H231465   5.434   1.782  16.380  0.1819 -0.6360  0.9125
 2424TIP3   OH231466   6.651   7.349  17.860  0.0982 -0.1746  0.2452
 2424TIP3    H131467   6.637   7.427  17.914 -1.8011 -0.0092 -0.4063
 2424TIP3    H231468   6.625   7.276  17.917 -2.4511  0.0378 -0.5129
 2425TIP3   OH231469   3.186   2.431  18.482  0.2173 -0.2454  0.0235
 2425TIP3    H131470   3.185   2.428  18.578  1.6978 -0.9008  0.0389
 2425TIP3    H231471   3.176   2.523  18.461 -0.1474 -0.0983  0.8030
 2426TIP3   OH231472   4.177   2.216  16.921  0.5272 -0.0762 -0.0684
 2426TIP3    H131473   4.187   2.167  16.839  0.8269 -0.2466  0.0678
 2426TIP3    H231474   4.267   2.232  16.950  0.4288  0.4512 -0.0473
 2427TIP3   OH231475   5.011   3.280  18.907  0.4029 -0.0634 -0.6945
 2427TIP3    H131476   5.100   3.267  18.875  0.8055  1.4543 -0.2651
 2427TIP3    H231477   4.996   3.206  18.966  2.4584  1.1020  1.4653
 2428TIP3   OH231478   5.718   6.457  16.048 -0.1795  0.3896 -0.2126
 2428TIP3    H131479   5.780   6.423  15.984  1.0300 -0.6392  1.4374
 2428TIP3    H231480   5.770   6.515  16.104 -1.5671  2.6566 -1.1016
 2429TIP3   OH231481   3.748   6.494  17.785 -0.3584  0.0202  0.3364
 2429TIP3    H131482   3.754   6.457  17.697  0.3705  0.7302  0.0690
 2429TIP3    H231483   3.677   6.445  17.827  0.0271 -1.0860 -0.2640
 2430TIP3   OH231484   0.354   1.906  16.850 -0.9208  0.1822  0.2526
 2430TIP3    H131485   0.308   1.882  16.770 -3.3159  2.0951  0.9442
 2430TIP3    H231486   0.439   1.938  16.821  0.0344 -3.1404 -1.1054
 2431TIP3   OH231487   3.157   3.733  17.394 -0.5859 -0.2403  0.0692
 2431TIP3    H131488   3.166   3.827  17.408 -2.3935 -0.1805  1.2679
 2431TIP3    H231489   3.124   3.726  17.305  1.4894  0.0964 -0.7604
 2432TIP3   OH231490   1.081   0.367  16.951  0.3219  0.3555 -0.1587
 2432TIP3    H131491   1.118   0.302  16.891 -0.9362  0.5019 -1.1063
 2432TIP3    H231492   1.057   0.441  16.896 -0.8838  0.4846  0.5044
 2433TIP3   OH231493   1.498   0.473  16.946 -0.5490  0.0526 -0.1675
 2433TIP3    H131494   1.571   0.531  16.926  1.2397 -1.1985  2.2397
 2433TIP3    H231495   1.530   0.385  16.923 -0.7194 -0.6712  2.1636
 2434TIP3   OH231496   4.925   1.364  17.931  0.9555  0.0634  0.6558
 2434TIP3    H131497   5.013   1.347  17.899 -0.5781 -0.6037 -3.8152
 2434TIP3    H231498   4.877   1.283  17.918 -1.1600  1.3894 -0.4777
 2435TIP3   OH231499   2.930   5.009  17.690  0.5503  0.5500  0.2750
 2435TIP3    H131500   2.880   5.091  17.684  0.6929  0.8774  2.5333
 2435TIP3    H231501   2.866   4.941  17.668  0.2310  1.2056 -0.9002
 2436TIP3   OH231502   0.307   2.732  17.218 -0.5771  0.5984  0.6898
 2436TIP3    H131503   0.301   2.828  17.220 -0.3384  0.6050  0.9858
 2436TIP3    H231504   0.255   2.703  17.293 -1.2090  0.4670  0.2145
 2437TIP3   OH231505   5.368   6.916  16.962  0.3377 -0.2781  0.1000
 2437TIP3    H131506   5.296   6.879  16.911  1.5953 -1.7035 -0.7272
 2437TIP3    H231507   5.429   6.950  16.897  1.4242 -1.0743  0.6700
 2438TIP3   OH231508   4.333   3.322  18.272  0.1061  0.1927 -0.3545
 2438TIP3    H131509   4.256   3.373  18.298 -0.9962 -1.2689 -0.5968
 2438TIP3    H231510   4.348   3.263  18.346  0.1448 -0.4533 -0.8659
 2439TIP3   OH231511   1.664   2.252  18.191  0.2754 -0.1659  0.0795
 2439TIP3    H131512   1.641   2.244  18.284  0.8498 -0.5283  0.1988
 2439TIP3    H231513   1.718   2.174  18.173 -0.0368 -0.2287 -0.6221
 2440TIP3   OH231514   4.363   0.176  18.656  0.4789  0.0428 -0.2940
 2440TIP3    H131515   4.274   0.162  18.623  1.0264 -0.5702 -1.6020
 2440TIP3    H231516   4.362   0.138  18.744 -0.9643  1.4989  0.3780
 2441TIP3   OH231517   3.138   6.762  16.759 -0.4138 -0.2935 -0.0244
 2441TIP3    H131518   3.141   6.762  16.663 -0.0279  1.7941 -0.0756
 2441TIP3    H231519   3.048   6.785  16.780 -0.6803 -1.4579  0.1455
 2442TIP3   OH231520   3.883   6.649  16.415  0.1028  0.4336 -0.2264
 2442TIP3    H131521   3.805   6.673  16.467  0.0186 -1.5301  0.6230
 2442TIP3    H231522   3.911   6.732  16.375 -0.7152  1.7464  1.7597
 2443TIP3   OH231523   6.122   0.024  17.035  0.6321 -0.0462  0.9356
 2443TIP3    H131524   6.061   0.087  17.073  0.8023  0.8708 -0.2280
 2443TIP3    H231525   6.208   0.051  17.068  0.5961 -0.2638  1.2052
 2444TIP3   OH231526   3.602   6.571  18.111  0.0535  0.0607 -0.1893
 2444TIP3    H131527   3.577   6.587  18.202 -1.8557 -1.3591 -0.4191
 2444TIP3    H231528   3.587   6.655  18.067  1.6530  0.9590  0.8914
 2445TIP3   OH231529   5.470   3.976  17.362  0.0373 -0.0140 -0.5793
 2445TIP3    H131530   5.431   4.002  17.278 -0.6966 -0.4506 -0.3741
 2445TIP3    H231531   5.535   3.910  17.339  0.1426  0.1788 -0.8419
 2446TIP3   OH231532   5.288   6.045  16.542 -0.0080  0.1495  0.1847
 2446TIP3    H131533   5.321   6.131  16.516  0.3994  1.0985  3.3546
 2446TIP3    H231534   5.201   6.041  16.503 -0.7278  2.8132  1.2378
 2447TIP3   OH231535   1.511   4.994  18.792 -0.1255 -0.1851 -0.0117
 2447TIP3    H131536   1.584   5.042  18.753 -1.5389  2.4196  0.3299
 2447TIP3    H231537   1.528   4.997  18.886  0.0973 -0.9307 -0.0267
 2448TIP3   OH231538   0.483   6.266  16.153 -1.1115 -0.3713 -0.2638
 2448TIP3    H131539   0.457   6.185  16.198  0.9839 -0.4011  1.0263
 2448TIP3    H231540   0.485   6.332  16.222 -1.5012  0.4912 -1.0570
 2449TIP3   OH231541   2.496   0.644  16.191  0.2304  0.6029  0.4231
 2449TIP3    H131542   2.555   0.569  16.179  1.5771  1.9467 -2.5421
 2449TIP3    H231543   2.412   0.605  16.212  1.3266 -1.6117  1.0752
 2450TIP3   OH231544   4.354   0.624  16.664  0.2880  0.1481  0.4227
 2450TIP3    H131545   4.376   0.712  16.694  0.7371 -0.1082  0.8684
 2450TIP3    H231546   4.276   0.601  16.715 -0.0267  0.4133  0.0645
 2451TIP3   OH231547   1.301   2.744  16.270 -0.2737 -0.0221 -0.2837
 2451TIP3    H131548   1.285   2.836  16.253 -0.8346  0.8311  3.7768
 2451TIP3    H231549   1.383   2.743  16.321 -1.4561 -1.3872  1.7600
 2452TIP3   OH231550   1.083   6.777  17.202 -0.2665  0.3706  0.4147
 2452TIP3    H131551   1.167   6.779  17.249  0.1660 -0.9407 -0.2423
 2452TIP3    H231552   1.102   6.819  17.118 -0.3703  0.4261  0.4191
 2453TIP3   OH231553   4.864   2.512  16.635  0.0135  0.6712  0.8023
 2453TIP3    H131554   4.813   2.563  16.698 -0.4058 -0.7479  1.6575
 2453TIP3    H231555   4.811   2.434  16.618  0.1399  0.9923 -1.3125
 2454TIP3   OH231556   1.076   2.060  16.471  0.5786  0.3600  0.2584
 2454TIP3    H131557   1.067   2.145  16.429  0.3679 -0.1860 -0.8380
 2454TIP3    H231558   1.119   2.005  16.405  0.9640 -0.3143  1.0455
 2455TIP3   OH231559   3.208   0.692  18.439 -0.1602  0.8236  0.6215
 2455TIP3    H131560   3.216   0.652  18.526  0.9507  1.8799  1.0214
 2455TIP3    H231561   3.247   0.627  18.380 -0.2334  0.4347  0.9891
 2456TIP3   OH231562   6.715   6.827  17.259 -0.1266 -0.3503 -0.5597
 2456TIP3    H131563   6.795   6.777  17.244  0.1905 -0.2765  0.7947
 2456TIP3    H231564   6.740   6.896  17.319 -0.8627  0.6580 -1.3818
 2457TIP3   OH231565   6.701   6.539  17.924 -0.1539  0.2820  0.1916
 2457TIP3    H131566   6.720   6.518  18.016  2.0749  0.6872 -0.1317
 2457TIP3    H231567   6.782   6.518  17.877 -0.7988  1.3569 -1.4920
 2458TIP3   OH231568   3.199   1.635  17.435 -0.3865  0.3859 -0.0858
 2458TIP3    H131569   3.252   1.562  17.466 -2.1003 -0.4140  1.1157
 2458TIP3    H231570   3.249   1.713  17.459  0.8863 -0.3598 -0.2583
 2459TIP3   OH231571   4.728   4.305  16.528 -0.8174 -0.1961  0.3757
 2459TIP3    H131572   4.809   4.357  16.528  0.2075 -1.6761  1.4041
 2459TIP3    H231573   4.718   4.277  16.438  0.5869 -1.0396  0.4402
 2460TIP3   OH231574   3.497   7.028  17.579  0.1218 -0.2764 -0.1112
 2460TIP3    H131575   3.589   7.045  17.599  0.4216 -1.2071 -0.6204
 2460TIP3    H231576   3.448   7.076  17.645  0.9067  1.9684 -1.0832
 2461TIP3   OH231577   1.256   4.861  18.774  0.3200  0.0609  0.3361
 2461TIP3    H131578   1.294   4.792  18.828  0.5374 -0.4844 -0.4979
 2461TIP3    H231579   1.329   4.921  18.758  1.3197 -1.6585 -2.3701
 2462TIP3   OH231580   2.075   0.368  19.079  0.0804  0.2633  0.0277
 2462TIP3    H131581   1.984   0.347  19.058 -0.0318 -0.7245  1.3927
 2462TIP3    H231582   2.116   0.284  19.099  1.0067  0.8023  0.5021
 2463TIP3   OH231583   7.142   6.885  16.674 -0.0877 -0.0254 -0.5831
 2463TIP3    H131584   7.125   6.795  16.649 -1.1712 -0.1886  0.6703
 2463TIP3    H231585   7.180   6.925  16.595  1.8443 -1.9199 -0.7141
 2464TIP3   OH231586   3.776   4.881  18.337  0.2581 -0.5964  0.0916
 2464TIP3    H131587   3.825   4.878  18.254  0.3404  0.8111  0.0574
 2464TIP3    H231588   3.699   4.934  18.317  1.1543  1.2654  1.3122
 2465TIP3   OH231589   5.365   2.899  17.404 -0.1180 -0.1156 -0.3961
 2465TIP3    H131590   5.363   2.889  17.500  2.0413  1.5415 -0.0856
 2465TIP3    H231591   5.286   2.949  17.384  1.4771  3.4109  1.2111
 2466TIP3   OH231592   3.872   1.043  18.432  0.2390  0.0546 -0.0761
 2466TIP3    H131593   3.836   1.024  18.345 -1.5953  1.7747  0.2425
 2466TIP3    H231594   3.819   1.116  18.465  0.4516 -0.9550  2.7722
 2467TIP3   OH231595   7.108   1.624  17.112  0.1066 -0.3260 -1.1157
 2467TIP3    H131596   7.155   1.705  17.133 -2.0893  0.8923 -0.6716
 2467TIP3    H231597   7.073   1.638  17.025  1.0779 -1.5171 -1.7327
 2468TIP3   OH231598   3.773   7.071  18.257 -0.5098  0.0873 -0.6278
 2468TIP3    H131599   3.791   7.164  18.270 -1.4025  0.2399 -0.4159
 2468TIP3    H231600   3.860   7.030  18.251 -0.1122  0.8801 -0.3899
 2469TIP3   OH231601   5.056   5.931  17.524 -0.4348  0.0001  0.0084
 2469TIP3    H131602   5.044   5.924  17.618  1.0081 -2.3235  0.1064
 2469TIP3    H231603   5.151   5.930  17.512 -0.5877  0.6886 -1.4523
 2470TIP3   OH231604   5.857   5.620  17.429  0.1118  0.2052 -0.1285
 2470TIP3    H131605   5.949   5.627  17.407  0.1973  1.3819  0.5093
 2470TIP3    H231606   5.836   5.527  17.419  1.1557  0.0581 -1.0381
 2471TIP3   OH231607   4.866   3.237  17.025  0.5484  0.2554  0.5148
 2471TIP3    H131608   4.876   3.160  17.082  0.8620  0.4891  0.7764
 2471TIP3    H231609   4.881   3.312  17.083  0.3848  0.5113  0.2266
 2472TIP3   OH231610   3.017   2.697  18.486  0.0910  0.4703  0.6530
 2472TIP3    H131611   2.987   2.755  18.556  0.3764 -1.2185  2.2612
 2472TIP3    H231612   2.955   2.624  18.488  1.4624 -0.7338  0.7643
 2473TIP3   OH231613   4.869   6.705  18.429  0.2069  0.2131 -0.3238
 2473TIP3    H131614   4.944   6.650  18.454  0.8415  0.9964 -0.4694
 2473TIP3    H231615   4.856   6.687  18.336  1.4939  1.5336 -0.7957
 2474TIP3   OH231616   3.087   4.285  16.786 -0.0955 -0.3701 -0.0862
 2474TIP3    H131617   3.051   4.197  16.787 -3.2050  0.7767 -0.0111
 2474TIP3    H231618   3.096   4.307  16.693  2.7679 -1.4341 -0.1488
 2475TIP3   OH231619   4.235   4.043  18.739  0.3754 -0.2673  0.1326
 2475TIP3    H131620   4.196   4.128  18.763  1.2597 -0.0582  0.8601
 2475TIP3    H231621   4.223   3.988  18.816 -0.9964 -1.1299 -0.6362
 2476TIP3   OH231622   4.834   1.060  16.927 -0.0584 -0.8879 -0.2196
 2476TIP3    H131623   4.905   1.124  16.924 -0.7634 -0.0376  0.6226
 2476TIP3    H231624   4.872   0.980  16.891  1.2361 -0.3672 -0.0506
 2477TIP3   OH231625   4.719   2.207  19.034  0.9223 -0.1866 -0.1242
 2477TIP3    H131626   4.795   2.227  19.088  2.3637 -0.1107 -2.0544
 2477TIP3    H231627   4.692   2.291  18.999  1.0326 -0.4139 -0.7716
 2478TIP3   OH231628   3.568   1.103  18.014  0.5376 -0.5220 -0.0798
 2478TIP3    H131629   3.480   1.066  18.006  0.0206  0.7234 -0.3822
 2478TIP3    H231630   3.611   1.081  17.931 -0.1091  0.4029 -0.6775
 2479TIP3   OH231631   5.708   3.907  16.839 -0.3363  0.0886  0.7409
 2479TIP3    H131632   5.643   3.885  16.772  0.6118 -0.0318 -0.1799
 2479TIP3    H231633   5.683   3.855  16.915 -1.3081  0.0549  0.4127
 2480TIP3   OH231634   6.806   6.790  18.245 -0.0455 -0.1201 -0.7969
 2480TIP3    H131635   6.879   6.839  18.284 -0.5572  0.2433 -0.2744
 2480TIP3    H231636   6.790   6.835  18.162 -0.9907  1.1226  0.0027
 2481TIP3   OH231637   3.854   6.121  18.842  0.3985 -0.6246  0.1452
 2481TIP3    H131638   3.882   6.208  18.812  1.9140  0.0023  2.9703
 2481TIP3    H231639   3.770   6.136  18.884  0.5386 -0.5535  0.4043
 2482TIP3   OH231640   3.734   4.232  16.557  0.2103  0.1580 -0.2339
 2482TIP3    H131641   3.660   4.192  16.511 -0.4657 -0.4291  1.3042
 2482TIP3    H231642   3.695   4.273  16.635  1.3704  0.7293  0.0650
 2483TIP3   OH231643   5.357   1.247  18.688  0.0125 -0.1257 -0.5259
 2483TIP3    H131644   5.277   1.218  18.731  0.5884  0.8424  1.3374
 2483TIP3    H231645   5.337   1.335  18.657 -0.1146 -0.4765 -1.4499
 2484TIP3   OH231646   7.143   6.308  18.185  0.0543 -0.6259 -0.1334
 2484TIP3    H131647   7.136   6.236  18.248  3.3189 -3.1719 -2.3219
 2484TIP3    H231648   7.103   6.274  18.105 -2.4637  1.8802 -0.0835
 2485TIP3   OH231649   1.622   3.971  17.965  0.4187 -0.3329  0.1059
 2485TIP3    H131650   1.648   4.062  17.953 -2.2780  0.4446 -0.7737
 2485TIP3    H231651   1.676   3.922  17.902  1.6581  0.6858  0.3477
 2486TIP3   OH231652   1.275   1.770  18.733 -0.3655 -0.6568  0.2272
 2486TIP3    H131653   1.197   1.785  18.679 -0.3641  1.0943  0.6680
 2486TIP3    H231654   1.348   1.779  18.672 -0.4276 -0.2203  0.2144
 2487TIP3   OH231655   6.450   0.721  18.458 -0.3681 -0.3174  0.6517
 2487TIP3    H131656   6.442   0.762  18.544 -2.5019  0.3571  0.2005
 2487TIP3    H231657   6.400   0.640  18.465 -0.8905 -0.0688 -0.0358
 2488TIP3   OH231658   4.792   4.960  18.442 -0.2587 -0.2673  0.0933
 2488TIP3    H131659   4.738   4.965  18.522  0.9413 -1.0790  0.9806
 2488TIP3    H231660   4.769   5.039  18.394 -1.3114  0.0444  1.0464
 2489TIP3   OH231661   5.937   2.166  17.369  0.2268  0.0143 -0.1226
 2489TIP3    H131662   6.022   2.177  17.325  0.4180 -2.6777 -0.6088
 2489TIP3    H231663   5.959   2.129  17.454 -0.2096  4.4669  2.1941
 2490TIP3   OH231664   3.108   2.144  18.865  0.2840 -0.1169 -0.3625
 2490TIP3    H131665   3.015   2.167  18.854  0.5480  1.4007  0.3457
 2490TIP3    H231666   3.130   2.096  18.785 -1.0973 -0.4671 -0.5650
 2491TIP3   OH231667   3.740   2.814  16.810 -0.2744 -0.3219  0.2948
 2491TIP3    H131668   3.717   2.803  16.718  0.7686 -2.2328  0.2102
 2491TIP3    H231669   3.836   2.820  16.810 -0.2775 -0.1579  1.2342
 2492TIP3   OH231670   0.363   2.194  17.788 -0.2714 -0.7946  0.3385
 2492TIP3    H131671   0.351   2.220  17.880 -0.0894  0.4870  0.0145
 2492TIP3    H231672   0.457   2.195  17.775 -0.1494 -3.1203  0.7093
 2493TIP3   OH231673   1.842   3.834  17.819  0.6570  0.2355 -0.0256
 2493TIP3    H131674   1.818   3.758  17.872  1.4708 -0.8237 -1.1112
 2493TIP3    H231675   1.844   3.801  17.729  1.4578  1.4396 -0.4781
 2494TIP3   OH231676   5.583   1.808  17.957 -0.1407  0.2988  0.6019
 2494TIP3    H131677   5.512   1.748  17.933  1.1487 -0.8309 -0.5045
 2494TIP3    H231678   5.603   1.785  18.048  0.2901 -0.9262  0.2131
 2495TIP3   OH231679   2.247   3.505  18.343  0.2404  0.3454 -0.2067
 2495TIP3    H131680   2.157   3.471  18.345  0.3156  0.1641  0.4619
 2495TIP3    H231681   2.237   3.600  18.341  0.0020  0.4341  2.1252
 2496TIP3   OH231682   2.587   4.206  16.975  0.3021 -0.5160 -0.3630
 2496TIP3    H131683   2.546   4.195  17.061 -1.2449  1.4410 -0.7747
 2496TIP3    H231684   2.538   4.147  16.917 -0.5541  0.2292 -0.4238
 2497TIP3   OH231685   2.939   4.087  17.722  0.1396 -0.0100 -0.6302
 2497TIP3    H131686   2.983   4.072  17.805  0.2184 -0.8675 -0.8147
 2497TIP3    H231687   2.884   4.010  17.709  0.6456 -0.2168 -1.6901
 2498TIP3   OH231688   0.889   4.030  18.486  0.1368  0.5742  0.1250
 2498TIP3    H131689   0.824   3.962  18.469  1.0937 -0.3355 -0.0444
 2498TIP3    H231690   0.885   4.043  18.581  0.7074 -0.5613  0.3336
 2499TIP3   OH231691   5.704   5.186  17.157 -0.1876  0.0218 -0.7521
 2499TIP3    H131692   5.750   5.133  17.091  2.6567  0.0125  1.0717
 2499TIP3    H231693   5.655   5.122  17.209  0.6954 -0.4792 -0.5116
 2500TIP3   OH231694   5.672   5.446  17.642 -0.1968  0.0389  0.4343
 2500TIP3    H131695   5.696   5.402  17.561 -0.4578  1.0357 -0.2095
 2500TIP3    H231696   5.741   5.423  17.704  0.2786 -0.3296 -0.2248
 2501TIP3   OH231697   1.329   3.318  17.749 -0.0917  0.5129  0.2020
 2501TIP3    H131698   1.291   3.253  17.807 -0.8479 -0.7945 -1.6717
 2501TIP3    H231699   1.424   3.307  17.760 -0.1907  1.2072  2.1064
 2502TIP3   OH231700   0.305   6.022  18.359 -0.4502  0.4629  0.2304
 2502TIP3    H131701   0.291   6.085  18.289  2.1997 -1.3536 -2.1652
 2502TIP3    H231702   0.250   5.947  18.337 -0.3235  0.2555  0.6021
 2503TIP3   OH231703   6.100   3.700  18.269  0.3948  0.4976  0.0806
 2503TIP3    H131704   6.149   3.721  18.349 -0.7406 -0.1947  0.9968
 2503TIP3    H231705   6.146   3.746  18.199  1.7397  0.6827  1.0547
 2504TIP3   OH231706   6.662   5.011  17.849 -0.1482  0.4144 -0.2471
 2504TIP3    H131707   6.629   5.100  17.835 -1.0618 -0.0198 -0.9772
 2504TIP3    H231708   6.697   4.985  17.764 -0.2138 -0.0523 -0.1339
 2505TIP3   OH231709   4.720   5.793  18.981 -0.0401  0.0076  0.3299
 2505TIP3    H131710   4.711   5.817  19.073 -0.5213  0.3621  0.1925
 2505TIP3    H231711   4.638   5.821  18.941  0.4449  0.5041 -0.3387
 2506TIP3   OH231712   6.485   7.031  18.498  0.1794 -0.7789  0.0730
 2506TIP3    H131713   6.442   7.074  18.572 -0.6401 -0.0414 -0.7964
 2506TIP3    H231714   6.438   7.064  18.421  0.0991 -2.5573 -0.6967
 2507TIP3   OH231715   5.230   3.429  16.205 -0.4262 -0.2298 -0.1546
 2507TIP3    H131716   5.200   3.339  16.220  0.0300 -0.2581  0.6854
 2507TIP3    H231717   5.318   3.419  16.168 -0.7370 -0.1314 -0.9358
 2508TIP3   OH231718   2.854   2.209  18.739 -0.1336  0.0289  0.2698
 2508TIP3    H131719   2.763   2.186  18.717 -0.1187 -0.6181  0.8394
 2508TIP3    H231720   2.846   2.285  18.796 -0.2536  0.7072 -0.6394
 2509TIP3   OH231721   4.765   1.898  17.120  0.5160  0.3820  0.0527
 2509TIP3    H131722   4.766   1.889  17.215  1.5454 -0.2503  0.0051
 2509TIP3    H231723   4.763   1.992  17.104 -2.7655  0.5121  0.6602
 2510TIP3   OH231724   1.944   0.009  17.207 -0.0188 -0.6947 -0.2223
 2510TIP3    H131725   2.030   0.051  17.201 -0.4381  0.2961  0.4633
 2510TIP3    H231726   1.961  -0.084  17.188  1.0428 -0.3487 -1.0548
 2511TIP3   OH231727   7.228   6.311  16.131 -0.1991 -0.4171 -0.5252
 2511TIP3    H131728   7.260   6.228  16.095 -0.2981  0.5358 -2.9526
 2511TIP3    H231729   7.301   6.371  16.123  0.3645 -0.5243  2.5639
 2512TIP3   OH231730   7.232   4.805  16.920  0.5867  0.0699  0.0328
 2512TIP3    H131731   7.233   4.881  16.978 -2.8758  0.6108 -0.4048
 2512TIP3    H231732   7.239   4.841  16.832  2.5929 -0.5143 -0.1172
 2513TIP3   OH231733   3.132   4.690  19.156  0.1454  0.7547  0.3180
 2513TIP3    H131734   3.227   4.688  19.149  0.2081 -0.4907  1.1969
 2513TIP3    H231735   3.114   4.768  19.209  0.6875  0.9361  0.2422
 2514TIP3   OH231736   5.516   2.127  17.573  0.0666  0.1835 -0.0039
 2514TIP3    H131737   5.607   2.099  17.584  0.3474  1.3525  0.8390
 2514TIP3    H231738   5.465   2.059  17.618  0.7406  0.9707  2.0661
 2515TIP3   OH231739   5.535   2.649  18.331 -0.0449  0.9364 -0.2180
 2515TIP3    H131740   5.529   2.721  18.268 -0.6610  0.9289 -0.1792
 2515TIP3    H231741   5.520   2.570  18.278  0.0902  0.8814 -0.1726
 2516TIP3   OH231742   5.054   3.985  17.914 -0.4048 -0.0244  0.6327
 2516TIP3    H131743   5.030   3.898  17.946 -0.7851 -0.1560  0.0015
 2516TIP3    H231744   4.974   4.019  17.874 -0.1003  0.3769  0.3574
 2517TIP3   OH231745   3.286   3.850  18.063 -0.2626 -0.2039 -0.1802
 2517TIP3    H131746   3.220   3.795  18.106 -1.0333  0.3702 -0.6008
 2517TIP3    H231747   3.344   3.877  18.134 -1.8789  1.2542  0.6720
 2518TIP3   OH231748   4.339   5.141  19.047  0.1446 -0.0492  0.0671
 2518TIP3    H131749   4.412   5.131  19.109  0.1066 -1.5268 -0.0708
 2518TIP3    H231750   4.382   5.155  18.963  0.2902 -0.8072  0.0034
 2519TIP3   OH231751   3.507   5.481  16.825 -0.8448  0.0739 -0.5377
 2519TIP3    H131752   3.459   5.427  16.762 -3.5136  1.0246  0.4986
 2519TIP3    H231753   3.474   5.570  16.808  0.2823  0.7201  0.5420
 2520TIP3   OH231754   6.141   2.519  17.279 -0.1340 -0.3112  0.0418
 2520TIP3    H131755   6.095   2.457  17.224  1.8955 -1.8960  0.0168
 2520TIP3    H231756   6.205   2.560  17.221  0.1127  0.0812  0.5812
 2521TIP3   OH231757   1.440   6.547  17.737 -0.2877 -0.2398 -0.6584
 2521TIP3    H131758   1.387   6.581  17.666 -0.2832 -0.5868 -0.8267
 2521TIP3    H231759   1.527   6.585  17.723 -0.0118 -1.1329 -1.4417
 2522TIP3   OH231760   0.812   6.429  16.208 -0.0829  0.3025 -0.2969
 2522TIP3    H131761   0.766   6.457  16.287  0.0698  0.4686 -0.2652
 2522TIP3    H231762   0.905   6.443  16.228 -0.1144  1.6626 -1.0029
 2523TIP3   OH231763   5.097   7.228  18.084  0.0694  0.3076  0.0756
 2523TIP3    H131764   5.046   7.308  18.068  1.5532  1.3680  0.4937
 2523TIP3    H231765   5.134   7.207  17.998 -1.9267 -1.1532 -0.5152
 2524TIP3   OH231766   5.908   2.144  18.540  0.5495 -0.2955  0.7303
 2524TIP3    H131767   5.873   2.148  18.629 -0.5574  0.4784  0.2820
 2524TIP3    H231768   5.832   2.157  18.484  1.4336  0.5580 -0.3060
 2525TIP3   OH231769   5.155   1.038  18.276  0.0764  0.8009 -0.3708
 2525TIP3    H131770   5.164   1.111  18.215 -0.6518  1.6369  0.4982
 2525TIP3    H231771   5.160   0.960  18.220 -1.0022  1.5394 -1.5759
 2526TIP3   OH231772   3.891   4.959  16.086  0.1526  0.3896 -0.2068
 2526TIP3    H131773   3.931   4.905  16.018 -0.6620 -1.5708  0.7733
 2526TIP3    H231774   3.830   5.016  16.039 -0.4707 -0.9939 -1.1466
 2527TIP3   OH231775   6.805   6.414  18.152 -0.0706  0.0321 -0.1127
 2527TIP3    H131776   6.798   6.319  18.157 -1.2646  0.0734 -0.7342
 2527TIP3    H231777   6.735   6.447  18.207 -0.3067  0.5410 -0.7037
 2528TIP3   OH231778   6.071   2.112  17.699  0.3831 -0.0378 -0.6110
 2528TIP3    H131779   6.124   2.039  17.731 -0.7227 -0.8402 -0.5683
 2528TIP3    H231780   5.990   2.107  17.750  0.0222  0.8261 -1.0748
 2529TIP3   OH231781   6.296   3.516  17.213 -0.2669 -0.2048  0.0669
 2529TIP3    H131782   6.266   3.493  17.301  0.6814  0.3148  0.5412
 2529TIP3    H231783   6.367   3.454  17.195  1.1256  1.1636  0.6498
 2530TIP3   OH231784   6.197   7.194  17.493  0.3818 -0.1504  0.2356
 2530TIP3    H131785   6.168   7.275  17.450 -1.1815 -0.1481  1.2597
 2530TIP3    H231786   6.208   7.132  17.421  0.5812  0.6632 -0.4531
 2531TIP3   OH231787   1.868   7.126  18.470  0.0588  0.2525  0.4127
 2531TIP3    H131788   1.773   7.121  18.474 -0.0101  1.7132  1.2760
 2531TIP3    H231789   1.891   7.089  18.385 -1.1983 -0.9540  0.5802
 2532TIP3   OH231790   6.497   4.355  18.824 -0.3894 -0.7713 -0.3631
 2532TIP3    H131791   6.418   4.305  18.845 -1.1622  0.9509  1.1445
 2532TIP3    H231792   6.569   4.304  18.861 -0.7155 -2.4420 -1.8745
 2533TIP3   OH231793   2.278   6.674  18.765 -0.1883  0.1816 -0.0181
 2533TIP3    H131794   2.283   6.760  18.724 -1.8177  0.6326  0.6380
 2533TIP3    H231795   2.211   6.684  18.834  0.9532 -1.1026  1.3425
 2534TIP3   OH231796   6.544   2.886  17.627 -0.3811 -0.2888 -0.0397
 2534TIP3    H131797   6.582   2.941  17.558 -1.4383  2.4776  1.4163
 2534TIP3    H231798   6.618   2.863  17.683  0.0365 -0.0235 -0.4763
 2535TIP3   OH231799   4.885   1.005  16.560  0.4516  0.5769 -0.5912
 2535TIP3    H131800   4.790   1.014  16.560  0.4463  0.5264 -0.1919
 2535TIP3    H231801   4.900   0.911  16.571  0.5537  0.6688  0.0929
 2536TIP3   OH231802   7.291   0.638  17.556 -0.5818 -0.4827 -0.1461
 2536TIP3    H131803   7.245   0.608  17.477 -0.6050 -0.8729  0.0145
 2536TIP3    H231804   7.362   0.575  17.568 -0.7151 -0.5539  0.2740
 2537TIP3   OH231805   0.695   0.976  17.599  0.1480  0.2290  0.0764
 2537TIP3    H131806   0.666   0.894  17.561 -0.2704  0.0430  0.7929
 2537TIP3    H231807   0.668   0.972  17.691  0.4941  0.9845  0.2229
 2538TIP3   OH231808   1.916   5.875  18.034  0.0144  0.0228  0.3626
 2538TIP3    H131809   1.831   5.895  18.073 -0.6043 -0.3978 -0.7384
 2538TIP3    H231810   1.897   5.811  17.966  1.4039 -1.0973  0.9863
 2539TIP3   OH231811   3.159   4.913  17.256  0.4672 -0.2908 -0.3047
 2539TIP3    H131812   3.083   4.900  17.199 -0.1017 -1.2286  0.6425
 2539TIP3    H231813   3.160   4.836  17.313  1.5267  0.2165  0.3900
 2540TIP3   OH231814   5.354   3.598  17.741  0.1926 -0.0563 -0.1317
 2540TIP3    H131815   5.357   3.517  17.792  0.6540  0.0374 -0.0103
 2540TIP3    H231816   5.312   3.661  17.799 -3.0714 -0.9609 -1.2810
 2541TIP3   OH231817   2.001   1.038  17.500  0.5151 -0.3614 -0.3794
 2541TIP3    H131818   2.000   0.983  17.422 -0.8053 -0.4896 -0.2947
 2541TIP3    H231819   1.922   1.013  17.548 -0.3388  1.8388 -0.5117
 2542TIP3   OH231820   4.370   5.747  17.619 -0.2858 -0.0879  0.6789
 2542TIP3    H131821   4.398   5.808  17.687  1.2650  0.6695 -0.5944
 2542TIP3    H231822   4.374   5.661  17.662  1.5363  0.2716  1.3183
 2543TIP3   OH231823   2.283   2.385  18.441 -0.0133  0.1860  0.2492
 2543TIP3    H131824   2.315   2.334  18.366 -1.9370 -1.1150  0.2398
 2543TIP3    H231825   2.269   2.473  18.405 -0.2930 -0.2584 -0.7736
 2544TIP3   OH231826   3.837   4.291  18.417  0.0225  0.2210 -0.3843
 2544TIP3    H131827   3.932   4.283  18.403  0.2211  1.3760  0.1693
 2544TIP3    H231828   3.804   4.202  18.409  0.9800 -0.0465 -1.7822
 2545TIP3   OH231829   7.006   1.629  18.456 -0.3599  0.2949  0.0734
 2545TIP3    H131830   7.018   1.605  18.364 -1.5268 -1.3744  0.3127
 2545TIP3    H231831   7.077   1.583  18.502 -1.0340 -0.5930  0.2366
 2546TIP3   OH231832   7.465   5.397  16.206 -0.2238 -0.0719  0.6385
 2546TIP3    H131833   7.443   5.319  16.154  0.0252 -1.0963  2.0191
 2546TIP3    H231834   7.446   5.471  16.148 -2.9023 -1.0445  0.1303
 2547TIP3   OH231835   4.683   6.208  15.965 -0.6969 -1.1613  0.2019
 2547TIP3    H131836   4.734   6.253  16.032  0.6435 -0.2834 -1.3256
 2547TIP3    H231837   4.715   6.118  15.967  1.2582 -0.5681 -0.9258
 2548TIP3   OH231838   4.684   5.493  17.584 -0.0628 -0.4226  0.5166
 2548TIP3    H131839   4.598   5.498  17.625 -1.6856 -1.9803 -2.3872
 2548TIP3    H231840   4.675   5.543  17.503  1.7504 -0.6328  0.1425
 2549TIP3   OH231841   1.762   2.569  17.538  0.2932  0.4948 -0.3141
 2549TIP3    H131842   1.716   2.635  17.486  0.6475  0.3263 -0.8526
 2549TIP3    H231843   1.707   2.491  17.532 -0.9721  1.1515  1.6516
 2550TIP3   OH231844   0.106   3.714  17.424 -0.7020  0.1070  0.0498
 2550TIP3    H131845   0.072   3.788  17.475  0.5565 -0.2511  1.4772
 2550TIP3    H231846   0.106   3.746  17.333 -2.8656  0.8148  0.2399
 2551TIP3   OH231847   6.659   3.372  16.854  0.5668 -0.2356  0.1562
 2551TIP3    H131848   6.646   3.450  16.909 -0.9853 -0.0158 -0.4805
 2551TIP3    H231849   6.697   3.405  16.773 -0.3883 -0.0660 -0.2401
 2552TIP3   OH231850   4.253   1.237  16.687 -0.4394 -0.3961 -0.2130
 2552TIP3    H131851   4.318   1.221  16.618  1.1747  2.4253  0.4729
 2552TIP3    H231852   4.182   1.176  16.669  0.2349 -0.2804 -3.9459
 2553TIP3   OH231853   3.575   2.771  17.632  0.4138 -0.0485  0.3207
 2553TIP3    H131854   3.505   2.719  17.593 -0.6293  0.2494  1.6988
 2553TIP3    H231855   3.619   2.711  17.692  0.5524  0.1041  0.3725
 2554TIP3   OH231856   1.533   6.203  17.074 -0.4586  0.7920  0.9799
 2554TIP3    H131857   1.519   6.215  17.168  1.8428  2.7640  1.1653
 2554TIP3    H231858   1.532   6.292  17.038 -1.8205  0.0451 -0.9966
 2555TIP3   OH231859   2.701   1.116  17.421 -0.2801  0.0299 -0.0729
 2555TIP3    H131860   2.647   1.159  17.488  0.0671 -0.5724  0.6148
 2555TIP3    H231861   2.694   1.173  17.345 -1.0895  0.4753  0.3150
 2556TIP3   OH231862   2.246   3.633  17.064  0.0610 -0.0129  0.0004
 2556TIP3    H131863   2.318   3.683  17.103  0.0596 -1.5885  2.1680
 2556TIP3    H231864   2.169   3.660  17.114 -0.1516 -1.2252  0.3486
 2557TIP3   OH231865   1.238   6.367  18.553  0.7549  0.3492 -0.0405
 2557TIP3    H131866   1.328   6.343  18.576  0.1527 -2.7548 -0.4450
 2557TIP3    H231867   1.199   6.285  18.521 -2.4896  1.3510  0.9644
 2558TIP3   OH231868   3.173   5.185  17.349  0.1753  0.3093  0.0957
 2558TIP3    H131869   3.087   5.213  17.319  0.1639  0.4566  0.2683
 2558TIP3    H231870   3.185   5.098  17.310 -0.4446 -0.1180  0.8439
 2559TIP3   OH231871   2.906   6.835  16.857  0.1318  0.1737 -0.0879
 2559TIP3    H131872   2.860   6.918  16.870 -0.8421 -0.6322  2.3418
 2559TIP3    H231873   2.905   6.794  16.944  0.9255 -2.2065 -1.1181
 2560TIP3   OH231874   1.170   4.655  19.036  0.0963 -0.1196 -0.5570
 2560TIP3    H131875   1.139   4.737  19.075 -0.7268 -0.5327 -0.3116
 2560TIP3    H231876   1.097   4.626  18.980  1.0469  0.1981 -2.0296
 2561TIP3   OH231877   0.113   5.803  17.689 -0.9259 -0.4664  1.1046
 2561TIP3    H131878   0.137   5.859  17.762 -1.2457 -0.0315  0.8797
 2561TIP3    H231879   0.132   5.714  17.720  0.9743 -0.1489  0.9258
 2562TIP3   OH231880   5.779   6.683  17.416 -0.1265  0.1251 -0.1522
 2562TIP3    H131881   5.838   6.657  17.345  1.9296 -0.2922  1.5974
 2562TIP3    H231882   5.753   6.772  17.394  0.6742  0.1069 -1.2944
 2563TIP3   OH231883   4.605   0.283  18.252 -0.2963  0.1629  0.2778
 2563TIP3    H131884   4.646   0.245  18.330  0.1982  0.1136  0.0025
 2563TIP3    H231885   4.526   0.326  18.284 -0.3461 -0.2646  0.7351
 2564TIP3   OH231886   2.044   7.317  18.505 -0.8376  0.0581  0.0319
 2564TIP3    H131887   1.967   7.261  18.498  0.1376 -1.3889  0.2583
 2564TIP3    H231888   2.095   7.277  18.575  0.1117  0.9888 -0.1094
 2565TIP3   OH231889   6.733   0.418  17.999 -0.3996  0.0006  0.2437
 2565TIP3    H131890   6.677   0.376  17.934 -0.8148 -0.6292  0.9960
 2565TIP3    H231891   6.707   0.380  18.082 -0.2278  1.1661  0.8540
 2566TIP3   OH231892   1.416   2.873  17.450 -0.2930 -0.2620  0.4372
 2566TIP3    H131893   1.458   2.943  17.401 -0.0103 -1.2546 -0.7976
 2566TIP3    H231894   1.477   2.799  17.444 -0.9029 -0.8412  1.0920
 2567TIP3   OH231895   1.761   1.330  18.646 -0.0617 -0.7725 -0.1695
 2567TIP3    H131896   1.845   1.347  18.688 -0.9775  2.0757  0.7127
 2567TIP3    H231897   1.718   1.267  18.705  1.1362 -1.7482 -0.2843
 2568TIP3   OH231898   1.009   4.158  16.958 -0.1859 -0.4404  0.1114
 2568TIP3    H131899   1.018   4.068  16.928 -1.8948 -0.6489  0.1189
 2568TIP3    H231900   0.923   4.186  16.926 -0.3419  0.6746  1.4022
 2569TIP3   OH231901   3.369   2.107  17.267  0.5800  0.3805  0.4868
 2569TIP3    H131902   3.283   2.111  17.225  0.0002  1.1518  1.6895
 2569TIP3    H231903   3.386   2.197  17.296  1.6658  0.1817  0.5374
 2570TIP3   OH231904   1.788   6.315  16.774  0.5134  0.5059 -0.2340
 2570TIP3    H131905   1.786   6.224  16.802  1.4585  0.2190 -1.0539
 2570TIP3    H231906   1.834   6.361  16.845  0.2995  0.3024  0.0390
 2571TIP3   OH231907   5.907   0.947  18.304  0.3143 -0.1143  0.4385
 2571TIP3    H131908   5.988   0.990  18.276 -0.1207  0.3628 -0.1065
 2571TIP3    H231909   5.867   1.010  18.364  0.2139 -0.2351  0.4972
 2572TIP3   OH231910   3.672   6.831  18.509  0.0140 -0.0807 -0.0426
 2572TIP3    H131911   3.615   6.761  18.479 -0.8812  0.5598  0.1101
 2572TIP3    H231912   3.730   6.849  18.435  0.1281 -0.8445 -0.1429
 2573TIP3   OH231913   5.982   4.414  16.602  0.0213  0.6992  0.8398
 2573TIP3    H131914   6.050   4.438  16.539 -0.9600 -1.5443 -1.2330
 2573TIP3    H231915   5.910   4.474  16.584 -0.8934 -0.9419 -1.4917
 2574TIP3   OH231916   7.013   2.823  17.848  0.0088  0.5323  0.4190
 2574TIP3    H131917   7.035   2.739  17.890  0.8119  0.5937  0.1269
 2574TIP3    H231918   7.026   2.888  17.917 -2.3744  0.2658  1.2051
 2575TIP3   OH231919   2.046   5.075  17.202 -0.4817 -0.7123 -0.3412
 2575TIP3    H131920   1.996   5.026  17.138  0.4256  1.1830 -2.6632
 2575TIP3    H231921   2.114   5.015  17.231  0.2033 -1.1066 -2.6096
 2576TIP3   OH231922   2.899   6.356  16.921 -0.1051 -0.1664 -0.3301
 2576TIP3    H131923   2.976   6.299  16.922  0.0157 -0.0265 -0.9687
 2576TIP3    H231924   2.921   6.425  16.858 -1.2514 -0.8487 -1.5479
 2577TIP3   OH231925   5.319   2.104  19.092 -0.6676 -0.6458 -0.3941
 2577TIP3    H131926   5.323   2.096  18.997  0.8898  2.0524 -0.6784
 2577TIP3    H231927   5.269   2.028  19.121  2.3039 -3.9134 -2.9667
 2578TIP3   OH231928   5.176   6.318  18.038 -0.3335  0.2255 -0.2676
 2578TIP3    H131929   5.095   6.364  18.016 -0.7374 -0.6935 -0.7467
 2578TIP3    H231930   5.237   6.388  18.061 -1.4284  0.9142  0.7115
 2579TIP3   OH231931   5.262   0.785  17.913  0.9813 -0.1299  0.2648
 2579TIP3    H131932   5.230   0.873  17.895  1.9195  0.3215  0.7633
 2579TIP3    H231933   5.342   0.798  17.963  0.3428 -1.2880  1.6648
 2580TIP3   OH231934   0.383   7.204  18.689 -0.0809 -0.1315  0.0179
 2580TIP3    H131935   0.376   7.125  18.744 -1.1325 -0.7121 -0.8878
 2580TIP3    H231936   0.297   7.246  18.698  0.9851  1.8456  1.7766
 2581TIP3   OH231937   1.021   1.382  19.011  0.3914 -0.4701 -0.0623
 2581TIP3    H131938   0.960   1.455  19.003 -1.5995 -1.9635  0.8088
 2581TIP3    H231939   1.102   1.415  18.973 -0.4638  2.1323  0.1716
 2582TIP3   OH231940   6.589   3.768  16.760 -0.5934  0.0837 -0.5852
 2582TIP3    H131941   6.667   3.719  16.784 -0.7934  0.4905  0.9526
 2582TIP3    H231942   6.541   3.710  16.700 -0.3752 -1.2151  0.4666
 2583TIP3   OH231943   3.117   0.888  18.108 -0.3227  0.0646 -0.1563
 2583TIP3    H131944   3.083   0.808  18.148  0.2250 -1.1442 -2.0036
 2583TIP3    H231945   3.041   0.946  18.101 -0.7236 -0.2423  1.2004
 2584TIP3   OH231946   2.384   7.440  17.507 -0.3353  0.0929  0.4969
 2584TIP3    H131947   2.419   7.371  17.563 -1.4052  1.2581  2.7247
 2584TIP3    H231948   2.368   7.396  17.423  0.7857 -1.8753  1.2438
 2585TIP3   OH231949   3.541   6.916  18.232  0.8009 -0.0022 -0.2131
 2585TIP3    H131950   3.481   6.921  18.306  0.9703 -0.3714 -0.0491
 2585TIP3    H231951   3.610   6.978  18.253  1.0116 -0.3372  0.0876
 2586TIP3   OH231952   3.407   7.079  17.213 -0.0265  0.4024  0.2901
 2586TIP3    H131953   3.349   7.139  17.261  0.0690  0.2623  0.5818
 2586TIP3    H231954   3.468   7.047  17.279 -0.3242 -0.3211  0.2252
 2587TIP3   OH231955   3.251   5.645  16.735 -0.1265  0.5486  0.4953
 2587TIP3    H131956   3.230   5.673  16.646 -0.6430  0.8371  0.7096
 2587TIP3    H231957   3.305   5.716  16.770  1.0889 -0.0935  0.0185
 2588TIP3   OH231958   3.553   0.795  16.263  1.0706  0.7316 -0.4363
 2588TIP3    H131959   3.639   0.809  16.303  0.5605 -0.5230  1.1871
 2588TIP3    H231960   3.570   0.734  16.191  1.6657  1.2439 -0.7419
 2589TIP3   OH231961   6.308   2.721  18.206  0.2822 -0.2335 -0.5180
 2589TIP3    H131962   6.252   2.772  18.264 -0.2658 -1.5234  0.1151
 2589TIP3    H231963   6.250   2.656  18.166  0.9885 -0.4513 -1.2269
 2590TIP3   OH231964   6.317   4.485  17.496  0.0427 -0.5060  0.1069
 2590TIP3    H131965   6.357   4.420  17.439  0.8045 -0.0749  0.1378
 2590TIP3    H231966   6.328   4.449  17.584  1.1142 -0.0117  0.1875
 2591TIP3   OH231967   4.513   1.264  18.055 -0.3752 -0.5296  0.1955
 2591TIP3    H131968   4.504   1.174  18.024  2.5462 -0.4495 -1.2781
 2591TIP3    H231969   4.514   1.316  17.975  1.5885  0.3630  0.7375
 2592TIP3   OH231970   5.415   3.282  18.621 -0.6380  0.3287  0.0148
 2592TIP3    H131971   5.333   3.271  18.572 -0.8577  1.7857  0.0200
 2592TIP3    H231972   5.425   3.377  18.631  0.5884  0.1408  0.8071
 2593TIP3   OH231973   3.471   5.020  17.439 -0.1661 -0.2529  0.3352
 2593TIP3    H131974   3.530   5.050  17.509  0.7858 -0.0461 -0.5264
 2593TIP3    H231975   3.409   5.093  17.428  0.6972  0.4316 -0.1432
 2594TIP3   OH231976   3.113   1.684  18.100  0.1024 -0.4952 -0.1990
 2594TIP3    H131977   3.197   1.664  18.058 -0.0449 -1.1810 -0.1716
 2594TIP3    H231978   3.096   1.609  18.156  0.1105  0.2339  0.8057
 2595TIP3   OH231979   6.627   1.138  19.257  0.2300  0.1616  0.4981
 2595TIP3    H131980   6.541   1.141  19.215  0.8561 -0.6725 -0.9060
 2595TIP3    H231981   6.608   1.149  19.350 -1.1797  2.3520  0.0153
 2596TIP3   OH231982   0.903   1.751  17.995 -0.6564 -0.3544  0.6658
 2596TIP3    H131983   0.960   1.679  17.968 -1.1331 -0.7264  0.6348
 2596TIP3    H231984   0.820   1.708  18.016 -1.2240  0.2853 -0.2166
 2597TIP3   OH231985   4.368   5.300  16.639 -0.0698  0.2179  1.1360
 2597TIP3    H131986   4.279   5.265  16.642  0.5178 -1.5074 -0.0808
 2597TIP3    H231987   4.364   5.380  16.691 -2.3403  0.2133  1.0633
 2598TIP3   OH231988   3.249   6.928  17.930 -0.1731  0.1820 -0.5342
 2598TIP3    H131989   3.302   7.003  17.903  0.0519  0.2146 -0.0141
 2598TIP3    H231990   3.201   6.903  17.851 -0.3654  0.9612 -0.6737
 2599TIP3   OH231991   7.089   5.002  18.383 -0.5759  0.1892 -0.4287
 2599TIP3    H131992   7.039   5.056  18.444  0.6645 -0.1315  0.9322
 2599TIP3    H231993   7.059   4.913  18.399  1.1111 -0.1564  1.2025
 2600TIP3   OH231994   5.152   0.012  18.716 -0.1803 -0.1417 -1.2219
 2600TIP3    H131995   5.171   0.098  18.679  0.5937  0.7391  1.0766
 2600TIP3    H231996   5.065   0.021  18.754  0.7192  0.3202  0.8271
 2601TIP3   OH231997   2.100   1.624  17.458 -0.1708 -0.2827 -0.1379
 2601TIP3    H131998   2.170   1.614  17.394  0.7798  0.1284  0.8109
 2601TIP3    H231999   2.020   1.600  17.410  0.2620  1.6839 -2.0136
 2602TIP3   OH232000   2.609   2.657  16.798  0.6125  0.2272  0.7352
 2602TIP3    H132001   2.615   2.712  16.876  0.2130 -0.0229  0.9504
 2602TIP3    H232002   2.603   2.568  16.832  0.8603  0.0801  0.4034
 2603TIP3   OH232003   3.135   6.642  17.151 -0.1168  0.7150 -0.5703
 2603TIP3    H132004   3.059   6.698  17.139 -0.4767  0.1553 -1.0029
 2603TIP3    H232005   3.195   6.692  17.206 -0.6478  1.3044 -0.5263
 2604TIP3   OH232006   4.295   3.200  17.184 -0.2774 -0.4724 -0.0051
 2604TIP3    H132007   4.309   3.284  17.227 -1.1910  0.2175 -0.9947
 2604TIP3    H232008   4.209   3.171  17.215 -0.7959 -0.1249 -1.0641
 2605TIP3   OH232009   7.477   1.398  16.285 -0.1802 -0.2530 -0.9849
 2605TIP3    H132010   7.430   1.448  16.351  1.4851  0.0107  0.0478
 2605TIP3    H232011   7.511   1.464  16.224  0.2510 -0.3060 -0.8004
 2606TIP3   OH232012   6.429   7.245  17.726  0.0289  0.3210  0.3003
 2606TIP3    H132013   6.350   7.278  17.684  0.4347 -0.3476 -1.0267
 2606TIP3    H232014   6.483   7.323  17.741  0.2543  0.4769 -1.2382
 2607TIP3   OH232015   2.860   3.902  16.640 -0.4997 -0.4957  0.1163
 2607TIP3    H132016   2.772   3.877  16.669  0.2980 -2.0011  1.4786
 2607TIP3    H232017   2.883   3.835  16.576 -0.6543  0.4019 -0.8948
 2608TIP3   OH232018   5.921   5.529  18.188 -0.3077 -0.5055 -0.1934
 2608TIP3    H132019   5.990   5.595  18.188 -1.1194  0.3957  1.4587
 2608TIP3    H232020   5.840   5.579  18.182 -1.1081 -1.0172  3.6178
 2609TIP3   OH232021   5.078   6.000  18.564  0.6585  0.0318  0.0415
 2609TIP3    H132022   5.018   6.073  18.550 -0.2716 -0.5318  0.9234
 2609TIP3    H232023   5.060   5.939  18.493  0.3011 -0.0653  0.2161
 2610TIP3   OH232024   1.275   2.362  16.267  0.3936 -0.4083  0.2935
 2610TIP3    H132025   1.233   2.436  16.223 -0.3785 -0.5124  0.8427
 2610TIP3    H232026   1.348   2.400  16.316  0.5027 -0.1280 -0.0870
 2611TIP3   OH232027   0.151   6.866  16.924  0.0010  0.5587  0.2153
 2611TIP3    H132028   0.094   6.829  16.856 -1.9128  0.5691  1.7292
 2611TIP3    H232029   0.203   6.792  16.955 -0.8431  0.0210  0.3833
 2612TIP3   OH232030   1.878   0.276  16.226  0.0070  0.0519  0.1195
 2612TIP3    H132031   1.920   0.191  16.210  0.3636  0.1842  0.3286
 2612TIP3    H232032   1.939   0.340  16.189 -0.7873  0.1572 -1.0353
 2613TIP3   OH232033   5.785   5.355  17.385 -0.0726  0.7151 -0.0906
 2613TIP3    H132034   5.742   5.320  17.308 -0.3916 -1.2574  0.9178
 2613TIP3    H232035   5.861   5.298  17.398  0.0108  1.0513  1.0177
 2614TIP3   OH232036   6.842   3.645  16.762 -0.0616  0.0696  0.5116
 2614TIP3    H132037   6.861   3.566  16.712 -1.3988 -0.6294  1.0554
 2614TIP3    H232038   6.922   3.663  16.811  0.6318 -0.2931 -0.4648
 2615TIP3   OH232039   1.490   7.050  17.052 -0.5189  0.3719  0.0696
 2615TIP3    H132040   1.543   6.971  17.058 -0.3529  0.5947  3.6399
 2615TIP3    H232041   1.418   7.036  17.113 -3.0491  1.2775 -2.5020
 2616TIP3   OH232042   1.659   6.456  17.018  0.4334  0.0563 -0.0973
 2616TIP3    H132043   1.754   6.469  17.016  0.5814 -0.3153  2.1094
 2616TIP3    H232044   1.631   6.473  16.928  2.9087 -2.4150 -1.5170
 2617TIP3   OH232045   2.390   2.134  16.622  0.0712 -0.0693 -0.3882
 2617TIP3    H132046   2.310   2.127  16.674 -1.0733  1.6271 -1.8137
 2617TIP3    H232047   2.372   2.085  16.543  0.1812  0.8302 -0.9868
 2618TIP3   OH232048   7.276   0.545  18.264  0.0086  0.3955 -0.1255
 2618TIP3    H132049   7.290   0.529  18.357 -1.3027  0.4132  0.0988
 2618TIP3    H232050   7.196   0.497  18.243  0.5626 -0.0380 -1.3770
 2619TIP3   OH232051   6.244   0.849  16.336  0.1534 -0.3723 -0.5529
 2619TIP3    H132052   6.182   0.777  16.347  0.3162 -1.1101 -3.5318
 2619TIP3    H232053   6.280   0.837  16.248  0.3681  3.2064 -1.1420
 2620TIP3   OH232054   5.543   2.722  17.515 -0.6326 -0.4466 -0.2882
 2620TIP3    H132055   5.496   2.739  17.596 -0.8452 -2.0747 -0.0257
 2620TIP3    H232056   5.517   2.792  17.456 -1.0244  0.3578  0.8216
 2621TIP3   OH232057   2.482   5.560  18.455 -0.0045  0.4271  0.0249
 2621TIP3    H132058   2.488   5.653  18.435  1.4911 -0.0943 -2.5487
 2621TIP3    H232059   2.411   5.528  18.398 -3.0261  0.4109  3.4151
 2622TIP3   OH232060   3.802   6.953  19.091  0.1292 -0.2119 -0.0139
 2622TIP3    H132061   3.775   6.920  19.176 -3.1131  0.5053 -0.6187
 2622TIP3    H232062   3.817   6.875  19.038  2.0666 -0.6579  1.0995
 2623TIP3   OH232063   7.000   6.005  18.664  0.1369 -0.5571  0.1040
 2623TIP3    H132064   7.011   5.920  18.707  0.9934 -1.0300 -0.9869
 2623TIP3    H232065   6.937   5.988  18.594  0.0944 -0.2262  0.0646
 2624TIP3   OH232066   0.105   5.743  16.339 -0.3400  0.4210 -0.3007
 2624TIP3    H132067   0.171   5.811  16.332 -1.3980  1.4265 -0.7971
 2624TIP3    H232068   0.032   5.774  16.286 -0.6634 -1.3422 -0.9679
 2625TIP3   OH232069   3.419   7.300  16.318 -0.2034 -0.3336  0.3080
 2625TIP3    H132070   3.403   7.342  16.402  0.2203 -0.3004  0.3716
 2625TIP3    H232071   3.398   7.208  16.332 -0.8605 -0.1987  0.2421
 2626TIP3   OH232072   7.175   0.553  17.314 -0.0187 -0.1603  0.5837
 2626TIP3    H132073   7.085   0.532  17.291 -0.1347 -0.9982  1.7694
 2626TIP3    H232074   7.227   0.523  17.239 -0.7863  1.1560 -0.5109
 2627TIP3   OH232075   3.497   5.557  18.767  0.0650 -0.5714  0.3690
 2627TIP3    H132076   3.416   5.604  18.747  0.1517 -0.2028  0.8624
 2627TIP3    H232077   3.494   5.543  18.861  1.4057  1.0576  0.7125
 2628TIP3   OH232078   0.237   1.603  17.879  0.2135 -0.0553 -0.0418
 2628TIP3    H132079   0.142   1.609  17.889  0.4219  0.6404  1.7335
 2628TIP3    H232080   0.260   1.677  17.823  0.0117  1.5884  1.9566
 2629TIP3   OH232081   3.841   3.456  16.941  0.0163 -0.0381  0.2728
 2629TIP3    H132082   3.789   3.537  16.940 -0.9290 -0.5171 -3.1939
 2629TIP3    H232083   3.778   3.386  16.956  0.4362 -0.3237  0.7458
 2630TIP3   OH232084   4.415   1.086  16.240  0.1078 -0.3313  0.2412
 2630TIP3    H132085   4.366   1.029  16.181 -1.0391  1.1896 -0.3411
 2630TIP3    H232086   4.505   1.082  16.207  0.1406 -2.0609  0.4517
 2631TIP3   OH232087   3.508   2.704  16.893  0.0585  0.0512 -0.2700
 2631TIP3    H132088   3.598   2.736  16.885 -0.3066  0.8048 -1.8176
 2631TIP3    H232089   3.491   2.661  16.810 -0.8106 -0.6641  0.2660
 2632TIP3   OH232090   1.242   3.969  16.574 -0.4103 -0.1583  0.2035
 2632TIP3    H132091   1.207   4.053  16.603  0.5960  0.2946  0.1520
 2632TIP3    H232092   1.334   3.987  16.554 -0.7148 -0.7376 -1.9718
 2633TIP3   OH232093   2.121   1.163  16.136  0.2181 -0.5667 -0.9106
 2633TIP3    H132094   2.133   1.142  16.043 -0.5101 -1.1090 -0.8890
 2633TIP3    H232095   2.026   1.176  16.146  0.3031 -0.3921 -0.2657
 2634TIP3   OH232096   4.906   4.302  15.989 -0.4539  0.2197  0.2295
 2634TIP3    H132097   4.831   4.344  15.947 -1.0092  0.8189  1.7603
 2634TIP3    H232098   4.867   4.236  16.047  0.3643 -1.8659 -1.4626
 2635TIP3   OH232099   7.313   6.461  16.818  0.0393  0.2487 -0.1731
 2635TIP3    H132100   7.277   6.524  16.880 -1.3912 -0.4596 -0.2724
 2635TIP3    H232101   7.298   6.376  16.857 -0.2587 -0.1689 -1.1731
 2636TIP3   OH232102   2.086   4.691  18.270  0.5240 -0.3605 -0.0113
 2636TIP3    H132103   2.158   4.712  18.211 -0.8311 -2.0195 -2.4265
 2636TIP3    H232104   2.009   4.732  18.229 -0.3870 -1.1747  0.8419
 2637TIP3   OH232105   4.519   5.033  18.008 -0.4137  0.3074  0.2116
 2637TIP3    H132106   4.454   5.006  18.073 -0.0219  0.2355  0.5730
 2637TIP3    H232107   4.468   5.044  17.928 -0.6700 -1.0481  0.1581
 2638TIP3   OH232108   7.307   5.975  16.912  0.1750 -0.0031  0.2931
 2638TIP3    H132109   7.363   5.922  16.968 -0.7549  1.0755  2.3259
 2638TIP3    H232110   7.226   5.924  16.905 -1.0035  1.3366  2.8633
 2639TIP3   OH232111   4.265   6.644  17.868  0.4593  0.2263  0.0202
 2639TIP3    H132112   4.192   6.594  17.831 -0.6046 -0.4594  2.7724
 2639TIP3    H232113   4.320   6.667  17.793 -2.8674  1.3037 -2.3222
 2640TIP3   OH232114   5.643   1.723  18.283 -0.4406  0.1332  0.1834
 2640TIP3    H132115   5.591   1.724  18.363 -0.5991  0.0759  0.0810
 2640TIP3    H232116   5.648   1.630  18.260  2.2313 -0.2554  1.8390
 2641TIP3   OH232117   7.372   4.892  16.261 -0.2674  0.2839 -0.6961
 2641TIP3    H132118   7.342   4.807  16.231 -0.2954  0.8206 -2.2916
 2641TIP3    H232119   7.292   4.943  16.273 -0.2705 -0.0039  0.5831
 2642TIP3   OH232120   5.788   3.473  18.163  0.0710  0.2145  0.1594
 2642TIP3    H132121   5.805   3.535  18.091 -1.0025  1.5475  0.9968
 2642TIP3    H232122   5.721   3.516  18.216 -1.4605 -2.1107  0.2700
 2643TIP3   OH232123   2.262   4.391  18.438 -0.3647  0.1418  0.3787
 2643TIP3    H132124   2.172   4.402  18.469 -0.5467 -0.4983  0.0985
 2643TIP3    H232125   2.284   4.475  18.398 -1.1391  0.0401 -0.2988
 2644TIP3   OH232126   2.131   4.736  16.813 -0.0864 -0.3154  0.4894
 2644TIP3    H132127   2.113   4.735  16.719  2.2221 -0.2648  0.0097
 2644TIP3    H232128   2.116   4.827  16.839  1.1605  0.1257 -0.2549
 2645TIP3   OH232129   7.042   3.382  17.712  0.6140 -0.1306 -0.7858
 2645TIP3    H132130   7.118   3.327  17.694 -0.5986 -1.7976 -1.0586
 2645TIP3    H232131   7.034   3.381  17.808  0.2575 -0.9395 -0.8160
 2646TIP3   OH232132   2.383   3.384  17.229  0.0471  0.0387  0.0448
 2646TIP3    H132133   2.457   3.341  17.187  0.0325  2.0238 -2.2455
 2646TIP3    H232134   2.415   3.471  17.250 -1.7288  1.1440 -1.5291
 2647TIP3   OH232135   5.093   2.453  18.200  0.3522  0.2670 -0.3239
 2647TIP3    H132136   5.180   2.425  18.230 -0.3960 -0.3087  1.4319
 2647TIP3    H232137   5.106   2.543  18.170  1.3777  0.5314  0.8213
 2648TIP3   OH232138   3.796   4.361  17.851 -0.1923 -0.3001  0.5031
 2648TIP3    H132139   3.830   4.379  17.939  0.9271  0.6038 -0.1016
 2648TIP3    H232140   3.873   4.366  17.794 -1.0940  0.2699 -0.6907
 2649TIP3   OH232141   7.302   2.939  16.649  0.1145  0.2559 -1.0291
 2649TIP3    H132142   7.263   2.859  16.682  1.9689 -0.5362 -0.6035
 2649TIP3    H232143   7.396   2.919  16.642  0.8819  2.7881  0.5145
 2650TIP3   OH232144   5.258   3.228  17.664 -0.3468 -0.5293  0.0158
 2650TIP3    H132145   5.323   3.239  17.595 -1.6111 -0.1701 -1.1801
 2650TIP3    H232146   5.299   3.266  17.741  0.2865  1.1228 -1.0677
 2651TIP3   OH232147   1.413   1.085  16.261  0.2356  0.2347  0.1933
 2651TIP3    H132148   1.480   1.017  16.260 -0.5498 -0.5678  0.5135
 2651TIP3    H232149   1.355   1.064  16.188 -1.2718 -0.7848  1.5944
 2652TIP3   OH232150   1.418   5.595  16.548  0.2820  0.4132 -0.1912
 2652TIP3    H132151   1.393   5.526  16.486 -1.0749 -0.0064  0.7553
 2652TIP3    H232152   1.491   5.640  16.506  0.6739 -1.0822 -1.2073
 2653TIP3   OH232153   4.015   4.004  17.594  0.3997  0.1141  0.3654
 2653TIP3    H132154   4.022   3.912  17.618 -0.2820 -0.4915 -1.5224
 2653TIP3    H232155   4.072   4.013  17.517 -1.2284  0.7029 -0.8240
 2654TIP3   OH232156   5.581   6.687  18.034 -0.2067 -0.5363 -0.2462
 2654TIP3    H132157   5.521   6.690  18.109 -0.0489  1.0731 -0.1476
 2654TIP3    H232158   5.564   6.602  17.993 -1.6614 -0.6467  0.5157
 2655TIP3   OH232159   3.071   2.410  17.444  0.3399  0.2983 -0.5167
 2655TIP3    H132160   2.987   2.457  17.440  0.8339  1.2201 -0.2119
 2655TIP3    H232161   3.053   2.327  17.400 -1.2329 -0.2821  1.0704
 2656TIP3   OH232162   6.945   0.060  17.350 -0.1715 -0.3585  0.0891
 2656TIP3    H132163   6.950   0.148  17.312  1.4647  0.2567  1.5875
 2656TIP3    H232164   6.851   0.042  17.356 -0.5098  0.6432 -1.6108
 2657TIP3   OH232165   2.909   5.282  17.008  0.3036  0.1079 -0.3143
 2657TIP3    H132166   2.863   5.198  17.009  1.6343 -0.6867  1.6101
 2657TIP3    H232167   2.922   5.303  17.101  0.1432  2.3965 -0.7474
 2658TIP3   OH232168   2.133   5.054  17.471 -0.2981  0.0651  0.2440
 2658TIP3    H132169   2.221   5.019  17.484 -0.4526 -0.4190  0.0103
 2658TIP3    H232170   2.133   5.138  17.518  0.8817  1.0011 -1.3311
 2659TIP3   OH232171   0.499   2.479  18.887  0.1689  0.1477 -0.0041
 2659TIP3    H132172   0.405   2.465  18.886  0.3391 -1.1446 -1.3142
 2659TIP3    H232173   0.527   2.464  18.797  1.5349  1.2275  0.2061
 2660TIP3   OH232174   5.016   1.692  17.765  0.1158 -0.2162 -0.2177
 2660TIP3    H132175   5.086   1.627  17.760 -0.9566 -1.5455  1.2594
 2660TIP3    H232176   5.029   1.736  17.849  1.0321  1.7984 -1.3412
 2661TIP3   OH232177   5.399   1.406  19.015 -0.4650 -0.3534 -0.2085
 2661TIP3    H132178   5.349   1.486  18.998  0.0333  0.1611  0.6715
 2661TIP3    H232179   5.333   1.340  19.035 -0.8171  0.3268  0.9694
 2662TIP3   OH232180   2.022   2.029  18.210 -0.1099 -0.2073  0.3016
 2662TIP3    H132181   2.069   1.947  18.190 -0.4107 -0.4576  0.6094
 2662TIP3    H232182   1.954   2.034  18.144  0.5630  0.3417 -0.3704
 2663TIP3   OH232183   0.534   5.293  17.267  0.2733  0.4079  0.9049
 2663TIP3    H132184   0.603   5.283  17.332  0.6465 -2.0868  0.2550
 2663TIP3    H232185   0.578   5.330  17.191  0.7455 -0.3562  0.7901
 2664TIP3   OH232186   0.621   4.922  18.084 -0.1916 -0.1299  0.3396
 2664TIP3    H132187   0.716   4.919  18.072 -0.2881 -1.2130 -0.2618
 2664TIP3    H232188   0.586   4.877  18.007 -1.1120 -1.5481  1.5449
 2665TIP3   OH232189   3.576   0.309  18.335 -0.0376 -0.1112 -0.2382
 2665TIP3    H132190   3.511   0.274  18.274  0.3584  0.3800 -0.9571
 2665TIP3    H232191   3.548   0.277  18.420 -1.4878  0.4754 -0.4666
 2666TIP3   OH232192   4.408   2.836  17.715  0.4617  0.6737 -0.1728
 2666TIP3    H132193   4.407   2.919  17.666 -2.1820  0.0996 -1.2266
 2666TIP3    H232194   4.340   2.846  17.781  0.1938 -0.6107 -0.2304
 2667TIP3   OH232195   4.377   4.052  16.648  0.5895  0.2834  0.0694
 2667TIP3    H132196   4.408   4.141  16.629 -0.4695  1.1083  1.8992
 2667TIP3    H232197   4.281   4.059  16.644  0.5027 -1.2289 -1.4692
 2668TIP3   OH232198   2.759   3.646  17.641  1.3018  0.1068  0.4885
 2668TIP3    H132199   2.708   3.702  17.581  0.9945 -2.4528 -1.8309
 2668TIP3    H232200   2.699   3.630  17.714 -0.6527 -1.2680 -1.2755
 2669TIP3   OH232201   7.116   3.120  18.928 -0.3744  0.7454 -0.1679
 2669TIP3    H132202   7.186   3.055  18.930  0.3673  1.5484  1.4346
 2669TIP3    H232203   7.036   3.068  18.922  0.2607 -0.2604 -0.2749
 2670TIP3   OH232204   7.105   0.657  19.039 -0.3563  0.5848 -0.0147
 2670TIP3    H132205   7.038   0.589  19.028  1.2552 -1.1479  0.4133
 2670TIP3    H232206   7.064   0.736  19.005 -1.6596 -0.9745 -2.3525
 2671TIP3   OH232207   6.302   2.998  17.871 -0.2231 -0.2911 -0.3528
 2671TIP3    H132208   6.267   2.963  17.789 -1.5943 -1.1956  0.5778
 2671TIP3    H232209   6.377   3.052  17.844  0.0107 -1.4051 -2.1007
 2672TIP3   OH232210   1.218   4.659  17.037  0.4113  0.2302 -0.1180
 2672TIP3    H132211   1.134   4.680  16.998  0.5474 -0.3944 -0.7804
 2672TIP3    H232212   1.215   4.564  17.052  0.2323  0.4839  1.7463
 2673TIP3   OH232213   2.942   2.282  16.202  0.2891 -0.6028  0.2322
 2673TIP3    H132214   3.034   2.291  16.177  0.1170 -1.4648 -0.8019
 2673TIP3    H232215   2.899   2.249  16.123 -1.0944  0.6881  0.3934
 2674TIP3   OH232216   2.343   4.539  18.765  0.3425 -0.2281  0.1299
 2674TIP3    H132217   2.430   4.556  18.802 -0.4823 -0.9757  2.6105
 2674TIP3    H232218   2.326   4.447  18.785 -1.7022  0.3472  1.3081
 2675TIP3   OH232219   6.422   0.761  19.000  0.0276 -0.3669  0.4844
 2675TIP3    H132220   6.501   0.749  19.053 -0.7050 -1.8979  1.2987
 2675TIP3    H232221   6.425   0.853  18.973  2.9775 -0.7707 -1.0101
 2676TIP3   OH232222   0.012   0.347  16.884  0.2208 -0.4925  0.3181
 2676TIP3    H132223   0.053   0.263  16.864 -1.9757 -1.6403  0.4233
 2676TIP3    H232224   0.018   0.397  16.803  0.4825 -1.2003 -0.0994
 2677TIP3   OH232225   2.357   6.424  17.577 -0.2637  0.3294  0.4458
 2677TIP3    H132226   2.270   6.436  17.615 -0.3183  1.7744 -0.0653
 2677TIP3    H232227   2.389   6.513  17.564  0.7388 -0.1694 -0.6244
 2678TIP3   OH232228   2.113   7.225  17.806  0.3843  0.2170  0.4096
 2678TIP3    H132229   2.197   7.245  17.847  0.1106  2.0531  0.1619
 2678TIP3    H232230   2.123   7.253  17.715 -0.3071 -0.0731  0.2400
 2679TIP3   OH232231   6.204   2.977  16.953 -0.4382 -0.3904 -0.2193
 2679TIP3    H132232   6.113   3.003  16.967 -0.6922 -0.8847 -0.9213
 2679TIP3    H232233   6.240   2.965  17.041 -1.4091 -1.4218  0.0527
 2680TIP3   OH232234   5.975   0.809  16.698 -0.1604 -0.3676  0.0342
 2680TIP3    H132235   5.954   0.901  16.682  1.5986  0.3229  1.3310
 2680TIP3    H232236   6.068   0.802  16.676 -0.1488 -1.7106  0.4247
 2681TIP3   OH232237   2.492   6.369  16.421  0.2463 -0.9667 -0.2075
 2681TIP3    H132238   2.507   6.286  16.375  3.4198 -0.9523  0.5782
 2681TIP3    H232239   2.471   6.431  16.351 -0.2521 -1.9854 -1.0102
 2682TIP3   OH232240   4.914   7.056  17.558 -0.1410  0.2471  0.3926
 2682TIP3    H132241   4.881   7.138  17.594 -0.8155  0.0091  0.3378
 2682TIP3    H232242   4.869   6.988  17.609  0.4187 -0.0914  0.4447
 2683TIP3   OH232243   1.695   3.958  19.233 -0.2812 -0.2754 -0.4282
 2683TIP3    H132244   1.677   3.884  19.291 -0.1882 -1.5156 -1.9302
 2683TIP3    H232245   1.609   3.998  19.219 -0.7813 -1.6748 -1.6274
 2684TIP3   OH232246   4.031   6.506  17.823 -0.6116 -0.5244 -0.0491
 2684TIP3    H132247   4.058   6.484  17.913 -0.5283  0.3697  0.1530
 2684TIP3    H232248   3.936   6.496  17.823 -0.5415 -1.2138 -0.0585
 2685TIP3   OH232249   0.373   5.089  16.271  0.1404  0.7095 -0.7893
 2685TIP3    H132250   0.380   5.139  16.190 -3.6597  0.9394 -1.1497
 2685TIP3    H232251   0.288   5.045  16.265  0.1289 -0.0042  2.6666
 2686TIP3   OH232252   4.246   4.192  18.123 -0.1557  0.3554  0.0874
 2686TIP3    H132253   4.318   4.255  18.132  0.2255 -0.3605  3.0437
 2686TIP3    H232254   4.290   4.110  18.102 -0.5016  0.6212 -1.8717
 2687TIP3   OH232255   0.874   3.042  17.828  0.7775 -0.2399 -0.0156
 2687TIP3    H132256   0.832   3.121  17.795  2.6484  0.4364 -0.8663
 2687TIP3    H232257   0.926   3.072  17.903 -0.2998 -1.1044  1.1454
 2688TIP3   OH232258   3.112   0.410  17.752  0.0856 -0.1627  0.7149
 2688TIP3    H132259   3.143   0.483  17.699  0.1618  0.0168  1.0007
 2688TIP3    H232260   3.038   0.374  17.703 -0.1412  0.2933  0.7135
 2689TIP3   OH232261   5.625   0.660  18.682  0.3609 -0.0331 -0.0978
 2689TIP3    H132262   5.608   0.673  18.588 -0.2646 -0.9538 -0.1191
 2689TIP3    H232263   5.715   0.630  18.686  0.2041 -0.5623 -0.4580
 2690TIP3   OH232264   5.764   4.219  17.217 -0.0812  0.3469 -0.2314
 2690TIP3    H132265   5.818   4.291  17.249 -3.0260  1.2914  3.3620
 2690TIP3    H232266   5.718   4.256  17.141  1.3432  0.8601 -0.8729
 2691TIP3   OH232267   6.192   0.973  17.953 -0.1113  0.2340  0.5232
 2691TIP3    H132268   6.281   0.956  17.922  0.3793  1.1966  1.3536
 2691TIP3    H232269   6.172   0.899  18.011 -0.5303 -0.8786 -0.9889
 2692TIP3   OH232270   6.730   5.426  17.526  0.0216  0.7145 -0.0786
 2692TIP3    H132271   6.666   5.442  17.457 -2.4993 -1.9401  1.4029
 2692TIP3    H232272   6.768   5.341  17.505  2.1455  1.6216 -0.1661
 2693TIP3   OH232273   0.311   5.446  17.244 -0.4292 -0.0368 -0.3806
 2693TIP3    H132274   0.394   5.399  17.253 -1.4822 -1.8621  0.4308
 2693TIP3    H232275   0.336   5.537  17.226  1.7247 -0.5618 -0.2619
 2694TIP3   OH232276   0.994   0.511  18.220 -0.1209  0.3408  0.4344
 2694TIP3    H132277   0.900   0.495  18.216 -0.2076  0.9141  0.0814
 2694TIP3    H232278   1.005   0.573  18.291  0.1817 -0.9743  1.5820
 2695TIP3   OH232279   3.709   6.449  18.841 -0.2514 -0.2940  0.2188
 2695TIP3    H132280   3.660   6.383  18.791  0.3011 -1.3767  1.0914
 2695TIP3    H232281   3.800   6.437  18.814 -0.2164  0.5238 -0.0568
 2696TIP3   OH232282   3.274   6.398  18.139  0.0688  0.2301 -0.0639
 2696TIP3    H132283   3.264   6.491  18.161 -0.4071  0.1764 -0.0372
 2696TIP3    H232284   3.306   6.358  18.220  0.1644  0.3525 -0.0398
 2697TIP3   OH232285   1.842   1.567  17.331 -0.5795 -0.6586 -0.1305
 2697TIP3    H132286   1.808   1.539  17.246 -0.0787  1.5769 -1.1563
 2697TIP3    H232287   1.817   1.659  17.337  0.6334 -0.3923  1.5159
 2698TIP3   OH232288   1.169   6.256  16.533  0.1741 -0.0405 -0.0766
 2698TIP3    H132289   1.157   6.223  16.622  2.2194 -0.9305 -0.0790
 2698TIP3    H232290   1.243   6.206  16.498  0.7767  1.7345 -1.5408
 2699TIP3   OH232291   0.570   6.346  18.456  0.7901  0.4388 -0.0703
 2699TIP3    H132292   0.506   6.308  18.516 -0.4149 -1.0594 -2.1739
 2699TIP3    H232293   0.528   6.425  18.422 -0.3156 -0.8060 -1.8330
 2700TIP3   OH232294   4.221   7.051  17.972 -0.3235  0.1177 -0.1865
 2700TIP3    H132295   4.159   7.094  18.031  1.3241  1.4204  0.7047
 2700TIP3    H232296   4.252   6.975  18.021  0.0953  0.4830  0.1275
 2701TIP3   OH232297   4.817   2.764  15.830 -0.0898 -0.1731  0.1808
 2701TIP3    H132298   4.872   2.790  15.756  2.1034  0.0555  1.8043
 2701TIP3    H232299   4.838   2.827  15.899 -2.6716  0.1178  0.8043
 2702TIP3   OH232300   6.815   1.278  18.263  0.4356  0.2339 -0.8706
 2702TIP3    H132301   6.890   1.222  18.285 -0.4933 -0.3112  1.1456
 2702TIP3    H232302   6.774   1.235  18.188  0.6075 -0.9621 -0.2998
 2703TIP3   OH232303   4.505   3.151  18.761  0.3014  0.3030  0.3154
 2703TIP3    H132304   4.578   3.162  18.822  0.6597 -0.8202  0.1150
 2703TIP3    H232305   4.432   3.122  18.816  0.6870 -0.9357  0.2095
 2704TIP3   OH232306   3.975   3.016  15.908  0.0305  0.0438  0.3800
 2704TIP3    H132307   3.934   2.972  15.982 -1.6922  0.4452 -0.2969
 2704TIP3    H232308   3.998   3.102  15.941 -1.5690  0.5555  0.2483
 2705TIP3   OH232309   5.210   1.573  18.116 -0.5391 -0.2417 -0.1607
 2705TIP3    H132310   5.286   1.540  18.165 -0.0008  1.7608  0.4363
 2705TIP3    H232311   5.134   1.538  18.162 -0.0118  0.4796  1.2862
 2706TIP3   OH232312   2.826   4.320  18.462  0.6926  0.1317 -0.0612
 2706TIP3    H132313   2.872   4.402  18.481 -3.8345  2.6335  1.6675
 2706TIP3    H232314   2.803   4.286  18.549 -1.0078 -0.7253 -0.8180
 2707TIP3   OH232315   6.436   5.659  17.581  0.5743  0.0583  0.0368
 2707TIP3    H132316   6.453   5.742  17.536 -0.4748  0.4394  0.3199
 2707TIP3    H232317   6.363   5.677  17.639  0.2170 -1.1157 -0.0148
 2708TIP3   OH232318   5.830   4.319  18.581 -0.0175  0.3821  1.1101
 2708TIP3    H132319   5.752   4.368  18.607 -1.3313  0.0457 -1.8566
 2708TIP3    H232320   5.799   4.229  18.567  0.9875  0.1393  0.3220
 2709TIP3   OH232321   5.643   0.015  18.500  0.3745 -0.4313 -0.1472
 2709TIP3    H132322   5.604  -0.068  18.474 -1.5357  0.0484  1.0068
 2709TIP3    H232323   5.600   0.081  18.445  1.2192 -0.1036 -0.4327
 2710TIP3   OH232324   3.123   4.649  17.700 -0.3696 -0.2154  0.9014
 2710TIP3    H132325   3.072   4.690  17.770 -0.3909 -0.0800  0.8063
 2710TIP3    H232326   3.205   4.624  17.741  0.0632  0.8597  0.7090
 2711TIP3   OH232327   3.776   5.284  16.180  0.3003  0.1127  0.1385
 2711TIP3    H132328   3.714   5.279  16.253  0.1489  1.7658  0.1748
 2711TIP3    H232329   3.733   5.238  16.108 -0.6871  0.6410  0.3649
 2712TIP3   OH232330   5.075   1.178  16.856  0.4565 -0.2424  0.5451
 2712TIP3    H132331   5.096   1.180  16.762 -1.7761  1.0187 -0.0098
 2712TIP3    H232332   5.047   1.267  16.876 -0.9746 -0.9475  1.9213
 2713TIP3   OH232333   3.113   0.811  17.242  0.1290 -0.2853 -0.3503
 2713TIP3    H132334   3.107   0.757  17.163 -0.8083 -0.4776 -0.1708
 2713TIP3    H232335   3.097   0.900  17.212  0.7443 -0.2259 -0.5137
 2714TIP3   OH232336   0.233   2.473  17.684  0.9390 -0.0088 -0.4511
 2714TIP3    H132337   0.306   2.516  17.729 -0.3978 -0.0647  1.9024
 2714TIP3    H232338   0.244   2.380  17.704 -0.1697  0.0611  0.6152
 2715TIP3   OH232339   2.254   5.700  16.513 -0.3390 -0.2231  0.0777
 2715TIP3    H132340   2.274   5.661  16.598  0.9019  1.1314  0.4564
 2715TIP3    H232341   2.288   5.637  16.449  0.7642 -0.2360  0.6453
 2716TIP3   OH232342   5.235   2.916  18.890 -0.1973  0.2835  0.2026
 2716TIP3    H132343   5.175   2.939  18.819 -1.2056  2.0272  1.5634
 2716TIP3    H232344   5.291   2.992  18.900 -1.4576  0.9654  2.6442
 2717TIP3   OH232345   6.621   5.154  18.674  0.7488  0.0455  0.5497
 2717TIP3    H132346   6.685   5.222  18.697  1.2144  0.3118 -1.3735
 2717TIP3    H232347   6.557   5.199  18.618  2.6982 -1.5612 -3.3443
 2718TIP3   OH232348   4.791   3.705  18.404  0.0456 -0.1028 -0.3895
 2718TIP3    H132349   4.722   3.652  18.444 -1.9409  1.0699 -2.0391
 2718TIP3    H232350   4.775   3.793  18.437 -0.5823  0.5646 -2.3560
 2719TIP3   OH232351   6.937   4.607  17.663  0.5390  0.2695  0.0289
 2719TIP3    H132352   7.022   4.573  17.691  0.9495  1.6185  0.4704
 2719TIP3    H232353   6.957   4.681  17.606 -0.3291  0.5591  0.0827
 2720TIP3   OH232354   5.721   4.280  18.077 -0.1173 -0.1257 -0.3780
 2720TIP3    H132355   5.766   4.276  18.162  0.2299  2.6048 -0.3571
 2720TIP3    H232356   5.708   4.188  18.053  0.3759 -0.9904  2.2982
 2721TIP3   OH232357   4.601   6.010  18.558  0.5331 -0.0821  0.8799
 2721TIP3    H132358   4.557   6.075  18.504 -0.1585 -1.8594 -0.7978
 2721TIP3    H232359   4.635   6.060  18.633 -0.8182  2.0024  0.1798
 2722TIP3   OH232360   3.918   5.078  16.599  0.0769  0.1217  0.2287
 2722TIP3    H132361   3.925   5.023  16.522 -0.6902 -0.2853  0.4379
 2722TIP3    H232362   3.833   5.121  16.590 -0.3013 -0.4101  1.1458
 2723TIP3   OH232363   4.811   5.938  15.881  0.0328  0.0393 -0.4950
 2723TIP3    H132364   4.813   5.972  15.792 -2.0344 -1.0883 -1.0322
 2723TIP3    H232365   4.826   5.844  15.871  0.8352  0.0459  0.4711
 2724TIP3   OH232366   5.204   1.192  19.034  0.0833  0.5113 -0.3117
 2724TIP3    H132367   5.205   1.169  19.127 -0.4407  0.5984 -0.2833
 2724TIP3    H232368   5.168   1.114  18.991 -0.1450  0.6569 -0.3861
 2725TIP3   OH232369   2.223   4.140  17.782 -0.5429  0.1470  0.2332
 2725TIP3    H132370   2.154   4.096  17.832 -0.1094 -0.3234  0.4241
 2725TIP3    H232371   2.178   4.212  17.738 -1.5271 -1.2256 -1.1180
 2726TIP3   OH232372   5.495   5.516  17.362 -0.5926 -0.3860  0.1386
 2726TIP3    H132373   5.574   5.533  17.413 -0.8038 -0.2577  0.4293
 2726TIP3    H232374   5.449   5.448  17.411  0.4421 -2.1688 -1.2179
 2727TIP3   OH232375   0.869   1.555  17.092 -0.1185  0.0520 -0.8725
 2727TIP3    H132376   0.890   1.464  17.072  0.0982 -0.3939  1.1200
 2727TIP3    H232377   0.779   1.566  17.062  0.1448 -0.5320 -1.9359
 2728TIP3   OH232378   2.592   3.621  17.857 -1.0687  0.5083  0.7037
 2728TIP3    H132379   2.528   3.676  17.903 -0.1405  1.0992  1.3109
 2728TIP3    H232380   2.638   3.575  17.926 -0.1307  0.8765  0.3345
 2729TIP3   OH232381   7.043   5.129  18.034  0.4781  0.1367 -0.1806
 2729TIP3    H132382   7.112   5.130  18.101 -1.7912 -3.5112  2.6115
 2729TIP3    H232383   7.068   5.058  17.975  0.0761  0.0656 -0.2704
 2730TIP3   OH232384   3.999   0.287  17.468  0.2543 -0.4150  0.0305
 2730TIP3    H132385   3.924   0.338  17.438  0.6423 -0.5689 -1.2746
 2730TIP3    H232386   3.987   0.200  17.430  1.5856 -0.1583 -1.0504
 2731TIP3   OH232387   4.935   3.475  17.132 -0.4012 -0.2854  0.3063
 2731TIP3    H132388   4.909   3.566  17.117  0.3789  0.0742  0.9906
 2731TIP3    H232389   4.957   3.472  17.225  0.8854 -0.8167  0.0157
 2732TIP3   OH232390   1.443   4.716  17.597 -0.0781  0.4063  0.4208
 2732TIP3    H132391   1.400   4.704  17.682 -2.1182  0.9230 -0.4698
 2732TIP3    H232392   1.462   4.810  17.593 -0.4958  0.4789  0.0885
 2733TIP3   OH232393   6.789   2.451  16.942  0.2613  0.3951  0.0816
 2733TIP3    H132394   6.748   2.468  16.858  0.4899  3.6023  0.5159
 2733TIP3    H232395   6.883   2.448  16.923  0.2009 -1.9152 -0.1479
 2734TIP3   OH232396   4.260   5.474  15.769  0.4319 -1.0993  0.0055
 2734TIP3    H132397   4.338   5.428  15.799  0.3439 -1.9198 -0.9782
 2734TIP3    H232398   4.192   5.406  15.767 -0.1838 -0.5064  0.3431
 2735TIP3   OH232399   1.860   1.194  17.794  0.1997 -0.1548 -0.2495
 2735TIP3    H132400   1.902   1.119  17.837  0.9273 -0.1183 -0.8709
 2735TIP3    H232401   1.808   1.155  17.723 -1.2244 -0.2395  0.7860
 2736TIP3   OH232402   0.604   3.861  16.503 -0.9459  0.1261 -0.6032
 2736TIP3    H132403   0.600   3.957  16.510 -1.7020  0.0612 -0.0229
 2736TIP3    H232404   0.513   3.833  16.506 -0.9553 -0.4653 -3.4859
 2737TIP3   OH232405   0.108   6.460  17.480  0.0063 -0.3878  0.1090
 2737TIP3    H132406   0.016   6.466  17.506  0.0448 -2.0055  0.7277
 2737TIP3    H232407   0.156   6.451  17.562  0.7812  0.7962 -0.1853
 2738TIP3   OH232408   6.293   1.908  18.406 -0.4848 -0.0545 -0.3524
 2738TIP3    H132409   6.349   1.837  18.374 -0.0821 -0.1707  0.5545
 2738TIP3    H232410   6.339   1.988  18.381  0.3735 -0.1524  0.8095
 2739TIP3   OH232411   2.343   2.248  18.220 -0.4412 -0.4184  0.1125
 2739TIP3    H132412   2.361   2.280  18.131  0.3027 -0.5906  0.1972
 2739TIP3    H232413   2.400   2.172  18.230 -2.3398 -1.9679 -0.1726
 2740TIP3   OH232414   3.712   4.146  17.292  0.4935  0.1813  0.1961
 2740TIP3    H132415   3.730   4.219  17.350  0.3746  0.6220 -0.3162
 2740TIP3    H232416   3.691   4.186  17.207  1.0267 -0.4558 -0.2541
 2741TIP3   OH232417   6.950   1.712  17.775  0.5006  0.2940 -0.8468
 2741TIP3    H132418   6.999   1.714  17.857 -0.3243  1.0152 -0.3546
 2741TIP3    H232419   7.007   1.754  17.711  0.0604  2.2714  0.0047
 2742TIP3   OH232420   6.870   3.611  17.653 -0.0392  0.2767 -0.0875
 2742TIP3    H132421   6.798   3.597  17.592  0.4994  0.8050 -0.8541
 2742TIP3    H232422   6.948   3.582  17.606  0.2170 -0.7022  0.8889
 2743TIP3   OH232423   1.757   5.553  17.368 -0.1567  0.1222  0.9133
 2743TIP3    H132424   1.836   5.574  17.418  0.4428 -1.0330  0.4747
 2743TIP3    H232425   1.764   5.460  17.348 -0.3262  0.5472 -1.4112
 2744TIP3   OH232426   0.300   5.358  16.596 -0.1319 -0.9331 -0.2031
 2744TIP3    H132427   0.330   5.267  16.601  0.2235 -0.9879 -2.3152
 2744TIP3    H232428   0.240   5.360  16.522 -0.6527  0.4367  0.2169
 2745TIP3   OH232429   7.321   6.635  16.500  0.4975 -0.1412  0.1331
 2745TIP3    H132430   7.361   6.705  16.449 -0.4595 -0.4181 -1.0297
 2745TIP3    H232431   7.395   6.588  16.538  1.1858  0.7511 -0.0682
 2746TIP3   OH232432   3.619   7.029  17.033 -0.1890  0.0724 -0.3942
 2746TIP3    H132433   3.543   7.039  17.090 -0.8806 -1.4379 -1.0021
 2746TIP3    H232434   3.613   7.101  16.971 -0.9481  0.1595 -0.2242
 2747TIP3   OH232435   3.496   4.453  17.962  0.2223  0.6267 -0.3924
 2747TIP3    H132436   3.570   4.413  17.916  1.1286 -0.5898  1.9021
 2747TIP3    H232437   3.471   4.388  18.028 -1.8014  1.7216  0.0012
 2748TIP3   OH232438   6.819   3.853  17.363  0.8660 -0.2453 -0.1070
 2748TIP3    H132439   6.883   3.851  17.292  0.4962 -0.4917 -0.4466
 2748TIP3    H232440   6.792   3.761  17.372  0.3959 -0.1142 -0.1336
 2749TIP3   OH232441   4.164   1.045  17.900 -0.5845 -0.0673  0.1730
 2749TIP3    H132442   4.229   1.009  17.840  0.0899  1.2365  0.0854
 2749TIP3    H232443   4.192   1.136  17.915 -1.8569  0.2400  0.8818
 2750TIP3   OH232444   3.518   1.938  17.772 -0.4291  0.0798 -0.7604
 2750TIP3    H132445   3.442   1.982  17.733 -0.3612  1.1371  0.2591
 2750TIP3    H232446   3.508   1.951  17.866  0.2717 -1.0184 -0.5179
 2751TIP3   OH232447   3.231   2.718  16.715  0.7701  0.2188  0.0047
 2751TIP3    H132448   3.291   2.779  16.757  0.9986 -0.0769  0.1103
 2751TIP3    H232449   3.241   2.735  16.621  1.4844 -0.2577 -0.0083
 2752TIP3   OH232450   5.511   4.820  16.824  0.0805 -0.2736  0.1404
 2752TIP3    H132451   5.472   4.886  16.881  1.5625 -0.4275  1.3614
 2752TIP3    H232452   5.604   4.821  16.845  0.2705 -2.1248 -0.4680
 2753TIP3   OH232453   1.810   7.373  17.570  0.0865  0.4004  0.0014
 2753TIP3    H132454   1.842   7.304  17.628  0.1733  0.3144 -0.1486
 2753TIP3    H232455   1.781   7.328  17.491 -0.1421  0.5068  0.0222
 2754TIP3   OH232456   3.794   1.870  18.477  0.2556  0.7905  0.4766
 2754TIP3    H132457   3.716   1.919  18.450 -0.1806 -0.3516 -0.4088
 2754TIP3    H232458   3.867   1.913  18.432 -0.1000  0.7292 -0.1544
 2755TIP3   OH232459   3.632   0.450  17.484  0.0273  0.2881 -0.0561
 2755TIP3    H132460   3.711   0.500  17.464 -0.0099  0.6419  0.6721
 2755TIP3    H232461   3.642   0.369  17.433 -0.0116  1.0972 -1.3983
 2756TIP3   OH232462   5.938   6.523  17.545  0.2484 -0.2265  0.5084
 2756TIP3    H132463   5.843   6.537  17.556  0.3842  0.7613  0.4965
 2756TIP3    H232464   5.960   6.568  17.464  0.3196 -2.5303 -0.8262
 2757TIP3   OH232465   4.362   5.315  18.610  0.4129  0.5056 -0.3441
 2757TIP3    H132466   4.402   5.402  18.616 -1.5921  1.4801 -0.1223
 2757TIP3    H232467   4.351   5.300  18.516  1.7270 -0.0023 -0.4293
 2758TIP3   OH232468   0.426   3.258  16.697  0.4707  0.5464 -0.0204
 2758TIP3    H132469   0.470   3.341  16.677  1.5635  0.1320  0.5303
 2758TIP3    H232470   0.491   3.209  16.748  0.4593 -1.2699 -1.6433
 2759TIP3   OH232471   4.236   4.563  18.380  0.2391 -0.3264  0.0883
 2759TIP3    H132472   4.156   4.554  18.329  0.4266 -0.4680 -0.1818
 2759TIP3    H232473   4.263   4.474  18.399  0.3952 -0.2808  0.0811
 2760TIP3   OH232474   6.124   4.210  15.889 -0.2433  0.6383  0.1286
 2760TIP3    H132475   6.181   4.199  15.965 -0.2330  1.7426  0.2982
 2760TIP3    H232476   6.171   4.168  15.818  0.3982  0.8097  0.4430
 2761TIP3   OH232477   6.990   6.544  17.822 -0.7419  0.0353 -0.2346
 2761TIP3    H132478   6.955   6.553  17.733 -0.2045  0.0487 -0.4486
 2761TIP3    H232479   7.028   6.457  17.825  0.8920  0.7041 -0.6217
 2762TIP3   OH232480   0.816   5.316  16.496 -0.4563 -0.2663 -0.0300
 2762TIP3    H132481   0.887   5.259  16.465 -1.8800 -1.5023 -1.1903
 2762TIP3    H232482   0.808   5.384  16.428 -0.5897 -0.3252 -0.0746
 2763TIP3   OH232483   0.986   1.794  17.142  0.5605  0.2335  0.0180
 2763TIP3    H132484   0.965   1.703  17.123 -0.3737  0.5532 -0.5119
 2763TIP3    H232485   0.916   1.845  17.102  0.7189  1.1595  0.8584
 2764TIP3   OH232486   4.975   2.823  18.946  0.2673  0.3690  0.3592
 2764TIP3    H132487   4.951   2.811  18.854 -0.2983 -0.1986  0.5686
 2764TIP3    H232488   5.063   2.860  18.944  0.2971  0.2658 -0.4078
 2765TIP3   OH232489   6.858   6.873  18.962  0.4052 -0.3381 -0.3063
 2765TIP3    H132490   6.786   6.819  18.928  1.2314 -1.7007  0.0546
 2765TIP3    H232491   6.856   6.859  19.057  0.5140  0.4322 -0.1824
 2766TIP3   OH232492   2.481   3.175  18.797 -0.1231 -0.0805  0.2795
 2766TIP3    H132493   2.447   3.242  18.738 -0.1989 -0.3695 -0.0062
 2766TIP3    H232494   2.542   3.222  18.855 -1.1330  0.4695  0.9118
 2767TIP3   OH232495   5.342   3.365  17.903  0.2057  0.2088 -0.0893
 2767TIP3    H132496   5.431   3.350  17.935  0.9507  2.8861 -0.6591
 2767TIP3    H232497   5.298   3.410  17.975 -1.0239 -1.8184  0.5086
 2768TIP3   OH232498   6.459   1.752  18.002  0.2432 -0.2057  0.2449
 2768TIP3    H132499   6.443   1.846  18.011 -1.2562 -0.2599 -1.3243
 2768TIP3    H232500   6.522   1.744  17.930 -0.0156 -0.4109  0.0354
 2769TIP3   OH232501   6.412   1.448  18.854  0.2818 -0.6799  0.4140
 2769TIP3    H132502   6.348   1.384  18.823  0.0064  0.9310 -2.8199
 2769TIP3    H232503   6.388   1.464  18.946 -1.9737 -2.4167  0.2110
 2770TIP3   OH232504   7.184   2.683  18.356  0.3327  0.6854 -0.1160
 2770TIP3    H132505   7.179   2.762  18.303  1.9945 -0.7671 -2.6797
 2770TIP3    H232506   7.095   2.649  18.358  0.1831  0.8744 -1.9368
 2771TIP3   OH232507   1.722   5.724  18.746 -0.0936 -0.8130 -0.0130
 2771TIP3    H132508   1.657   5.713  18.815  1.4846 -0.4569  1.5908
 2771TIP3    H232509   1.681   5.787  18.685 -0.3628  1.3136  2.2001
 2772TIP3   OH232510   5.422   2.064  17.281 -0.3399 -0.2894  0.4848
 2772TIP3    H132511   5.418   2.125  17.355 -0.2579  0.7249 -0.3181
 2772TIP3    H232512   5.507   2.022  17.289 -0.5244 -0.5383  1.2231
 2773TIP3   OH232513   6.108   2.167  19.179  0.5883 -0.0598  1.0011
 2773TIP3    H132514   6.096   2.177  19.084  2.9802 -3.6800  0.0814
 2773TIP3    H232515   6.048   2.095  19.202  1.7374 -0.8230  1.6675
 2774TIP3   OH232516   0.773   1.226  17.881 -0.1498  0.0152  0.1627
 2774TIP3    H132517   0.735   1.139  17.891  0.0612 -0.0266  0.6556
 2774TIP3    H232518   0.708   1.276  17.832 -0.5906 -0.2122  0.5123
 2775TIP3   OH232519   6.290   4.041  17.346 -0.6227 -0.4743 -0.0392
 2775TIP3    H132520   6.326   4.110  17.401  0.2291 -0.2872 -0.7917
 2775TIP3    H232521   6.315   3.960  17.389  0.7651 -0.3479 -0.5492
 2776TIP3   OH232522   4.536   1.305  17.209 -0.2486 -0.0838  0.0354
 2776TIP3    H132523   4.493   1.390  17.198  1.2224  0.6665 -0.2047
 2776TIP3    H232524   4.467   1.241  17.191 -1.2189  1.0532 -0.4823
 2777TIP3   OH232525   1.997   6.175  17.352 -0.4183  0.6934 -0.3609
 2777TIP3    H132526   1.931   6.158  17.286  0.6146  1.1168 -1.5474
 2777TIP3    H232527   2.078   6.142  17.313  0.2851  1.3576  0.5061
 2778TIP3   OH232528   4.181   5.426  18.776 -0.3271 -0.2448  0.2275
 2778TIP3    H132529   4.230   5.376  18.711  0.4247  0.4873  0.2297
 2778TIP3    H232530   4.198   5.517  18.755 -3.2586  0.1338 -1.0123
 2779TIP3   OH232531   6.962   0.687  18.794 -0.0820  0.3057  0.7964
 2779TIP3    H132532   6.867   0.677  18.788 -0.0243  0.7102 -1.9484
 2779TIP3    H232533   6.974   0.776  18.830 -0.6703 -0.1891  2.3189
 2780TIP3   OH232534   5.214   1.927  17.559  1.1188 -0.4134 -0.0260
 2780TIP3    H132535   5.152   1.982  17.606 -1.7636 -3.6323  0.3303
 2780TIP3    H232536   5.215   1.962  17.470 -0.5496  0.2872  0.1958
 2781TIP3   OH232537   0.308   0.184  18.874 -0.1496  0.2523  0.3347
 2781TIP3    H132538   0.304   0.269  18.918 -0.8293 -1.1788  3.2720
 2781TIP3    H232539   0.401   0.171  18.855 -0.1559  2.0927 -1.2928
 2782TIP3   OH232540   5.643   0.366  16.313  0.3463 -0.1218  0.1767
 2782TIP3    H132541   5.582   0.373  16.386  1.4845 -1.5438  1.3360
 2782TIP3    H232542   5.658   0.457  16.285  0.5904  0.5612  2.3421
 2783TIP3   OH232543   4.764   4.538  16.793 -0.4085  0.4790  0.0164
 2783TIP3    H132544   4.739   4.587  16.714  1.3254 -0.6060 -1.2831
 2783TIP3    H232545   4.831   4.594  16.834 -0.5030  0.5251  0.1070
 2784TIP3   OH232546   1.950   0.038  16.856  0.5880  0.3011  0.4439
 2784TIP3    H132547   1.892   0.065  16.927  0.1043 -0.0961  0.2083
 2784TIP3    H232548   1.926   0.094  16.782  0.2670 -0.0914  0.2470
 2785TIP3   OH232549   0.289   1.328  17.816  0.0116  0.1836 -0.2929
 2785TIP3    H132550   0.259   1.419  17.813  0.8210  0.4859  0.4988
 2785TIP3    H232551   0.230   1.282  17.755  1.1261  1.6898 -2.6793
 2786TIP3   OH232552   0.166   3.187  18.820  0.2799 -0.2221 -0.2710
 2786TIP3    H132553   0.243   3.133  18.802  0.5842 -0.5042  1.6597
 2786TIP3    H232554   0.202   3.267  18.858 -0.3442 -0.0058 -0.1396
 2787TIP3   OH232555   3.034   3.721  17.672 -0.0947 -0.2303 -0.2496
 2787TIP3    H132556   3.067   3.725  17.583  1.3686  0.1594  0.2791
 2787TIP3    H232557   2.940   3.703  17.663  0.2855 -1.6325 -1.8158
 2788TIP3   OH232558   3.888   3.369  18.469  0.4062 -0.3327 -0.1403
 2788TIP3    H132559   3.891   3.299  18.404  0.1799 -0.3216 -0.1660
 2788TIP3    H232560   3.888   3.324  18.553 -0.6291 -0.4093 -0.1663
 2789TIP3   OH232561   0.672   2.983  16.581 -0.2777  0.3894 -0.2109
 2789TIP3    H132562   0.608   2.960  16.648  1.0046  1.1368  1.3365
 2789TIP3    H232563   0.633   2.953  16.499 -1.5780 -1.2028  0.9375
 2790TIP3   OH232564   4.813   3.382  18.719  0.0375  0.0435 -0.3362
 2790TIP3    H132565   4.888   3.338  18.759 -0.0250 -0.2374 -0.5197
 2790TIP3    H232566   4.740   3.362  18.778 -0.0566 -0.3777 -0.5946
 2791TIP3   OH232567   5.950   2.946  17.779 -0.2350  0.5136 -0.2389
 2791TIP3    H132568   5.924   2.874  17.721  0.6199  0.5176 -0.6597
 2791TIP3    H232569   5.970   2.904  17.863  0.7273  0.1736 -0.6210
 2792TIP3   OH232570   5.101   6.883  17.105 -0.1165 -0.1670  0.0804
 2792TIP3    H132571   5.060   6.886  17.191  0.0235 -1.2974  0.2064
 2792TIP3    H232572   5.121   6.974  17.084  1.5604 -0.0081  2.0730
 2793TIP3   OH232573   3.155   1.510  17.805 -0.2117  0.3046  0.3663
 2793TIP3    H132574   3.247   1.529  17.789  0.1198 -1.5521 -0.1840
 2793TIP3    H232575   3.110   1.593  17.791  1.5296  1.6445  2.2428
 2794TIP3   OH232576   3.994   1.279  16.994  0.2117 -0.2904  0.8473
 2794TIP3    H132577   3.957   1.238  17.072  1.1250  2.9189  3.1404
 2794TIP3    H232578   4.085   1.247  16.991  0.0907 -0.6450  0.8888
 2795TIP3   OH232579   6.796   5.825  16.008 -0.2708  0.6184 -0.9942
 2795TIP3    H132580   6.711   5.803  16.046 -0.6259 -0.5818 -2.3849
 2795TIP3    H232581   6.780   5.905  15.957 -0.1703  1.3034  0.0280
 2796TIP3   OH232582   0.071   4.872  17.190 -0.1909  0.1244  0.2010
 2796TIP3    H132583   0.080   4.873  17.285  1.6588 -0.6149  0.0866
 2796TIP3    H232584   0.084   4.964  17.164  1.7683 -0.0073  0.5390
 2797TIP3   OH232585   2.128   0.977  18.504  0.0456 -0.1008  0.5284
 2797TIP3    H132586   2.153   1.069  18.498 -1.6424  0.3590 -0.2409
 2797TIP3    H232587   2.041   0.979  18.545 -1.5013 -0.9892 -2.3581
 2798TIP3   OH232588   4.396   4.816  17.816  0.2180  0.2887 -0.5223
 2798TIP3    H132589   4.455   4.804  17.742 -0.3821  1.5908 -1.2461
 2798TIP3    H232590   4.311   4.784  17.784  0.2720 -0.5589  0.1405
 2799TIP3   OH232591   0.134   3.573  16.985 -0.1765  0.0424  0.0614
 2799TIP3    H132592   0.045   3.593  17.013 -0.0836  0.8912 -0.2124
 2799TIP3    H232593   0.176   3.659  16.976  0.4517 -0.3129 -0.5064
 2800TIP3   OH232594   6.301   6.745  16.055 -0.4570  0.4321 -0.8564
 2800TIP3    H132595   6.221   6.793  16.076  0.5392  1.1454  1.7406
 2800TIP3    H232596   6.280   6.653  16.075 -0.5583  0.6597  0.1337
 2801TIP3   OH232597   4.571   5.853  16.939 -0.0175 -0.2695 -0.5185
 2801TIP3    H132598   4.561   5.812  16.853  0.6003  0.5326 -0.9893
 2801TIP3    H232599   4.490   5.832  16.985  0.3442 -2.1606 -0.6682
 2802TIP3   OH232600   7.283   2.368  16.847 -0.1033 -0.5726  0.6011
 2802TIP3    H132601   7.198   2.405  16.820  1.0147  0.8598 -1.2000
 2802TIP3    H232602   7.271   2.274  16.838 -1.8551 -0.4990  1.5621
 2803TIP3   OH232603   1.044   1.928  17.639  0.2666 -0.1892 -0.4221
 2803TIP3    H132604   0.995   1.861  17.592  1.0043 -0.5105 -0.7283
 2803TIP3    H232605   1.117   1.882  17.679  1.4179  0.6022 -1.5472
 2804TIP3   OH232606   2.188   5.335  18.438 -0.1535  0.0220  0.2556
 2804TIP3    H132607   2.129   5.268  18.406 -2.4197  2.3833 -0.9277
 2804TIP3    H232608   2.240   5.360  18.362  0.0720  0.2030  0.4655
 2805TIP3   OH232609   0.163   3.500  16.485  0.0168 -0.3986 -0.1781
 2805TIP3    H132610   0.160   3.404  16.495  1.3321 -0.4740 -0.4054
 2805TIP3    H232611   0.083   3.530  16.529 -1.0388 -1.6762 -1.1018
 2806TIP3   OH232612   6.424   4.357  17.253  0.2769  0.1534 -0.2628
 2806TIP3    H132613   6.420   4.440  17.206  3.0428  0.3063 -0.4133
 2806TIP3    H232614   6.404   4.291  17.187 -0.0961  0.5982 -0.6013
 2807TIP3   OH232615   2.530   7.175  16.887  0.1892  0.0496 -0.1296
 2807TIP3    H132616   2.482   7.257  16.894  1.2980  0.9336 -2.0543
 2807TIP3    H232617   2.461   7.108  16.880 -0.7288  0.7122  1.7524
 2808TIP3   OH232618   2.878   5.380  18.657 -0.4808 -0.6432  0.4421
 2808TIP3    H132619   2.893   5.298  18.705 -0.4982 -1.3104 -0.6711
 2808TIP3    H232620   2.964   5.404  18.624 -0.6000 -0.5736  0.1837
 2809TIP3   OH232621   2.926   4.052  18.670 -0.5713  0.1338  0.1510
 2809TIP3    H132622   2.883   4.049  18.584  2.0282  1.6143 -1.3141
 2809TIP3    H232623   2.873   4.114  18.720 -1.1410  0.6197 -1.0075
 2810TIP3   OH232624   2.002   5.992  18.611  0.3019 -0.0997 -0.3811
 2810TIP3    H132625   2.001   6.082  18.578  1.3800 -0.3415 -1.1559
 2810TIP3    H232626   2.008   6.001  18.706 -0.3547  0.6328 -0.3954
 2811TIP3   OH232627   3.459   0.829  17.043 -0.2051 -0.1531 -0.0640
 2811TIP3    H132628   3.521   0.812  16.973 -0.5175  0.0621 -0.3947
 2811TIP3    H232629   3.377   0.790  17.012 -0.3468 -0.0480  0.1780
 2812TIP3   OH232630   4.349   2.020  18.308  0.5901  0.4922 -0.2695
 2812TIP3    H132631   4.315   2.077  18.239  1.3741 -0.3211 -1.3683
 2812TIP3    H232632   4.410   2.075  18.356  0.9294  0.7414 -0.9735
 2813TIP3   OH232633   0.105   6.360  18.042  0.1889  0.0507  0.3882
 2813TIP3    H132634   0.055   6.439  18.024 -0.2265 -0.3369 -0.1905
 2813TIP3    H232635   0.196   6.388  18.043  0.1493  0.3084 -1.1629
 2814TIP3   OH232636   4.015   3.818  16.683 -0.1354 -0.1078  0.2510
 2814TIP3    H132637   4.016   3.910  16.654  0.2861  0.0495  0.7418
 2814TIP3    H232638   4.103   3.786  16.663 -0.7131 -0.8443 -1.2518
 2815TIP3   OH232639   3.523   1.167  17.504 -0.5010 -0.3074  0.2562
 2815TIP3    H132640   3.552   1.084  17.466 -0.6623 -0.2315 -0.0377
 2815TIP3    H232641   3.430   1.155  17.520 -0.7913  0.2129 -0.8948
 2816TIP3   OH232642   1.288   2.590  18.378 -0.0061 -0.1110  0.2927
 2816TIP3    H132643   1.301   2.685  18.379 -1.2039  0.0677  1.4876
 2816TIP3    H232644   1.249   2.570  18.463  1.1577 -1.8322  0.4739
 2817TIP3   OH232645   0.518   3.220  19.012 -0.4954 -0.7644  0.0048
 2817TIP3    H132646   0.559   3.136  19.033  1.5244  0.1326 -0.1642
 2817TIP3    H232647   0.505   3.218  18.917 -2.8296 -1.8584  0.2800
 2818TIP3   OH232648   5.559   6.248  18.079  0.0862  0.3627  0.1568
 2818TIP3    H132649   5.611   6.173  18.050  1.3168  1.3721 -0.3665
 2818TIP3    H232650   5.565   6.245  18.175  0.1265 -0.2075  0.1425
 2819TIP3   OH232651   2.549   2.944  15.848 -0.0584  0.3490  0.3458
 2819TIP3    H132652   2.531   2.952  15.754  0.9356  0.6006  0.1535
 2819TIP3    H232653   2.491   3.008  15.889 -1.0860 -0.3373 -0.0126
 2820TIP3   OH232654   4.964   1.656  16.603 -0.5128 -0.3040  0.2533
 2820TIP3    H132655   5.049   1.638  16.563 -0.3138  1.5677 -0.2958
 2820TIP3    H232656   4.900   1.621  16.541 -0.1567 -0.5749  0.0353
 2821TIP3   OH232657   3.284   3.197  17.483 -0.4837 -0.5971  0.1662
 2821TIP3    H132658   3.303   3.149  17.564  0.7725 -1.6662 -0.7196
 2821TIP3    H232659   3.368   3.234  17.457 -0.6978 -0.9639 -1.0876
 2822TIP3   OH232660   2.557   3.200  17.981  0.0113  0.2980  0.0422
 2822TIP3    H132661   2.500   3.236  18.048 -0.1488  0.2614 -0.0727
 2822TIP3    H232662   2.560   3.268  17.913 -0.3994  0.0378 -0.2358
 2823TIP3   OH232663   0.267   0.481  17.642 -0.5434 -0.5530  0.0085
 2823TIP3    H132664   0.283   0.442  17.556 -1.5391 -1.8145  0.3790
 2823TIP3    H232665   0.173   0.471  17.657 -0.7316  1.3727  0.4484
 2824TIP3   OH232666   5.170   6.079  18.227 -0.0656  0.2389 -0.2964
 2824TIP3    H132667   5.095   6.074  18.167 -0.2750  1.8557 -0.2170
 2824TIP3    H232668   5.230   6.141  18.185  0.7039 -0.1328  0.2251
 2825TIP3   OH232669   1.856   0.262  18.953 -0.2035  0.4273  0.3599
 2825TIP3    H132670   1.795   0.333  18.935  0.3079  0.7026 -0.3174
 2825TIP3    H232671   1.801   0.185  18.967 -0.7971  1.0794  1.7561
 2826TIP3   OH232672   4.067   6.192  18.507 -0.1083 -0.6113 -0.4066
 2826TIP3    H132673   3.974   6.216  18.505  0.5319  2.4284  0.4285
 2826TIP3    H232674   4.082   6.163  18.597 -0.2176 -0.9085 -0.4847
 2827TIP3   OH232675   0.023   7.102  17.143 -0.3648 -0.1546 -0.2498
 2827TIP3    H132676   0.013   7.066  17.231  0.5453  1.4184  0.5558
 2827TIP3    H232677   0.097   7.163  17.151 -0.5122  0.3074 -2.0177
 2828TIP3   OH232678   0.288   3.767  16.800 -0.5400 -0.1364  0.5702
 2828TIP3    H132679   0.214   3.812  16.759 -0.6851 -0.0010  0.9767
 2828TIP3    H232680   0.342   3.737  16.726 -1.3064 -0.7735  0.2504
 2829TIP3   OH232681   0.003   4.076  18.135 -0.3207  0.0220  0.1416
 2829TIP3    H132682   0.013   4.088  18.041  0.0889  1.2831  0.3238
 2829TIP3    H232683   0.049   3.994  18.154  0.0927  0.0599 -0.6629
 2830TIP3   OH232684   7.448   2.008  17.240 -0.5489 -0.2616  0.4594
 2830TIP3    H132685   7.455   2.065  17.163  1.2834  1.3008  1.6764
 2830TIP3    H232686   7.404   2.062  17.306 -1.2637 -1.2505  0.8099
 2831TIP3   OH232687   3.496   7.280  16.042 -0.0053  0.3043 -0.3174
 2831TIP3    H132688   3.460   7.199  16.007 -0.2446  0.3395 -0.1553
 2831TIP3    H232689   3.459   7.287  16.130  2.8822 -1.2923  1.1433
 2832TIP3   OH232690   7.156   1.339  17.109  0.7258  0.1193  0.3853
 2832TIP3    H132691   7.193   1.347  17.197  0.5809 -0.4874  0.5095
 2832TIP3    H232692   7.138   1.429  17.083  3.5549  0.6159 -0.2478
 2833TIP3   OH232693   5.896   4.156  16.055  0.1841 -0.0356 -0.1042
 2833TIP3    H132694   5.880   4.234  16.108 -0.1642  0.1785 -0.5124
 2833TIP3    H232695   5.963   4.183  15.993 -0.3283  0.1193 -0.6054
 2834TIP3   OH232696   7.087   6.377  17.257  0.0291 -0.6151 -0.1784
 2834TIP3    H132697   7.131   6.374  17.173 -0.8351  0.4157 -0.6961
 2834TIP3    H232698   7.097   6.289  17.293  0.3487 -1.0878 -1.3913
 2835TIP3   OH232699   1.601   1.342  16.271  0.1218 -0.0526  0.5343
 2835TIP3    H132700   1.507   1.329  16.280  0.0660  0.7706  1.2957
 2835TIP3    H232701   1.612   1.436  16.259  0.8529 -0.1402  0.4197
 2836TIP3   OH232702   2.851   0.593  17.333  0.0261 -0.1492 -0.0456
 2836TIP3    H132703   2.888   0.678  17.353 -0.4307  0.2697 -0.9046
 2836TIP3    H232704   2.800   0.570  17.411  0.3114  0.2759  0.2686
 2837TIP3   OH232705   1.569   6.324  17.716  0.3305  0.1516  0.9047
 2837TIP3    H132706   1.510   6.398  17.730  0.2948  0.1879  0.5677
 2837TIP3    H232707   1.570   6.311  17.621 -0.9192 -1.2929  1.0384
 2838TIP3   OH232708   3.544   3.996  16.537  0.1292 -0.6662 -0.0251
 2838TIP3    H132709   3.542   3.992  16.633  0.6743 -1.2151 -0.0297
 2838TIP3    H232710   3.467   4.049  16.514  0.2749 -0.0966  0.7330
 2839TIP3   OH232711   2.301   1.187  17.512  0.2486 -0.0152  0.1136
 2839TIP3    H132712   2.307   1.259  17.449  0.1761 -0.6770 -0.6653
 2839TIP3    H232713   2.210   1.190  17.543  0.6158  1.0758  1.1247
 2840TIP3   OH232714   6.154   6.956  18.658  0.5097 -0.4258  0.2806
 2840TIP3    H132715   6.213   6.887  18.629  2.6729  1.9449 -1.4120
 2840TIP3    H232716   6.202   7.000  18.728 -0.8407 -0.5588  1.3421
 2841TIP3   OH232717   2.014   2.594  17.682 -0.2530  0.4483  0.6878
 2841TIP3    H132718   2.043   2.503  17.677 -1.1780  0.1190  1.0689
 2841TIP3    H232719   1.940   2.599  17.622  1.0811  1.5073 -0.9814
 2842TIP3   OH232720   3.080   5.775  17.763 -0.8623  0.8318 -0.5077
 2842TIP3    H132721   3.040   5.853  17.800  1.4738  1.6949  0.4134
 2842TIP3    H232722   3.138   5.809  17.695  0.0941 -0.0872 -0.1763
 2843TIP3   OH232723   3.890   4.776  18.957 -0.3250  0.4643  0.2913
 2843TIP3    H132724   3.840   4.786  18.876 -1.2021  0.5462  0.8219
 2843TIP3    H232725   3.969   4.828  18.943  0.1678 -0.5681 -0.9960
 2844TIP3   OH232726   2.569   6.665  15.864 -0.2560 -0.1408 -0.2119
 2844TIP3    H132727   2.488   6.636  15.904 -1.0024  0.4587 -1.2406
 2844TIP3    H232728   2.576   6.614  15.784 -0.0472  0.3879 -0.5387
 2845TIP3   OH232729   0.500   0.414  19.115  0.2307 -0.0103  0.7641
 2845TIP3    H132730   0.468   0.410  19.206  1.4420  0.2692  1.2279
 2845TIP3    H232731   0.421   0.409  19.062 -0.3691 -3.4951  1.7278
 2846TIP3   OH232732   6.765   2.493  18.774  0.1600 -0.8171  0.0943
 2846TIP3    H132733   6.714   2.491  18.693 -0.2379  0.8773  0.2479
 2846TIP3    H232734   6.723   2.562  18.826 -0.2193 -2.4952  2.1797
 2847TIP3   OH232735   5.536   2.742  17.183 -0.0801  0.7075  0.2637
 2847TIP3    H132736   5.581   2.659  17.195 -1.5568 -0.3921 -1.2779
 2847TIP3    H232737   5.575   2.801  17.247  1.6357 -0.9139  0.7756
 2848TIP3   OH232738   7.369   1.674  16.758  0.3709  0.2750 -0.5394
 2848TIP3    H132739   7.448   1.650  16.709  1.9202 -0.2387  2.0604
 2848TIP3    H232740   7.391   1.756  16.802 -0.6157  0.2303  0.0705
 2849TIP3   OH232741   6.593   7.010  17.481  0.5029 -0.2309  0.1520
 2849TIP3    H132742   6.537   7.078  17.444 -0.1124 -0.3076  0.9249
 2849TIP3    H232743   6.680   7.031  17.447  0.1278  0.2684 -0.5405
 2850TIP3   OH232744   2.584   4.571  18.853 -0.4045  0.1169 -0.3542
 2850TIP3    H132745   2.642   4.509  18.897 -1.1984 -1.5582 -1.5463
 2850TIP3    H232746   2.643   4.637  18.816  0.5017 -0.0947  0.6730
 2851TIP3   OH232747   2.023   5.176  16.789 -0.3186  0.0851  0.2899
 2851TIP3    H132748   2.054   5.108  16.729  0.4090 -0.9379  1.7529
 2851TIP3    H232749   1.928   5.160  16.797 -0.4193  0.2323 -0.5661
 2852TIP3   OH232750   6.393   3.558  18.798  0.4110 -0.0279  0.1837
 2852TIP3    H132751   6.439   3.622  18.743  0.4156 -0.4059 -0.2635
 2852TIP3    H232752   6.324   3.523  18.741  1.7398 -1.9852 -0.3411
 2853TIP3   OH232753   3.336   0.761  17.456 -0.5297  0.2454 -0.4416
 2853TIP3    H132754   3.333   0.796  17.367 -1.0842 -1.2667 -1.0534
 2853TIP3    H232755   3.430   0.755  17.476 -0.4107  1.4248 -0.5500
 2854TIP3   OH232756   3.476   0.833  18.565  0.2707 -0.6051  0.0703
 2854TIP3    H132757   3.399   0.795  18.606 -0.5850 -1.4891 -2.2021
 2854TIP3    H232758   3.545   0.767  18.577  0.0580 -0.8160  0.1323
 2855TIP3   OH232759   5.623   1.384  17.077 -0.1735 -0.2249  0.5039
 2855TIP3    H132760   5.709   1.357  17.110 -0.7255 -0.2174  2.0093
 2855TIP3    H232761   5.600   1.317  17.013  0.2256 -1.1700  1.3187
 2856TIP3   OH232762   6.349   3.491  16.313 -0.0536  0.6774  0.9033
 2856TIP3    H132763   6.356   3.416  16.372  0.9892  0.7503  0.8932
 2856TIP3    H232764   6.361   3.454  16.226 -0.5853  0.7134  0.8131
 2857TIP3   OH232765   4.650   0.956  18.618 -0.7491 -0.0333  0.4529
 2857TIP3    H132766   4.616   1.041  18.645  1.7599  0.9037  0.9485
 2857TIP3    H232767   4.573   0.905  18.595 -2.3343  2.3588  0.1628
 2858TIP3   OH232768   2.447   0.433  19.005 -0.4476  0.3930 -0.3877
 2858TIP3    H132769   2.490   0.507  19.047 -2.1205  1.8003 -1.0202
 2858TIP3    H232770   2.366   0.470  18.968 -1.3192 -1.7461 -0.7657
 2859TIP3   OH232771   1.529   0.745  17.709  0.2524  0.2483  0.2611
 2859TIP3    H132772   1.584   0.670  17.728 -0.6786 -0.7823 -0.8889
 2859TIP3    H232773   1.450   0.731  17.760  0.5131  1.0320  0.8956
 2860TIP3   OH232774   2.988   6.501  16.661 -0.6921 -0.1097 -0.2135
 2860TIP3    H132775   2.968   6.565  16.592 -0.6403  0.2727  0.1231
 2860TIP3    H232776   3.083   6.511  16.675 -0.6831 -0.2652 -0.1649
 2861TIP3   OH232777   7.191   6.975  18.568  0.7407  0.4355 -0.1816
 2861TIP3    H132778   7.203   6.914  18.641 -1.8104  0.4852  0.3737
 2861TIP3    H232779   7.145   7.049  18.606 -2.7641 -0.5043 -2.1418
 2862TIP3   OH232780   0.048   0.085  16.822 -0.4262  0.0856  0.0608
 2862TIP3    H132781   0.132   0.053  16.790 -0.0577  1.0798 -0.0066
 2862TIP3    H232782   0.000   0.110  16.743 -0.8637 -0.6453  0.0876
 2863TIP3   OH232783   3.844   6.099  17.158  0.1855  0.6770 -0.0096
 2863TIP3    H132784   3.903   6.173  17.172  0.9116  0.4789 -1.6761
 2863TIP3    H232785   3.893   6.023  17.188 -0.5621  0.8274  1.7075
 2864TIP3   OH232786   1.358   1.048  18.027  0.9335 -0.0172  0.4134
 2864TIP3    H132787   1.413   1.114  17.984 -1.4915  2.2303  0.5239
 2864TIP3    H232788   1.417   1.005  18.089  2.4792  2.7241  1.0388
 2865TIP3   OH232789   5.199   1.649  17.155  0.3788 -0.1062  0.2679
 2865TIP3    H132790   5.290   1.678  17.151  0.4761 -0.5035 -0.9766
 2865TIP3    H232791   5.171   1.670  17.244  2.4258 -2.2052  1.5435
 2866TIP3   OH232792   0.330   6.944  17.331  0.1636  0.1710 -0.1216
 2866TIP3    H132793   0.235   6.954  17.341  0.1262 -0.1051 -0.1735
 2866TIP3    H232794   0.358   6.904  17.413  0.2934  0.6049  0.0474
 2867TIP3   OH232795   1.121   3.451  17.170 -0.1600 -0.7783 -0.0633
 2867TIP3    H132796   1.029   3.469  17.186 -0.0782 -0.7955  0.4575
 2867TIP3    H232797   1.165   3.536  17.179 -0.0072 -0.9237  0.6169
 2868TIP3   OH232798   6.368   1.387  17.941 -0.0385 -0.0571 -0.1602
 2868TIP3    H132799   6.415   1.303  17.942  0.2820  0.1164  0.6629
 2868TIP3    H232800   6.287   1.369  17.988  0.1402  0.1416  0.2342
 2869TIP3   OH232801   6.672   5.309  17.908 -0.2291  0.4717 -0.0334
 2869TIP3    H132802   6.759   5.340  17.883  0.6377 -1.1300  0.8731
 2869TIP3    H232803   6.684   5.269  17.994 -1.9739  0.6476  0.3305
 2870TIP3   OH232804   1.622   0.910  16.219 -0.4554  0.0735  0.6737
 2870TIP3    H132805   1.675   0.921  16.140  1.4114  0.3140  1.8829
 2870TIP3    H232806   1.649   0.825  16.254 -0.9213  0.1731  1.2825
 2871TIP3   OH232807   4.259   1.510  16.681  0.1298  0.0787  0.1364
 2871TIP3    H132808   4.270   1.415  16.677  1.0913  0.0276  2.4556
 2871TIP3    H232809   4.256   1.538  16.590  2.9699 -1.8636 -0.6577
 2872TIP3   OH232810   0.231   2.966  19.160 -0.0485  0.1589 -0.7799
 2872TIP3    H132811   0.143   2.982  19.125 -0.3706  0.3535  0.0942
 2872TIP3    H232812   0.259   3.051  19.194  0.4282  0.0679 -0.9440
 2873TIP3   OH232813   6.855   6.838  16.555 -0.6164  0.1865 -0.5795
 2873TIP3    H132814   6.803   6.797  16.485 -0.7137 -0.3715 -0.1899
 2873TIP3    H232815   6.927   6.777  16.570  0.4112  1.1644 -1.4145
 2874TIP3   OH232816   5.028   5.193  16.224  0.0244  0.8509 -0.4259
 2874TIP3    H132817   5.001   5.103  16.207  0.2785  0.4500  1.1146
 2874TIP3    H232818   4.945   5.242  16.228 -0.2186  0.4156  0.0814
 2875TIP3   OH232819   5.119   0.910  17.626 -0.2857  0.5183  0.3254
 2875TIP3    H132820   5.043   0.906  17.568  0.6799  0.2891 -0.9738
 2875TIP3    H232821   5.127   1.002  17.650  0.7021  1.0881 -1.9112
 2876TIP3   OH232822   5.307   0.438  18.333  0.3306 -0.0554 -0.0097
 2876TIP3    H132823   5.348   0.370  18.279 -0.9475  0.5071 -1.7819
 2876TIP3    H232824   5.380   0.486  18.371  1.2700 -0.8042 -0.8084
 2877TIP3   OH232825   2.302   5.164  18.643 -0.0884  0.3105  0.5179
 2877TIP3    H132826   2.281   5.077  18.609 -0.5983 -0.1594  1.9436
 2877TIP3    H232827   2.275   5.224  18.574 -0.2054 -0.6354 -0.2796
 2878TIP3   OH232828   6.904   6.635  18.566 -0.4904 -0.0625  0.0752
 2878TIP3    H132829   6.926   6.609  18.477 -1.6062 -0.5188 -0.0804
 2878TIP3    H232830   6.967   6.704  18.587  0.1368 -0.3346 -0.8565
 2879TIP3   OH232831   2.591   2.607  17.981 -0.1125  1.2021 -0.3947
 2879TIP3    H132832   2.552   2.653  17.906  0.3332  1.5396 -0.4225
 2879TIP3    H232833   2.637   2.675  18.030  0.5501  0.7919 -0.4325
 2880TIP3   OH232834   4.175   4.576  18.028  0.4711  0.0858 -0.1635
 2880TIP3    H132835   4.111   4.627  17.978  1.9910  1.8266 -0.3942
 2880TIP3    H232836   4.196   4.502  17.971 -1.2240 -0.4821 -0.1172
 2881TIP3   OH232837   6.592   2.574  17.483 -0.4229 -0.4340 -0.4826
 2881TIP3    H132838   6.510   2.581  17.532  0.0227  0.0052  0.2251
 2881TIP3    H232839   6.617   2.482  17.493 -0.9327 -0.6218 -0.8837
 2882TIP3   OH232840   6.264   1.949  16.494 -0.3825 -0.0634 -0.0188
 2882TIP3    H132841   6.348   1.958  16.538  0.7009 -0.8499 -1.8521
 2882TIP3    H232842   6.285   1.927  16.403 -2.5317  1.3552 -0.9568
 2883TIP3   OH232843   5.534   0.194  16.531 -0.1773  0.2041  0.3209
 2883TIP3    H132844   5.475   0.141  16.478  2.3733 -0.9749 -1.5489
 2883TIP3    H232845   5.564   0.135  16.601  0.6133  0.0017 -0.1766
 2884TIP3   OH232846   7.035   2.420  18.721  0.3266  0.5928 -0.2056
 2884TIP3    H132847   7.081   2.500  18.746  0.0664  1.0822 -1.2447
 2884TIP3    H232848   6.946   2.434  18.754  0.7881 -0.2079  1.4997
 2885TIP3   OH232849   0.163   4.200  18.404 -0.6949  0.2679 -0.0794
 2885TIP3    H132850   0.103   4.243  18.344  0.3178  1.4515 -0.2808
 2885TIP3    H232851   0.145   4.238  18.490 -0.0078  0.8943 -0.2038
 2886TIP3   OH232852   6.236   6.258  17.015 -0.1044 -0.0031 -0.0097
 2886TIP3    H132853   6.176   6.239  16.942  0.2097 -0.8598 -0.0600
 2886TIP3    H232854   6.236   6.178  17.067 -0.5794  0.7181  1.1320
 2887TIP3   OH232855   7.296   1.137  16.448 -0.0497 -0.0683 -0.1938
 2887TIP3    H132856   7.204   1.158  16.459  0.2051  0.5044  1.0030
 2887TIP3    H232857   7.314   1.154  16.355 -1.0478  0.1774 -0.3513
 2888TIP3   OH232858   4.092   5.847  16.975 -0.1480 -0.0738 -0.2902
 2888TIP3    H132859   4.174   5.881  17.010 -0.7254 -1.3810  2.6431
 2888TIP3    H232860   4.117   5.773  16.920  0.7350  1.1366 -1.5660
 2889TIP3   OH232861   4.890   4.955  16.227  0.3291  0.1002  0.0062
 2889TIP3    H132862   4.896   4.869  16.270 -1.9404 -0.3985 -0.5444
 2889TIP3    H232863   4.863   4.935  16.138  2.4641  1.2857 -0.9702
 2890TIP3   OH232864   4.603   3.519  18.866  0.6503 -0.3281 -0.5178
 2890TIP3    H132865   4.623   3.482  18.952  1.0195  0.6932 -0.1419
 2890TIP3    H232866   4.676   3.579  18.848 -0.3579  0.8972 -0.6740
 2891TIP3   OH232867   4.421   6.947  16.089 -0.2166  0.1235 -0.4684
 2891TIP3    H132868   4.341   6.928  16.138 -0.3854  2.1759  0.1367
 2891TIP3    H232869   4.428   7.042  16.091  2.1516 -0.0009 -0.6825
 2892TIP3   OH232870   0.666   5.083  16.932  0.4712  0.4383 -0.1753
 2892TIP3    H132871   0.612   5.130  16.867  0.4067  0.5159 -0.0653
 2892TIP3    H232872   0.747   5.062  16.885  1.0408  1.7940  0.1471
 2893TIP3   OH232873   4.091   0.287  16.007 -0.1216 -0.0430  0.0944
 2893TIP3    H132874   4.102   0.194  15.988 -1.1747 -0.8105  2.7959
 2893TIP3    H232875   4.016   0.313  15.954 -0.3441 -0.9712 -0.0700
 2894TIP3   OH232876   6.134   4.584  17.315 -0.1840 -0.0500  0.0178
 2894TIP3    H132877   6.185   4.571  17.236  2.0011  1.0909  1.1589
 2894TIP3    H232878   6.186   4.545  17.385 -2.1421 -1.1890  0.9460
 2895TIP3   OH232879   1.460   0.170  18.756  0.4698 -0.2299  0.2209
 2895TIP3    H132880   1.419   0.237  18.700 -0.0576 -1.9002 -1.5221
 2895TIP3    H232881   1.386   0.123  18.794  0.8384  0.1401  1.4418
 2896TIP3   OH232882   3.118   0.277  18.286  0.1443  0.4006 -0.7193
 2896TIP3    H132883   3.046   0.237  18.236  0.9896  0.0740 -1.7188
 2896TIP3    H232884   3.076   0.347  18.337 -1.0776 -0.5969 -0.2994
 2897TIP3   OH232885   6.858   6.167  16.760 -0.0264 -0.3660  0.5027
 2897TIP3    H132886   6.848   6.238  16.823 -1.6671  1.1937 -1.3624
 2897TIP3    H232887   6.794   6.101  16.788 -0.8532  0.3839  0.4306
 2898TIP3   OH232888   6.575   0.280  18.199 -0.2897  0.3636  0.4613
 2898TIP3    H132889   6.548   0.249  18.285  0.2019  0.6415  0.7251
 2898TIP3    H232890   6.493   0.303  18.154 -0.5208  0.7189  1.0525
 2899TIP3   OH232891   1.220   5.229  17.243  0.3576 -0.1844 -0.0551
 2899TIP3    H132892   1.237   5.184  17.325 -0.4284  0.9667  0.7841
 2899TIP3    H232893   1.205   5.160  17.179  0.7741 -1.0955  0.8154
 2900TIP3   OH232894   6.700   0.648  18.813 -0.2164 -0.6582  0.3545
 2900TIP3    H132895   6.708   0.658  18.907 -0.6809 -1.3661  0.4809
 2900TIP3    H232896   6.640   0.717  18.786  1.1605  0.5644  0.3318
 2901TIP3   OH232897   5.028   5.331  18.321 -0.0644  0.0151 -0.6917
 2901TIP3    H132898   5.034   5.419  18.283  0.0965 -0.1480 -1.0393
 2901TIP3    H232899   4.959   5.339  18.387  0.1706  0.4889 -0.4942
 2902TIP3   OH232900   6.744   5.870  16.533 -0.2650  0.0832  0.0626
 2902TIP3    H132901   6.731   5.952  16.485  0.8692 -1.0769 -2.3863
 2902TIP3    H232902   6.673   5.813  16.504  1.1481 -1.0532 -1.2866
 2903TIP3   OH232903   1.402   3.461  16.320 -0.4668 -0.3128  0.0211
 2903TIP3    H132904   1.307   3.448  16.314 -0.5358 -1.3142  2.2373
 2903TIP3    H232905   1.414   3.556  16.308 -1.9447  0.0782  1.3085
 2904TIP3   OH232906   6.181   5.709  17.404 -0.0965  0.5710  0.3924
 2904TIP3    H132907   6.231   5.644  17.451  1.1590  1.3963  0.2356
 2904TIP3    H232908   6.228   5.791  17.418  0.1150  0.9140 -1.9548
 2905TIP3   OH232909   3.197   2.038  16.113 -0.1266 -0.2860  0.0426
 2905TIP3    H132910   3.212   2.132  16.109 -1.1152 -0.1263  0.0217
 2905TIP3    H232911   3.111   2.025  16.074 -0.1843 -1.1510  0.4267
 2906TIP3   OH232912   4.335   3.414  18.805  0.0728  0.4398  0.4019
 2906TIP3    H132913   4.328   3.325  18.839 -0.7714  0.3470  0.0110
 2906TIP3    H232914   4.428   3.436  18.813  0.3464 -0.5992  0.2039
 2907TIP3   OH232915   5.632   1.322  16.609 -0.1864 -0.6884 -0.3104
 2907TIP3    H132916   5.581   1.396  16.576  2.4942  0.7162 -1.5222
 2907TIP3    H232917   5.660   1.275  16.531  1.2180 -0.8378  0.2603
 2908TIP3   OH232918   4.164   1.298  17.396  0.1596  0.1395  0.3916
 2908TIP3    H132919   4.184   1.236  17.466  1.6133  0.8120  0.6085
 2908TIP3    H232920   4.233   1.364  17.402 -1.5125  1.9694  0.3738
 2909TIP3   OH232921   0.748   6.166  16.103  0.2141 -0.3118 -0.1435
 2909TIP3    H132922   0.665   6.214  16.109  0.0508 -0.4895 -0.9678
 2909TIP3    H232923   0.814   6.230  16.131 -0.2249 -0.2881  0.9096
 2910TIP3   OH232924   6.985   5.331  15.758 -0.3941  0.0409 -0.3959
 2910TIP3    H132925   6.930   5.355  15.684 -1.2617 -0.3218  0.1101
 2910TIP3    H232926   6.927   5.281  15.816  0.3878 -0.0896  0.3034
 2911TIP3   OH232927   1.627   3.008  18.266 -0.4404  0.1893  0.6834
 2911TIP3    H132928   1.647   2.920  18.300  0.9303  0.7645  1.4641
 2911TIP3    H232929   1.707   3.035  18.221 -1.0826  0.7872 -0.1269
 2912TIP3   OH232930   2.255   2.845  16.290 -0.1704  0.4060 -0.8718
 2912TIP3    H132931   2.269   2.786  16.215  1.3514 -0.7853  0.2871
 2912TIP3    H232932   2.343   2.857  16.327 -0.7839  1.6175  0.2472
 2913TIP3   OH232933   0.811   6.695  17.312  0.3239  0.3712 -0.3300
 2913TIP3    H132934   0.903   6.688  17.287  0.3430 -0.5833 -0.0211
 2913TIP3    H232935   0.762   6.679  17.231  0.3912 -2.2951  0.0745
 2914TIP3   OH232936   0.401   0.289  17.960 -0.1307 -0.1346 -0.0234
 2914TIP3    H132937   0.329   0.308  18.020 -0.4972 -1.5442  0.0292
 2914TIP3    H232938   0.458   0.230  18.009  0.2422 -0.2766 -0.6102
 2915TIP3   OH232939   0.879   1.996  17.856 -0.1088 -0.1357 -0.3062
 2915TIP3    H132940   0.933   1.975  17.780  0.1383 -0.5250 -0.0322
 2915TIP3    H232941   0.876   1.914  17.906 -0.2683  0.1136  0.0999
 2916TIP3   OH232942   1.059   7.374  18.911  0.6313  0.4563  0.1362
 2916TIP3    H132943   1.074   7.464  18.940  1.4878 -0.0721  1.4521
 2916TIP3    H232944   1.142   7.347  18.872  0.3154  0.2933 -0.4373
 2917TIP3   OH232945   6.371   3.806  17.490 -0.3401 -0.3581  0.3545
 2917TIP3    H132946   6.352   3.725  17.539 -2.5286 -0.9622 -1.3598
 2917TIP3    H232947   6.434   3.779  17.423  1.5054  0.1536  1.7909
 2918TIP3   OH232948   3.850   4.405  18.675 -0.2215 -0.1924  0.1289
 2918TIP3    H132949   3.834   4.359  18.593  1.9849 -1.2570  0.2364
 2918TIP3    H232950   3.861   4.496  18.649  0.1295 -0.4649 -0.7120
 2919TIP3   OH232951   6.923   2.113  16.991  0.7217  0.1934  0.1687
 2919TIP3    H132952   6.885   2.028  16.969 -0.1044  0.5563  0.1789
 2919TIP3    H232953   7.001   2.091  17.043  0.6169 -0.5587  0.0255
 2920TIP3   OH232954   5.883   2.619  17.060 -0.0474  0.0050  0.0591
 2920TIP3    H132955   5.957   2.619  17.120 -0.5000  1.2275  0.6503
 2920TIP3    H232956   5.821   2.556  17.097 -0.6634  1.3104  1.3599
 2921TIP3   OH232957   0.376   3.994  17.554 -0.3008  0.3772  0.0912
 2921TIP3    H132958   0.418   4.071  17.514 -1.3005  0.2397 -1.2974
 2921TIP3    H232959   0.288   4.024  17.578 -0.1325  0.1079  1.0968
 2922TIP3   OH232960   1.652   3.681  17.450  0.1534 -0.0842 -0.2238
 2922TIP3    H132961   1.663   3.774  17.470 -0.5489  0.4289 -2.0329
 2922TIP3    H232962   1.558   3.667  17.452  0.3018 -1.1456  1.4655
 2923TIP3   OH232963   6.796   4.566  18.301 -0.2434  0.6116 -0.0941
 2923TIP3    H132964   6.751   4.631  18.356  0.2841  1.0284 -0.1475
 2923TIP3    H232965   6.883   4.603  18.286  1.1287 -1.3497  2.1875
 2924TIP3   OH232966   1.033   1.378  16.644 -0.4922 -0.1810 -0.3412
 2924TIP3    H132967   1.001   1.388  16.554  1.3786 -1.9252 -1.2670
 2924TIP3    H232968   0.964   1.327  16.688 -0.9190 -0.2804 -1.1112
 2925TIP3   OH232969   7.104   6.066  17.762 -0.0910  0.1184 -0.6950
 2925TIP3    H132970   7.039   6.089  17.695  0.1198  5.5863  0.4880
 2925TIP3    H232971   7.187   6.063  17.715 -0.4768 -0.8361 -1.3371
 2926TIP3   OH232972   0.143   0.382  17.156  1.3764 -0.3998 -0.0836
 2926TIP3    H132973   0.077   0.354  17.093 -0.7365 -0.1916  1.9163
 2926TIP3    H232974   0.226   0.349  17.120  0.0852 -1.6420 -2.1183
 2927TIP3   OH232975   5.304   4.669  18.598  0.3122  0.1805  0.2050
 2927TIP3    H132976   5.226   4.695  18.648  0.3654  1.0085 -0.1159
 2927TIP3    H232977   5.272   4.658  18.509  0.0418 -2.1703  0.5428
 2928TIP3   OH232978   4.311   4.035  17.776  0.0096 -0.1566  0.1069
 2928TIP3    H132979   4.246   4.073  17.716  1.5020  1.4194 -0.6194
 2928TIP3    H232980   4.315   3.943  17.751 -0.3045  0.2016 -1.4035
 2929TIP3   OH232981   2.221   6.025  18.204 -1.2154 -0.1294  0.6683
 2929TIP3    H132982   2.213   6.010  18.110 -0.3999 -1.1317  0.7581
 2929TIP3    H232983   2.139   5.991  18.240 -2.2069  1.5955  0.2053
 2930TIP3   OH232984   5.427   2.646  16.908 -0.1928  0.4878 -0.4330
 2930TIP3    H132985   5.484   2.673  16.980 -0.7173 -1.2681  0.6908
 2930TIP3    H232986   5.339   2.670  16.935 -0.1746  2.0293 -1.6051
 2931TIP3   OH232987   1.359   1.054  17.189  1.0084  0.2305 -0.5460
 2931TIP3    H132988   1.388   0.981  17.244 -0.9036 -1.1318 -1.2131
 2931TIP3    H232989   1.365   1.131  17.245  0.5622 -0.8713  1.0963
 2932TIP3   OH232990   0.218   3.496  17.552 -0.0141  0.0150 -0.2216
 2932TIP3    H132991   0.267   3.443  17.490 -2.6621 -1.9909 -0.7780
 2932TIP3    H232992   0.169   3.558  17.498  1.0044  1.2613  0.2427
 2933TIP3   OH232993   0.437   4.620  18.437  0.5790  0.5252  0.2178
 2933TIP3    H132994   0.531   4.630  18.455  1.2245 -1.3430 -1.6773
 2933TIP3    H232995   0.419   4.682  18.367 -0.6078  3.6697  3.0576
 2934TIP3   OH232996   4.737   3.281  16.552  0.0580 -0.2463  0.4052
 2934TIP3    H132997   4.751   3.376  16.547  0.0771 -0.0268  2.9871
 2934TIP3    H232998   4.700   3.267  16.639  0.3991 -2.6657  0.2343
 2935TIP3   OH232999   5.022   3.077  16.844  0.2120  0.5307  0.0911
 2935TIP3    H133000   4.965   3.147  16.876  1.1473  1.4632 -0.2206
 2935TIP3    H233001   5.106   3.120  16.827  0.9650 -0.7601  0.3507
 2936TIP3   OH233002   4.859   2.752  17.632 -0.1724 -0.7314 -0.5177
 2936TIP3    H133003   4.796   2.722  17.697  0.0989 -1.4998 -0.5914
 2936TIP3    H233004   4.806   2.800  17.568 -0.3197  0.7251  0.6676
 2937TIP3   OH233005   3.239   1.292  18.767  0.5491  0.2722  0.4927
 2937TIP3    H133006   3.314   1.325  18.719  1.7380 -0.9014  1.4749
 2937TIP3    H233007   3.185   1.248  18.701  2.3716 -1.6936  0.1975
 2938TIP3   OH233008   6.150   4.387  18.115  0.1842  0.2318 -0.2260
 2938TIP3    H133009   6.173   4.316  18.054  1.0412 -1.2925  1.7536
 2938TIP3    H233010   6.232   4.435  18.127  1.1276 -1.7951  2.5149
 2939TIP3   OH233011   4.795   0.933  17.589  0.0292  0.3420 -0.3251
 2939TIP3    H133012   4.840   0.889  17.517 -0.1838  0.1605 -0.3466
 2939TIP3    H233013   4.777   1.021  17.556 -0.7429  0.0261 -0.7745
 2940TIP3   OH233014   6.113   0.822  17.524  0.1632  0.1270  0.7269
 2940TIP3    H133015   6.189   0.856  17.572 -0.0898  1.7388  0.0697
 2940TIP3    H233016   6.042   0.881  17.548 -1.3959 -2.3782  2.7116
 2941TIP3   OH233017   6.420   0.657  17.271 -0.0509  0.1479 -0.3022
 2941TIP3    H133018   6.383   0.630  17.355  0.0240 -0.4801 -0.4660
 2941TIP3    H233019   6.488   0.592  17.253 -0.6375 -0.2219 -1.2555
 2942TIP3   OH233020   1.544   5.640  17.806  0.0085  0.3127  0.8299
 2942TIP3    H133021   1.502   5.619  17.723 -2.4627 -0.8148  2.2354
 2942TIP3    H233022   1.595   5.562  17.828 -1.7372 -0.6557  1.6882
 2943TIP3   OH233023   6.968   5.315  18.324 -0.0451 -0.5486 -0.1684
 2943TIP3    H133024   7.046   5.354  18.362 -0.7744  0.6314  0.1960
 2943TIP3    H233025   6.915   5.288  18.399 -0.3497 -0.5785 -0.3919
 2944TIP3   OH233026   3.223   5.417  16.919  0.1169 -0.3467  0.4758
 2944TIP3    H133027   3.129   5.404  16.911 -0.0413  0.9748 -0.2261
 2944TIP3    H233028   3.242   5.489  16.858  1.8087 -1.5190 -0.4387
 2945TIP3   OH233029   2.405   4.198  17.319 -0.8617  0.1425 -0.0037
 2945TIP3    H133030   2.451   4.265  17.267  0.6155 -1.4076 -0.8095
 2945TIP3    H233031   2.437   4.211  17.408  0.9477 -0.6446 -0.4797
 2946TIP3   OH233032   0.707   2.190  18.566 -0.8424  0.6149  0.4891
 2946TIP3    H133033   0.767   2.174  18.639  0.2559  2.3702  0.0101
 2946TIP3    H233034   0.753   2.159  18.489 -1.9627 -1.1414  0.4688
 2947TIP3   OH233035   2.873   7.352  16.423  0.3731 -0.5597  0.1052
 2947TIP3    H133036   2.959   7.390  16.403  0.5021 -0.7120  0.3685
 2947TIP3    H233037   2.893   7.271  16.469  0.0788  0.0682  1.3633
 2948TIP3   OH233038   3.828   5.724  16.094 -0.2524  0.6079  0.7642
 2948TIP3    H133039   3.850   5.655  16.031  0.3468  0.8917  0.6573
 2948TIP3    H233040   3.813   5.801  16.040 -1.4101  0.4509  0.8442
 2949TIP3   OH233041   2.935   7.316  16.781 -0.5874  0.2385  0.2906
 2949TIP3    H133042   2.939   7.383  16.713  0.6727  0.8094  0.8972
 2949TIP3    H233043   2.926   7.365  16.863  0.3400 -0.3151  0.7376
 2950TIP3   OH233044   0.544   6.390  17.094 -0.4080 -0.6063  0.6267
 2950TIP3    H133045   0.487   6.444  17.149 -0.9599  0.3345 -0.8203
 2950TIP3    H233046   0.623   6.378  17.147 -0.8004  0.5226  1.5124
 2951TIP3   OH233047   6.243   7.060  17.271  0.2174 -0.0744 -0.2539
 2951TIP3    H133048   6.315   6.998  17.259 -2.0024 -3.2167  1.2234
 2951TIP3    H233049   6.186   7.047  17.195 -1.2927 -1.5078  1.0442
 2952TIP3   OH233050   3.539   3.967  18.784 -0.5961 -0.1226  0.3079
 2952TIP3    H133051   3.511   3.876  18.775  0.4823 -0.3150 -1.5815
 2952TIP3    H233052   3.595   3.982  18.708  0.2593  1.7499  1.2578
 2953TIP3   OH233053   3.423   5.457  18.028 -0.7102  0.2103 -0.1842
 2953TIP3    H133054   3.405   5.543  17.989 -3.9350  0.6047  1.8039
 2953TIP3    H233055   3.343   5.406  18.011  0.0205 -1.4397  1.0711
 2954TIP3   OH233056   6.982   0.665  18.410  0.4591  0.2039 -0.0995
 2954TIP3    H133057   6.993   0.578  18.370 -0.5475  0.6884 -1.4897
 2954TIP3    H233058   6.891   0.666  18.439 -0.0228  1.3429 -1.5352
 2955TIP3   OH233059   2.603   1.187  16.988 -0.4598 -0.2643 -0.2751
 2955TIP3    H133060   2.670   1.120  17.004  0.2220  0.1395 -1.3150
 2955TIP3    H233061   2.524   1.137  16.968  0.1172 -0.7834 -1.3510
 2956TIP3   OH233062   7.348   0.825  17.745  0.2874 -0.2843 -0.3501
 2956TIP3    H133063   7.366   0.891  17.678  1.5892 -0.2493  0.0022
 2956TIP3    H233064   7.325   0.746  17.695 -0.9496  0.3323 -0.7755
 2957TIP3   OH233065   3.405   7.155  18.717  0.2942  0.3138  0.3989
 2957TIP3    H133066   3.491   7.138  18.756  0.4025 -0.7596 -0.2347
 2957TIP3    H233067   3.381   7.242  18.748  1.4592  0.4981  0.8625
 2958TIP3   OH233068   6.580   4.363  18.222  0.0350  0.5417  0.5231
 2958TIP3    H133069   6.640   4.423  18.266 -0.2803  1.1357  0.1547
 2958TIP3    H233070   6.571   4.289  18.283 -0.2719  1.2803  1.3867
 2959TIP3   OH233071   1.098   0.190  18.838 -0.1134  0.0807  0.8444
 2959TIP3    H133072   1.137   0.268  18.800  0.4658  0.8697  2.9139
 2959TIP3    H233073   1.043   0.222  18.910  1.2848 -1.4177  2.7117
 2960TIP3   OH233074   0.316   6.072  16.723  0.3257 -0.2403 -0.3215
 2960TIP3    H133075   0.363   6.019  16.660  1.5728  0.2210  0.1932
 2960TIP3    H233076   0.384   6.118  16.772 -0.6299 -0.0657  0.8986
 2961TIP3   OH233077   5.659   5.120  17.999  0.0291  0.1375 -0.0142
 2961TIP3    H133078   5.675   5.130  18.092 -0.5245  0.0619  0.0909
 2961TIP3    H233079   5.703   5.038  17.976 -0.1333 -0.0230  0.2492
 2962TIP3   OH233080   5.384   2.963  16.425 -0.0275 -0.1338  0.0169
 2962TIP3    H133081   5.392   2.986  16.518 -1.0273  0.8741 -0.1177
 2962TIP3    H233082   5.473   2.970  16.391  0.2012  0.4136  0.7030
 2963TIP3   OH233083   7.115   7.449  18.043  0.6623  0.1359  0.0153
 2963TIP3    H133084   7.145   7.364  18.075 -0.4172  0.5909  2.4364
 2963TIP3    H233085   7.039   7.428  17.988 -1.1510 -0.4480  2.5389
 2964TIP3   OH233086   3.939   3.104  16.258 -0.3405 -0.2478  0.1554
 2964TIP3    H133087   3.991   3.146  16.190  1.3147 -0.6480  1.1096
 2964TIP3    H233088   3.893   3.033  16.214 -0.9419  0.7613 -0.9135
 2965TIP3   OH233089   6.981   2.726  18.902 -0.0164  0.2298 -0.3534
 2965TIP3    H133090   6.951   2.809  18.939  1.1153  0.9437 -0.9994
 2965TIP3    H233091   6.908   2.665  18.919 -0.3392  1.0017  1.2738
 2966TIP3   OH233092   6.442   3.623  16.582 -0.5171 -0.0087  0.5059
 2966TIP3    H133093   6.366   3.678  16.599 -2.4608 -2.3207 -0.0518
 2966TIP3    H233094   6.422   3.539  16.624  0.3049 -1.6831 -2.1381
 2967TIP3   OH233095   4.156   0.642  17.656 -0.2297  0.2095  0.1665
 2967TIP3    H133096   4.149   0.547  17.668 -1.9781  0.0565 -1.5679
 2967TIP3    H233097   4.080   0.678  17.702  0.7843  0.8742  1.3843
 2968TIP3   OH233098   4.258   6.348  18.291  0.4948 -0.0489  0.7513
 2968TIP3    H133099   4.346   6.330  18.259  0.9246 -0.6610  2.2320
 2968TIP3    H233100   4.243   6.283  18.359  0.0879  1.9126  2.6546
 2969TIP3   OH233101   6.089   6.212  16.773 -0.0608  0.1389  0.2846
 2969TIP3    H133102   6.007   6.164  16.760 -0.3594  0.1633  1.9228
 2969TIP3    H233103   6.139   6.196  16.693 -0.6731 -1.8540  0.2456
 2970TIP3   OH233104   2.253   1.469  18.931  1.0056 -0.3710  0.3396
 2970TIP3    H133105   2.320   1.514  18.880  1.0854 -1.2291 -0.3255
 2970TIP3    H233106   2.243   1.523  19.010  1.0259  0.8575 -0.4808
 2971TIP3   OH233107   2.209   5.835  17.102  0.3436 -0.0105  0.3600
 2971TIP3    H133108   2.143   5.785  17.150 -0.3074  0.3750 -0.1195
 2971TIP3    H233109   2.290   5.783  17.111 -0.4635 -1.5584 -0.7288
 2972TIP3   OH233110   4.515   6.344  17.129  0.1790  0.3758  0.2960
 2972TIP3    H133111   4.448   6.371  17.065 -0.5165 -2.3366 -0.2561
 2972TIP3    H233112   4.566   6.277  17.083  0.7892 -0.3845  2.0085
 2973TIP3   OH233113   1.155   6.047  17.010  0.2400  0.0116 -0.3549
 2973TIP3    H133114   1.081   6.005  17.053  1.0478  0.0790  1.1547
 2973TIP3    H233115   1.228   5.986  17.021  0.7328  0.5385 -0.6464
 2974TIP3   OH233116   1.188   3.790  18.416  0.4479 -0.7026 -0.1083
 2974TIP3    H133117   1.220   3.872  18.454 -3.1729  0.4851  0.7352
 2974TIP3    H233118   1.161   3.814  18.327 -0.0025 -1.1478 -0.0917
 2975TIP3   OH233119   6.990   2.067  17.573  0.3694 -0.4700 -0.0297
 2975TIP3    H133120   6.929   2.137  17.548 -0.5438 -0.9811  0.6667
 2975TIP3    H233121   7.006   2.019  17.492  1.0030  0.5353 -0.5094
 2976TIP3   OH233122   4.847   3.023  19.078  0.2159 -0.4288  0.2794
 2976TIP3    H133123   4.861   2.989  19.167  1.7798 -0.7250 -0.0483
 2976TIP3    H233124   4.882   2.955  19.021  1.2573  0.6834 -0.4707
 2977TIP3   OH233125   6.844   5.355  18.724  0.2049 -0.1052  0.7794
 2977TIP3    H133126   6.915   5.359  18.788  1.6706  1.1617 -0.8444
 2977TIP3    H233127   6.830   5.446  18.698 -1.3103 -0.4532  0.3070
 2978TIP3   OH233128   4.615   4.971  15.723 -0.5480 -0.4774  0.6037
 2978TIP3    H133129   4.676   5.004  15.657 -1.2271 -0.6997 -0.1504
 2978TIP3    H233130   4.539   5.028  15.716 -0.7308 -0.6625  1.0228
 2979TIP3   OH233131   1.242   4.563  16.657  0.6864  1.0151  0.0414
 2979TIP3    H133132   1.193   4.570  16.575 -0.3421  2.3035  0.7285
 2979TIP3    H233133   1.297   4.485  16.646 -1.0553 -0.1164 -1.0164
 2980TIP3   OH233134   2.096   7.479  18.169  0.4405  0.6102 -0.0639
 2980TIP3    H133135   2.066   7.466  18.079 -1.0134 -0.8386  0.5703
 2980TIP3    H233136   2.029   7.533  18.209  0.7997  0.7912  0.2983
 2981TIP3   OH233137   0.470   2.357  18.354 -0.2867  0.0636 -0.0459
 2981TIP3    H133138   0.445   2.265  18.358 -1.3202  0.2716 -1.0009
 2981TIP3    H233139   0.549   2.359  18.301 -0.3685 -0.2585 -0.1785
 2982TIP3   OH233140   2.782   5.624  17.095  0.0550 -0.2339  0.0865
 2982TIP3    H133141   2.743   5.550  17.142  0.5494 -0.4467  0.1573
 2982TIP3    H233142   2.748   5.615  17.006 -0.6613  0.0115  0.3291
 2983TIP3   OH233143   4.420   1.675  18.951 -0.2476  0.0402  0.4893
 2983TIP3    H133144   4.417   1.590  18.906  0.5984  0.3899 -0.2598
 2983TIP3    H233145   4.342   1.721  18.920  0.5483  0.4471 -1.0183
 2984TIP3   OH233146   6.462   5.082  16.941  0.3413 -0.2773 -0.0013
 2984TIP3    H133147   6.434   5.042  16.859 -1.5405  1.1885 -0.1327
 2984TIP3    H233148   6.436   5.174  16.933  1.9726  0.3739  1.4285
 2985TIP3   OH233149   0.004   3.273  17.786 -0.0601 -0.1511 -0.1858
 2985TIP3    H133150   0.013   3.177  17.781  0.4094 -0.2224  1.5310
 2985TIP3    H233151  -0.057   3.294  17.716  0.7249 -1.5787 -1.3677
 2986TIP3   OH233152   0.175   3.115  16.977  0.1849  0.1349  0.3739
 2986TIP3    H133153   0.137   3.179  17.037 -1.7852 -1.0441  0.4782
 2986TIP3    H233154   0.189   3.163  16.895  1.8487  1.4700  1.3637
 2987TIP3   OH233155   2.290   1.813  16.681 -0.4605  0.1929 -0.3707
 2987TIP3    H133156   2.245   1.798  16.598 -1.1300 -4.6575  0.5555
 2987TIP3    H233157   2.243   1.886  16.721 -1.9214  0.8530 -3.0114
 2988TIP3   OH233158   1.604   3.247  18.388  0.0510  0.3423  0.7368
 2988TIP3    H133159   1.694   3.233  18.419  0.1872 -1.4377 -0.3009
 2988TIP3    H233160   1.587   3.172  18.331 -2.3052  0.3455  1.3321
 2989TIP3   OH233161   6.774   2.253  17.884  0.4588 -0.1727 -0.6876
 2989TIP3    H133162   6.738   2.166  17.900 -2.8919  1.0965 -0.5313
 2989TIP3    H233163   6.759   2.269  17.791 -0.1972  0.6860 -0.4533
 2990TIP3   OH233164   0.588   3.460  16.598 -0.2452 -0.2809 -0.7052
 2990TIP3    H133165   0.653   3.390  16.606  1.0454  0.6514 -2.2774
 2990TIP3    H233166   0.601   3.514  16.676 -0.0341 -0.8119 -0.3694
 2991TIP3   OH233167   7.297   2.682  16.407  0.0501  0.0096  0.1923
 2991TIP3    H133168   7.299   2.673  16.312 -1.7245 -2.3852  0.2805
 2991TIP3    H233169   7.386   2.661  16.436  0.1036 -1.3699 -0.8592
 2992TIP3   OH233170   3.238   2.896  18.367 -0.0503 -0.4500 -0.0840
 2992TIP3    H133171   3.237   2.958  18.440 -2.1231  0.1594 -0.5719
 2992TIP3    H233172   3.146   2.871  18.355 -0.1418  1.0700 -3.7874
 2993TIP3   OH233173   0.154   3.327  17.140 -0.3196 -0.0139 -0.6838
 2993TIP3    H133174   0.112   3.398  17.092  2.4262 -0.0677 -3.4753
 2993TIP3    H233175   0.245   3.356  17.152  0.3107 -2.1205  0.1456
 2994TIP3   OH233176   2.950   2.308  18.015  0.3745 -0.0154  0.2475
 2994TIP3    H133177   3.000   2.284  18.093  0.4981  1.2655  0.5738
 2994TIP3    H233178   2.931   2.401  18.025  0.6647  0.2531 -1.4081
 2995TIP3   OH233179   6.501   3.324  17.245 -0.4552  0.0544 -0.1632
 2995TIP3    H133180   6.534   3.396  17.299  0.8700  0.4400 -1.4099
 2995TIP3    H233181   6.509   3.247  17.301 -2.1451  0.8619  1.2871
 2996TIP3   OH233182   6.523   6.093  18.630  0.2656  0.2033  0.0369
 2996TIP3    H133183   6.565   6.165  18.677 -0.3062  0.6577 -0.1311
 2996TIP3    H233184   6.443   6.132  18.593 -0.8265 -0.8527  1.1669
 2997TIP3   OH233185   0.574   6.198  18.208 -0.3781  0.4610  0.0362
 2997TIP3    H133186   0.539   6.219  18.294 -0.7194  0.0956 -0.0063
 2997TIP3    H233187   0.573   6.102  18.204  0.7596  0.4340  0.0791
 2998TIP3   OH233188   2.179   6.479  15.849 -0.1603 -0.4886 -0.6920
 2998TIP3    H133189   2.257   6.503  15.899 -0.2308  0.0952 -0.8526
 2998TIP3    H233190   2.202   6.396  15.807 -1.3957 -3.0761  3.2321
 2999TIP3   OH233191   2.671   3.631  17.088 -0.4941 -0.1852  0.7076
 2999TIP3    H133192   2.719   3.554  17.118 -4.2311 -2.3905  1.7292
 2999TIP3    H233193   2.704   3.703  17.142  3.4916 -0.7982 -0.6487
 3000TIP3   OH233194   3.230   7.436  16.815 -0.3574 -0.1575 -0.0003
 3000TIP3    H133195   3.190   7.510  16.862  1.1699  0.1901  0.8201
 3000TIP3    H233196   3.257   7.375  16.884 -2.4260 -1.9943 -0.6953
 3001TIP3   OH233197   4.599   0.856  17.315 -0.3417 -0.4016  0.1341
 3001TIP3    H133198   4.590   0.886  17.225 -0.7683  0.3957  0.4311
 3001TIP3    H233199   4.632   0.932  17.363  0.5873 -1.0387  0.5180
 3002TIP3   OH233200   0.715   2.868  16.934  0.3224  0.1726 -0.1014
 3002TIP3    H133201   0.667   2.795  16.974 -0.0151  0.7277  0.5284
 3002TIP3    H233202   0.790   2.881  16.992 -1.4504  2.5798  1.8559
 3003TIP3   OH233203   2.117   0.657  17.436  0.0091 -0.2304  0.0372
 3003TIP3    H133204   2.145   0.741  17.473  0.3965 -0.5617  0.5143
 3003TIP3    H233205   2.190   0.597  17.454 -0.4145 -0.7566  0.0307
 3004TIP3   OH233206   1.907   1.819  17.529  0.1184  0.0789  0.0434
 3004TIP3    H133207   1.922   1.727  17.551  2.5660 -0.3231 -2.6837
 3004TIP3    H233208   1.967   1.868  17.586  1.2826 -0.3533 -0.7688
 3005TIP3   OH233209   3.760   3.888  17.286  0.4826 -0.0815 -0.0074
 3005TIP3    H133210   3.782   3.840  17.366 -0.2954  0.1560  0.3635
 3005TIP3    H233211   3.742   3.977  17.316 -0.6789 -0.1974 -0.3186
 3006TIP3   OH233212   2.530   2.532  18.874 -0.0686  0.2378 -0.2101
 3006TIP3    H133213   2.452   2.483  18.849 -0.3840 -0.5712  2.1729
 3006TIP3    H233214   2.500   2.623  18.881 -0.7833 -0.0666  0.6612
 3007TIP3   OH233215   4.406   3.979  18.077  0.4738 -0.2221 -0.2231
 3007TIP3    H133216   4.407   3.891  18.116  2.2534  0.3782  1.2273
 3007TIP3    H233217   4.431   3.965  17.986  1.6422 -1.1591  0.2085
 3008TIP3   OH233218   2.950   1.444  16.420 -0.5659  0.1024 -0.1674
 3008TIP3    H133219   3.003   1.473  16.345 -0.7508 -0.3709 -0.4818
 3008TIP3    H233220   2.873   1.402  16.380  0.8886 -3.1921  0.1923
 3009TIP3   OH233221   4.040   3.845  18.353 -0.0946  0.2682  0.2220
 3009TIP3    H133222   4.077   3.834  18.266  0.3570 -0.0905  0.4541
 3009TIP3    H233223   4.097   3.911  18.395 -0.5528  0.7428  0.1117
 3010TIP3   OH233224   0.725   6.665  17.777 -0.7611  0.4220 -0.7042
 3010TIP3    H133225   0.657   6.598  17.777 -0.3108 -0.0459 -0.0833
 3010TIP3    H233226   0.691   6.732  17.837  0.1031 -0.6593  1.0854
 3011TIP3   OH233227   5.276   4.510  16.617  0.0350 -0.6111 -0.6063
 3011TIP3    H133228   5.316   4.486  16.701  0.1576  0.3591 -0.3719
 3011TIP3    H233229   5.188   4.474  16.621 -0.8074  1.4404  0.9675
 3012TIP3   OH233230   5.012   6.963  16.449  0.4102 -0.5042  0.4410
 3012TIP3    H133231   5.071   6.920  16.511  0.9158 -2.5146 -1.3211
 3012TIP3    H233232   4.997   6.898  16.381 -0.0611  1.6025 -1.6009
 3013TIP3   OH233233   6.930   2.608  18.398 -0.5290 -0.0741  0.0429
 3013TIP3    H133234   6.841   2.573  18.404 -1.2936  1.9674  1.6074
 3013TIP3    H233235   6.936   2.671  18.469  0.5098  3.4430 -2.8615
 3014TIP3   OH233236   1.440   6.646  16.872  0.2454  0.1186  0.1174
 3014TIP3    H133237   1.500   6.586  16.827 -1.6839 -1.8509 -0.0124
 3014TIP3    H233238   1.364   6.652  16.814 -1.0988 -0.1861  1.7620
 3015TIP3   OH233239   2.916   4.478  17.222 -0.2175  0.4977 -0.2220
 3015TIP3    H133240   2.867   4.559  17.235 -2.4444 -0.8747  0.5844
 3015TIP3    H233241   2.861   4.427  17.162  1.1013 -0.4528 -0.6640
 3016TIP3   OH233242   3.947   1.586  16.819 -0.5412  0.3520  0.4009
 3016TIP3    H133243   3.965   1.516  16.881 -1.8723 -0.4258 -0.0400
 3016TIP3    H233244   3.884   1.643  16.864  0.8756  1.5632  0.9358
 3017TIP3   OH233245   5.623   7.453  17.809  0.2964  0.0543  0.1074
 3017TIP3    H133246   5.550   7.410  17.764  0.8185 -0.1692 -0.5492
 3017TIP3    H233247   5.661   7.385  17.864 -1.0781  0.6344  1.8576
 3018TIP3   OH233248   2.487   5.750  17.082  0.2912  0.1623  0.3394
 3018TIP3    H133249   2.484   5.656  17.064 -0.7195 -0.1598  1.9628
 3018TIP3    H233250   2.532   5.757  17.166 -0.8416  0.9876  0.9076
 3019TIP3   OH233251   3.957   2.729  18.277  0.3045  0.2605  0.0549
 3019TIP3    H133252   3.948   2.700  18.186  0.3250  0.7677 -0.1151
 3019TIP3    H233253   3.998   2.816  18.270 -1.1300  0.9984  0.4507
 3020TIP3   OH233254   7.360   3.518  17.139  0.4959 -0.2636  0.5403
 3020TIP3    H133255   7.296   3.578  17.100  0.1545 -0.4025  0.8841
 3020TIP3    H233256   7.317   3.433  17.138  1.4901 -0.8084 -1.2036
 3021TIP3   OH233257   4.520   2.303  16.774  0.6418  0.3990 -0.3279
 3021TIP3    H133258   4.468   2.230  16.739  0.1817 -0.2162  1.5179
 3021TIP3    H233259   4.609   2.269  16.779  0.8691  0.7758 -1.6454
 3022TIP3   OH233260   4.862   3.773  17.476 -0.0581 -0.3945 -0.1737
 3022TIP3    H133261   4.859   3.868  17.470  1.0954 -0.3799 -0.8354
 3022TIP3    H233262   4.797   3.751  17.543 -1.2156  0.7601 -0.8750
 3023TIP3   OH233263   2.668   2.592  18.357 -0.2989  0.2994 -0.5828
 3023TIP3    H133264   2.593   2.622  18.408 -0.5804  1.5185 -1.6432
 3023TIP3    H233265   2.713   2.530  18.414 -1.1366  0.8654  0.7465
 3024TIP3   OH233266   1.180   0.457  19.013  0.4324 -0.3883 -0.6687
 3024TIP3    H133267   1.108   0.501  18.966  1.4559 -2.8385 -5.0682
 3024TIP3    H233268   1.139   0.381  19.054 -0.3561  1.4378  2.2354
 3025TIP3   OH233269   3.693   3.331  18.902 -0.0700  0.5324 -0.2719
 3025TIP3    H133270   3.726   3.387  18.972 -0.0009  0.0079  0.1281
 3025TIP3    H233271   3.752   3.346  18.828 -0.6729  1.7523 -0.5170
 3026TIP3   OH233272   4.583   3.637  16.880  0.1631 -0.0371 -0.0433
 3026TIP3    H133273   4.598   3.574  16.951  0.8398 -0.8704 -0.9042
 3026TIP3    H233274   4.564   3.584  16.804  0.7769  0.8031 -0.8065
 3027TIP3   OH233275   3.439   5.425  17.089 -0.1186  0.3263  0.3850
 3027TIP3    H133276   3.375   5.420  17.018 -0.3660  1.9518  0.4531
 3027TIP3    H233277   3.516   5.464  17.049  1.2436 -2.4342  0.0841
 3028TIP3   OH233278   6.208   5.502  16.645  0.2157  0.1392  0.2227
 3028TIP3    H133279   6.174   5.556  16.717 -1.4582  0.0394 -0.4467
 3028TIP3    H233280   6.136   5.442  16.625  0.9332 -0.3242 -1.0362
 3029TIP3   OH233281   2.675   4.941  18.761  0.5807 -0.5534  0.1126
 3029TIP3    H133282   2.644   4.906  18.844  0.0415 -1.2339 -0.3657
 3029TIP3    H233283   2.675   4.866  18.701  1.4945 -0.1939 -0.3616
 3030TIP3   OH233284   3.883   1.584  17.596 -0.2265 -0.1457  0.1224
 3030TIP3    H133285   3.856   1.522  17.528  2.1217 -1.4394  0.2602
 3030TIP3    H233286   3.949   1.537  17.647  2.7615  2.8283 -0.6008
 3031TIP3   OH233287   5.346   1.643  17.874 -0.0049  0.3750  0.2522
 3031TIP3    H133288   5.352   1.580  17.802  2.1847  0.7135  0.0820
 3031TIP3    H233289   5.278   1.607  17.931  0.9715 -2.0303  0.0399
 3032TIP3   OH233290   4.318   6.945  17.540 -0.1843 -0.0826  0.4253
 3032TIP3    H133291   4.328   7.032  17.502 -0.6820 -0.3509 -0.3341
 3032TIP3    H233292   4.245   6.953  17.601 -0.2068  0.0406  0.3815
 3033TIP3   OH233293   2.086   1.396  16.687  0.0996  0.3286  0.5442
 3033TIP3    H133294   2.005   1.351  16.665  1.1801 -1.2127 -0.5298
 3033TIP3    H233295   2.105   1.451  16.611 -0.1351  0.9986  0.9625
 3034TIP3   OH233296   6.541   5.783  18.627  0.3315 -0.6524 -0.2110
 3034TIP3    H133297   6.559   5.876  18.641 -2.0956  0.0755 -1.3965
 3034TIP3    H233298   6.562   5.769  18.535 -0.8944 -0.8209 -0.4813
 3035TIP3   OH233299   5.114   0.414  17.874  0.5353  0.1524  0.0613
 3035TIP3    H133300   5.187   0.402  17.814  0.4230 -0.4987  0.0457
 3035TIP3    H233301   5.155   0.441  17.956  0.5941  2.2624 -0.6297
 3036TIP3   OH233302   2.446   1.489  17.840 -0.2521  0.3932 -0.7416
 3036TIP3    H133303   2.411   1.481  17.929 -1.3897 -0.0201 -1.2072
 3036TIP3    H233304   2.515   1.423  17.835  0.2524  0.8481  0.0262
 3037TIP3   OH233305   6.410   1.970  17.682  0.0378  0.6373 -0.0214
 3037TIP3    H133306   6.331   1.930  17.718  0.4805 -0.4396 -0.2129
 3037TIP3    H233307   6.379   2.048  17.637 -0.9235  0.1920 -0.1585
 3038TIP3   OH233308   5.002   0.479  16.060  0.2674 -0.1130 -0.2971
 3038TIP3    H133309   5.038   0.410  16.004  1.1983 -1.7440  2.1414
 3038TIP3    H233310   4.920   0.443  16.094 -0.2069  0.7854 -0.4355
 3039TIP3   OH233311   5.240   2.913  17.760 -0.4261 -0.7850 -0.0785
 3039TIP3    H133312   5.301   2.979  17.794 -0.8474 -0.1152 -0.6099
 3039TIP3    H233313   5.154   2.954  17.766 -0.6632 -1.1873 -0.6538
 3040TIP3   OH233314   1.395   1.415  16.515  0.9776  0.1790  0.0540
 3040TIP3    H133315   1.486   1.444  16.513  0.9337  0.3509  0.5091
 3040TIP3    H233316   1.353   1.472  16.579  1.4875 -2.5458  3.0689
 3041TIP3   OH233317   1.316   0.012  16.400  0.2446  0.9443 -0.0463
 3041TIP3    H133318   1.275   0.062  16.329  0.3612  0.7087 -0.2787
 3041TIP3    H233319   1.243  -0.031  16.444  0.2901 -0.0017 -0.8630
 3042TIP3   OH233320   0.839   6.295  18.529  0.3761 -0.0214  0.7491
 3042TIP3    H133321   0.753   6.322  18.495  0.8376 -0.1308 -0.5695
 3042TIP3    H233322   0.823   6.211  18.570 -0.2922  0.3252  1.2232
 3043TIP3   OH233323   1.861   0.986  18.531  0.1664  0.8447 -0.1468
 3043TIP3    H133324   1.858   0.899  18.492 -0.2891  0.9021 -0.2452
 3043TIP3    H233325   1.808   1.041  18.472  2.9432  1.9086 -1.8274
 3044TIP3   OH233326   3.024   2.086  17.698 -0.1025 -0.0526 -0.0045
 3044TIP3    H133327   2.945   2.061  17.746  0.0193  0.2993  0.3846
 3044TIP3    H233328   3.020   2.181  17.695 -0.4525 -0.0956 -1.2803
 3045TIP3   OH233329   4.174   3.715  17.452  0.1689  0.4621 -0.2156
 3045TIP3    H133330   4.140   3.627  17.461 -1.5318  1.0513 -0.5018
 3045TIP3    H233331   4.129   3.751  17.375 -0.0093  1.9331  0.5320
 3046TIP3   OH233332   5.225   1.520  16.735 -0.2589  0.1740  0.1458
 3046TIP3    H133333   5.199   1.610  16.716 -0.3420  0.0756 -0.2008
 3046TIP3    H233334   5.302   1.506  16.680 -0.7702 -0.2620 -0.4639
 3047TIP3   OH233335   1.290   7.106  17.251  0.1366 -0.2058  0.3388
 3047TIP3    H133336   1.276   7.197  17.224  1.2120 -0.7276 -2.3526
 3047TIP3    H233337   1.207   7.062  17.236  0.0821  0.0041  0.0267
 3048TIP3   OH233338   5.670   0.941  16.902 -0.5426  0.0132 -0.3799
 3048TIP3    H133339   5.669   0.915  16.994 -0.4835 -0.4986 -0.5186
 3048TIP3    H233340   5.642   0.863  16.855  1.0802 -0.2853 -0.9234
 3049TIP3   OH233341   6.862   2.225  17.416  0.6121  0.0594  0.2005
 3049TIP3    H133342   6.857   2.310  17.372  0.7415 -0.3822 -0.6923
 3049TIP3    H233343   6.784   2.222  17.471 -1.1622 -0.5331 -2.1692
 3050TIP3   OH233344   1.352   3.305  18.475 -0.7311 -0.2413 -0.0051
 3050TIP3    H133345   1.441   3.314  18.440 -0.1156 -0.2856  1.4618
 3050TIP3    H233346   1.299   3.364  18.422  0.1069 -0.4312 -1.1008
 3051TIP3   OH233347   6.857   6.951  18.559  0.4650  0.2458  0.1507
 3051TIP3    H133348   6.874   6.986  18.646  0.7829 -1.5695  0.8775
 3051TIP3    H233349   6.802   6.874  18.575  0.1198  0.1564 -1.3074
 3052TIP3   OH233350   4.295   3.778  16.630  0.5463 -0.0498  0.1392
 3052TIP3    H133351   4.372   3.722  16.619  0.3643  0.0251 -2.0500
 3052TIP3    H233352   4.330   3.867  16.636  0.6653 -0.0671 -0.2740
 3053TIP3   OH233353   3.357   5.695  18.172 -0.1391  0.0812 -0.3391
 3053TIP3    H133354   3.416   5.763  18.137  0.2344 -0.2304 -0.3284
 3053TIP3    H233355   3.362   5.706  18.267 -2.9891  2.4852 -0.3363
 3054TIP3   OH233356   3.135   6.759  16.487  0.0731 -0.5168 -0.1124
 3054TIP3    H133357   3.188   6.811  16.428  0.3715 -0.5900  0.0870
 3054TIP3    H233358   3.070   6.716  16.431  1.0633 -1.4841 -0.5527
 3055TIP3   OH233359   1.471   2.800  18.023  0.7744 -0.3101 -0.2558
 3055TIP3    H133360   1.423   2.872  18.064  1.3986 -0.5345  0.9156
 3055TIP3    H233361   1.468   2.820  17.929  2.8118  2.4980  0.1475
 3056TIP3   OH233362   1.846   1.390  17.549  0.6530 -0.0275 -0.2111
 3056TIP3    H133363   1.895   1.317  17.511  1.5160  1.1958 -1.5497
 3056TIP3    H233364   1.801   1.429  17.475 -2.3996 -1.0422  0.9560
 3057TIP3   OH233365   4.990   2.469  17.489 -0.2211 -0.3424 -0.0628
 3057TIP3    H133366   5.044   2.548  17.488  0.4893 -0.8215  0.3238
 3057TIP3    H233367   4.929   2.483  17.561 -0.5832  0.1693 -0.4573
 3058TIP3   OH233368   2.423   0.921  18.121 -0.1690  0.0081  0.0423
 3058TIP3    H133369   2.483   0.980  18.167 -0.3779  1.3301 -1.3061
 3058TIP3    H233370   2.474   0.890  18.045 -0.9235  0.5523 -0.6981
 3059TIP3   OH233371   3.645   2.452  18.843 -0.0450 -0.1290  0.2219
 3059TIP3    H133372   3.602   2.475  18.761 -1.1118 -0.0000  0.7947
 3059TIP3    H233373   3.732   2.422  18.818 -0.3113  0.0458 -0.9367
 3060TIP3   OH233374   5.674   0.783  16.690  0.2592  0.1364  0.2248
 3060TIP3    H133375   5.770   0.780  16.683  0.3035 -0.2772  0.8540
 3060TIP3    H233376   5.643   0.780  16.600  0.8793  2.4948 -0.1341
 3061TIP3   OH233377   6.411   2.650  17.675 -0.2258  0.3395  0.0395
 3061TIP3    H133378   6.446   2.738  17.683  0.4743  0.0870 -0.1854
 3061TIP3    H233379   6.318   2.659  17.698 -0.2091  1.1678 -0.1816
 3062TIP3   OH233380   5.572   2.896  16.960  0.2870  0.1788  0.7848
 3062TIP3    H133381   5.659   2.928  16.987  0.3680 -0.6001  1.4874
 3062TIP3    H233382   5.532   2.866  17.041 -0.0974 -0.7440  0.2692
 3063TIP3   OH233383   6.784   0.176  17.781 -0.4235  0.6355  0.5728
 3063TIP3    H133384   6.754   0.179  17.690 -1.4951  0.2791  0.8938
 3063TIP3    H233385   6.861   0.231  17.783  0.9351 -1.0701 -1.0393
 3064TIP3   OH233386   6.688   5.056  16.594  0.6821  0.2691 -0.2003
 3064TIP3    H133387   6.629   5.004  16.649  1.3236 -0.2978 -0.0345
 3064TIP3    H233388   6.695   5.005  16.513  0.6513  0.5251 -0.3644
 3065TIP3   OH233389   2.709   5.332  18.368 -0.2739  0.1273 -0.5939
 3065TIP3    H133390   2.796   5.344  18.332 -0.4378 -3.2827 -2.5270
 3065TIP3    H233391   2.650   5.350  18.294 -1.1615  0.9987  0.2956
 3066TIP3   OH233392   0.739   2.813  17.393  0.2163 -0.9271  0.2552
 3066TIP3    H133393   0.780   2.876  17.451 -0.0654  0.5413 -1.0734
 3066TIP3    H233394   0.804   2.797  17.324 -0.8307  0.3920 -1.1265
 3067TIP3   OH233395   1.408   5.784  16.765  0.1980 -0.2345  0.0444
 3067TIP3    H133396   1.348   5.821  16.699 -0.9169 -2.6881 -0.4459
 3067TIP3    H233397   1.436   5.701  16.727  1.5711 -0.5171  1.5924
 3068TIP3   OH233398   1.128   4.610  16.403  0.2259 -0.2249 -0.1077
 3068TIP3    H133399   1.036   4.630  16.383  0.3165  0.2534 -0.0621
 3068TIP3    H233400   1.175   4.632  16.322  0.4668  0.7943  0.2981
 3069TIP3   OH233401   7.388   6.992  18.356 -0.4305  0.2612  0.1957
 3069TIP3    H133402   7.315   6.977  18.416  0.4549 -0.7694  1.0719
 3069TIP3    H233403   7.370   6.936  18.281 -0.7492  0.3224  0.2273
 3070TIP3   OH233404   2.212   2.322  16.778 -0.4101 -0.2362 -0.6706
 3070TIP3    H133405   2.214   2.367  16.693 -1.2199  2.5420  0.6781
 3070TIP3    H233406   2.142   2.364  16.826  0.2695 -1.4859  1.5512
 3071TIP3   OH233407   0.646   1.696  18.072  0.1067  0.7184 -0.1332
 3071TIP3    H133408   0.628   1.650  18.154 -1.0207 -1.6267 -1.6010
 3071TIP3    H233409   0.625   1.787  18.091 -0.6291  0.1654  2.0157
 3072TIP3   OH233410   2.463   5.148  16.273  0.4211 -0.6408  0.3652
 3072TIP3    H133411   2.536   5.097  16.235 -0.5829 -3.5257  1.9791
 3072TIP3    H233412   2.497   5.237  16.277  2.3002 -1.0276 -2.7602
 3073TIP3   OH233413   7.443   5.102  16.477  0.3498  0.1498 -0.6754
 3073TIP3    H133414   7.444   5.118  16.572 -0.7201  2.7120 -1.0247
 3073TIP3    H233415   7.436   5.006  16.469 -1.7393 -0.0252  1.8711
 3074TIP3   OH233416   2.116   5.921  16.843 -0.1484 -0.3351 -0.0185
 3074TIP3    H133417   2.155   5.924  16.931 -0.0311 -0.8885 -0.0469
 3074TIP3    H233418   2.067   5.839  16.842 -1.3415  0.3535  0.0207
 3075TIP3   OH233419   4.619   2.642  17.763 -0.7699  0.1639  0.0192
 3075TIP3    H133420   4.566   2.721  17.752  0.6548  1.1291 -0.3062
 3075TIP3    H233421   4.579   2.578  17.704 -1.4691  0.9184 -0.3477
 3076TIP3   OH233422   0.226   6.131  17.697  0.0665 -0.0156 -0.3096
 3076TIP3    H133423   0.208   6.084  17.616 -0.9511 -0.3835  0.1153
 3076TIP3    H233424   0.141   6.166  17.724  0.3345 -0.1629  0.7703
 3077TIP3   OH233425   1.307   4.969  17.388 -0.4242  0.6891  0.5392
 3077TIP3    H133426   1.357   4.977  17.469  1.0014  1.3281 -0.3700
 3077TIP3    H233427   1.217   4.950  17.417  0.5639 -1.9105  2.1858
 3078TIP3   OH233428   4.804   3.023  18.038  0.2725 -0.3594 -0.5837
 3078TIP3    H133429   4.865   3.055  18.105  1.6347  0.7502 -2.2726
 3078TIP3    H233430   4.776   2.938  18.070  3.1402 -1.1837  0.0363
 3079TIP3   OH233431   5.280   2.945  18.418  0.3310 -0.2075 -0.0807
 3079TIP3    H133432   5.344   2.980  18.356  0.3048 -0.5902 -0.3270
 3079TIP3    H233433   5.243   3.023  18.460  0.4522  0.0499 -0.4421
 3080TIP3   OH233434   6.839   4.450  17.249 -0.2824 -0.0632  0.2029
 3080TIP3    H133435   6.779   4.518  17.220 -0.2406 -0.1110  0.0053
 3080TIP3    H233436   6.791   4.403  17.318 -1.0053 -0.9714 -0.8836
 3081TIP3   OH233437   6.124   2.808  18.424 -0.8763 -0.1554  0.3645
 3081TIP3    H133438   6.151   2.868  18.494 -1.5358  1.9786 -1.1089
 3081TIP3    H233439   6.036   2.780  18.449 -0.4367 -0.8151  1.2297
 3082TIP3   OH233440   3.965   1.456  16.577 -0.0586  0.2865  0.2392
 3082TIP3    H133441   3.949   1.494  16.663 -0.4254 -0.9680  0.7441
 3082TIP3    H233442   4.044   1.500  16.546  0.1582  0.6610  1.2741
 3083TIP3   OH233443   7.444   2.394  17.586 -0.1249 -0.5274 -0.1786
 3083TIP3    H133444   7.528   2.440  17.588  1.2495 -2.7536 -2.0049
 3083TIP3    H233445   7.460   2.313  17.635 -0.9924 -1.2706 -1.0784
 3084TIP3   OH233446   0.639   5.145  18.450  0.5617 -0.3676 -0.5868
 3084TIP3    H133447   0.568   5.100  18.497  1.5319 -1.7894 -0.4044
 3084TIP3    H233448   0.718   5.096  18.475  1.5519  0.9150 -1.1139
 3085TIP3   OH233449   3.259   6.633  18.274 -0.0378 -0.1577 -0.4227
 3085TIP3    H133450   3.217   6.695  18.215  1.7285  1.7756  0.2455
 3085TIP3    H233451   3.230   6.659  18.362  0.0630 -0.8358 -0.1751
 3086TIP3   OH233452   4.315   3.552  17.802  0.3781 -0.1920  0.1208
 3086TIP3    H133453   4.390   3.511  17.846  1.3365  1.0046 -0.3375
 3086TIP3    H233454   4.254   3.572  17.873  0.5953 -0.9558  0.5370
 3087TIP3   OH233455   6.518   2.428  17.775 -0.7942  0.2337  0.0616
 3087TIP3    H133456   6.611   2.433  17.796 -0.7844  1.2529 -0.2146
 3087TIP3    H233457   6.493   2.517  17.751 -1.7856 -0.0778 -0.1154
 3088TIP3   OH233458   2.029   3.456  16.770 -0.1655  0.0001  0.4718
 3088TIP3    H133459   2.089   3.531  16.772 -0.4132  0.3119 -1.3736
 3088TIP3    H233460   1.950   3.490  16.727 -1.1098 -0.7855  1.5397
 3089TIP3   OH233461   4.787   3.288  18.461  0.1576  0.0872  0.0083
 3089TIP3    H133462   4.881   3.305  18.467 -0.0155  0.9777  0.3473
 3089TIP3    H233463   4.748   3.341  18.531 -0.7719  1.2664 -1.3457
 3090TIP3   OH233464   5.625   0.019  17.151  0.4781  0.1220 -0.1385
 3090TIP3    H133465   5.708   0.030  17.197  1.0543 -1.2718 -0.7875
 3090TIP3    H233466   5.649  -0.016  17.065 -0.8038 -0.8121 -0.1535
 3091TIP3   OH233467   2.715   0.410  16.815  0.2132 -0.1525  0.6048
 3091TIP3    H133468   2.741   0.497  16.845 -1.3459  0.7220 -0.4703
 3091TIP3    H233469   2.638   0.425  16.760 -0.1415 -2.2270  0.4590
 3092TIP3   OH233470   2.144   1.935  17.364 -0.1252  0.3154  0.1549
 3092TIP3    H133471   2.100   1.866  17.414 -0.6051 -0.6028 -1.4651
 3092TIP3    H233472   2.138   1.907  17.273  0.9622  1.7974 -0.4232
 3093TIP3   OH233473   7.234   4.835  18.928 -0.1735  0.5754  0.2758
 3093TIP3    H133474   7.212   4.924  18.900 -1.0346  0.4286  0.4476
 3093TIP3    H233475   7.150   4.788  18.925  0.4555 -0.5306 -0.8915
 3094TIP3   OH233476   1.206   2.214  16.672 -0.2797 -0.1669 -0.1611
 3094TIP3    H133477   1.253   2.142  16.713  0.1303 -0.1686 -0.6335
 3094TIP3    H233478   1.187   2.183  16.583 -1.2026 -0.1831  0.0328
 3095TIP3   OH233479   0.663   1.672  17.585  0.4241 -0.1517  1.2282
 3095TIP3    H133480   0.625   1.656  17.671  0.8958 -0.6679  1.3439
 3095TIP3    H233481   0.598   1.727  17.540 -0.2997 -0.7453  1.5339
 3096TIP3   OH233482   1.060   6.514  18.812  0.5305 -0.6493  0.2811
 3096TIP3    H133483   1.122   6.587  18.810 -0.9827  0.6653 -0.5246
 3096TIP3    H233484   1.014   6.518  18.728 -0.9102 -1.3484  0.9894
 3097TIP3   OH233485   3.434   6.773  16.453  0.1766 -0.2531  0.2397
 3097TIP3    H133486   3.405   6.795  16.364  1.3277  2.7968  0.4905
 3097TIP3    H233487   3.398   6.686  16.469 -2.1680  0.1007 -2.2742
 3098TIP3   OH233488   2.980   7.102  16.521 -0.6620 -0.1240 -0.3479
 3098TIP3    H133489   2.934   7.022  16.545 -3.6692  1.6110  0.0711
 3098TIP3    H233490   3.027   7.127  16.600 -1.4533 -0.3474  0.2027
 3099TIP3   OH233491   4.503   6.035  16.133 -0.1623  0.2056 -0.0971
 3099TIP3    H133492   4.450   6.056  16.209 -0.4462 -1.6721  0.2746
 3099TIP3    H233493   4.463   6.084  16.061  0.4174  2.4185  0.9993
 3100TIP3   OH233494   4.898   3.251  16.210 -0.1142  0.3453 -0.1612
 3100TIP3    H133495   4.924   3.160  16.222 -0.2429  0.2999 -0.2184
 3100TIP3    H233496   4.852   3.252  16.126  1.2997  0.7702 -0.9601
 3101TIP3   OH233497   0.073   2.331  16.794  0.1591 -0.5588  0.1423
 3101TIP3    H133498   0.072   2.420  16.829 -1.6396 -1.2568  2.0794
 3101TIP3    H233499  -0.017   2.316  16.764  0.7317 -1.3401 -1.2748
 3102TIP3   OH233500   7.206   4.182  18.932  0.0233  0.1024  0.1326
 3102TIP3    H133501   7.259   4.249  18.889 -1.7845  0.5271 -1.5928
 3102TIP3    H233502   7.218   4.104  18.878 -1.3733  0.3188 -0.5229
 3103TIP3   OH233503   0.573   2.720  17.125  0.4082 -0.4905  0.1903
 3103TIP3    H133504   0.482   2.738  17.151  0.4919  1.5577 -0.7573
 3103TIP3    H233505   0.617   2.699  17.207 -1.1317 -2.7764  0.5349
 3104TIP3   OH233506   1.463   2.757  17.751 -0.2608 -0.4537  0.2216
 3104TIP3    H133507   1.433   2.786  17.665 -1.1023 -0.0666  0.6374
 3104TIP3    H233508   1.554   2.732  17.738 -1.0873 -3.0707 -1.4443
 3105TIP3   OH233509   3.261   2.444  17.643 -0.2935  0.1578 -0.0852
 3105TIP3    H133510   3.189   2.417  17.587 -1.1178 -0.5581  1.2889
 3105TIP3    H233511   3.275   2.536  17.621 -0.0598 -0.2851 -2.0043
 3106TIP3   OH233512   1.103   1.864  18.171 -0.1743  0.1500 -0.2207
 3106TIP3    H133513   1.052   1.918  18.232 -0.5269  0.2484 -0.6022
 3106TIP3    H233514   1.038   1.818  18.119  0.1017 -1.4456  0.7763
 3107TIP3   OH233515   5.863   0.271  18.297 -0.5531 -0.1948 -0.3896
 3107TIP3    H133516   5.787   0.280  18.239 -2.3913 -1.2711  1.7000
 3107TIP3    H233517   5.841   0.198  18.354  2.0440 -0.4669  0.3983
 3108TIP3   OH233518   1.592   5.909  17.840 -0.3311  0.4609 -0.6132
 3108TIP3    H133519   1.564   5.820  17.819  0.7661  0.1598 -0.8778
 3108TIP3    H233520   1.533   5.965  17.791 -1.3782 -0.0999 -0.0279
 3109TIP3   OH233521   1.320   2.833  15.913 -0.3861  0.4019 -0.3212
 3109TIP3    H133522   1.308   2.748  15.871 -2.4963 -0.2641  1.4465
 3109TIP3    H233523   1.408   2.830  15.949 -0.7237 -1.4312  0.4651
 3110TIP3   OH233524   4.840   4.521  18.507 -0.3695 -0.1609  0.2328
 3110TIP3    H133525   4.853   4.560  18.420  0.9578 -0.7705  0.1346
 3110TIP3    H233526   4.878   4.584  18.567  0.4702 -0.6005  0.1880
 3111TIP3   OH233527   1.272   1.973  17.974  0.1200  0.1477 -0.8847
 3111TIP3    H133528   1.228   1.931  18.048  1.4793  0.1775 -0.0160
 3111TIP3    H233529   1.239   1.927  17.897 -0.2958 -0.8282 -0.1497
 3112TIP3   OH233530   4.051   2.050  17.586  0.3538  0.2968 -0.2275
 3112TIP3    H133531   4.078   2.136  17.553 -0.0921  0.3941 -0.3460
 3112TIP3    H233532   4.071   2.053  17.679 -0.5413  0.8909 -0.0387
 3113TIP3   OH233533   7.282   4.440  18.731  0.2085  0.2999 -0.3223
 3113TIP3    H133534   7.323   4.438  18.645  0.8148  0.5721 -0.0470
 3113TIP3    H233535   7.344   4.490  18.786 -0.7150  1.1308 -0.0147
 3114TIP3   OH233536   0.774   3.261  17.665  0.1664  0.0930  0.1560
 3114TIP3    H133537   0.809   3.348  17.685 -0.1813  0.5802 -1.2021
 3114TIP3    H233538   0.734   3.271  17.578 -0.8353 -1.1515  0.4431
 3115TIP3   OH233539   3.162   5.125  19.027 -0.1755 -0.3561  0.8284
 3115TIP3    H133540   3.175   5.108  18.934 -1.5538  0.5547  0.4335
 3115TIP3    H233541   3.228   5.191  19.049  0.5838 -1.0520  0.6653
 3116TIP3   OH233542   4.387   7.091  17.034 -0.5753 -0.4541  1.1331
 3116TIP3    H133543   4.312   7.033  17.037 -0.8717 -0.0311  2.0841
 3116TIP3    H233544   4.351   7.178  17.048 -0.3236  0.1836 -1.4972
 3117TIP3   OH233545   6.882   0.436  19.063 -0.1049 -0.0384  0.0067
 3117TIP3    H133546   6.956   0.376  19.058 -1.6244 -1.9936  0.0353
 3117TIP3    H233547   6.805   0.381  19.050 -1.5522  2.0218 -0.6933
 3118TIP3   OH233548   2.979   1.541  18.466 -0.4258  0.2881 -0.6138
 3118TIP3    H133549   2.989   1.504  18.378  0.2491  0.0589 -0.4483
 3118TIP3    H233550   3.030   1.622  18.464 -0.8025  0.5249 -0.5758
 3119TIP3   OH233551   7.320   6.833  18.143  0.3385 -0.0753  0.3677
 3119TIP3    H133552   7.410   6.809  18.122  0.0253 -0.7086 -0.3071
 3119TIP3    H233553   7.297   6.778  18.218  0.1569 -0.7441 -0.1634
 3120TIP3   OH233554   6.427   1.274  17.028 -0.2574  0.0736  0.1331
 3120TIP3    H133555   6.460   1.295  17.115  0.6849  0.7087 -0.3584
 3120TIP3    H233556   6.341   1.234  17.043  0.6607 -1.5475  1.4622
 3121TIP3   OH233557   5.226   2.314  18.720 -0.0507 -0.4828  1.1313
 3121TIP3    H133558   5.178   2.250  18.668 -1.1255  0.1955  1.2479
 3121TIP3    H233559   5.176   2.395  18.709  1.7221  0.5533  0.3275
 3122TIP3   OH233560   5.462   0.192  18.638  0.6149  0.1704  0.5526
 3122TIP3    H133561   5.544   0.232  18.606  1.0576 -0.5264  0.7953
 3122TIP3    H233562   5.432   0.139  18.564  0.7246 -0.0759  0.6818
 3123TIP3   OH233563   3.748   3.622  15.944  0.3021  0.4016 -0.1292
 3123TIP3    H133564   3.781   3.556  15.883 -2.2357  0.0426 -1.2399
 3123TIP3    H233565   3.764   3.705  15.900 -0.0409  0.2443 -0.5633
 3124TIP3   OH233566   3.819   4.038  18.328 -0.2901  0.4598  0.0512
 3124TIP3    H133567   3.904   3.996  18.315 -0.7434 -1.2099  2.0802
 3124TIP3    H233568   3.770   4.018  18.248  0.4921 -0.4031 -0.2314
 3125TIP3   OH233569   7.083   1.928  16.665  0.2389  0.0043 -0.9395
 3125TIP3    H133570   7.019   1.917  16.595  0.3396  0.0343 -1.0353
 3125TIP3    H233571   7.069   1.851  16.721 -0.4091  0.4008 -0.5378
 3126TIP3   OH233572   1.316   6.173  17.454 -0.8306  0.2973 -0.0450
 3126TIP3    H133573   1.256   6.233  17.410 -0.8378  1.1572  1.0971
 3126TIP3    H233574   1.394   6.171  17.398 -1.2884  0.4656 -0.6884
 3127TIP3   OH233575   3.350   0.618  16.885 -0.1495 -0.2880  0.3775
 3127TIP3    H133576   3.424   0.560  16.902  0.5940  0.8136  1.0634
 3127TIP3    H233577   3.319   0.593  16.798  1.4142 -0.3808 -0.1919
 3128TIP3   OH233578   7.355   6.463  17.646  0.1727  0.0394  0.3194
 3128TIP3    H133579   7.413   6.485  17.719  0.2624 -0.2215  0.3253
 3128TIP3    H233580   7.288   6.531  17.649  0.4330  0.3007  0.3603
 3129TIP3   OH233581   5.271   0.193  16.406  0.5941 -0.0458 -0.3428
 3129TIP3    H133582   5.246   0.274  16.450 -0.8899 -0.6353 -0.0417
 3129TIP3    H233583   5.278   0.217  16.314 -0.9533  0.2166 -0.4163
 3130TIP3   OH233584   7.175   6.740  18.716  0.3637 -0.2335 -0.1157
 3130TIP3    H133585   7.198   6.657  18.675  1.0761  0.0642 -0.3384
 3130TIP3    H233586   7.218   6.738  18.801  0.0992 -0.2326  0.0201
 3131TIP3   OH233587   3.408   4.856  18.165  0.4164 -0.6592  0.0750
 3131TIP3    H133588   3.426   4.788  18.230 -1.7494  0.9637  2.5397
 3131TIP3    H233589   3.470   4.926  18.185 -0.5069  0.0015  0.6767
 3132TIP3   OH233590   0.170   4.611  18.479  0.3398 -0.6204  0.9525
 3132TIP3    H133591   0.152   4.702  18.499 -1.1146 -0.4657 -0.7587
 3132TIP3    H233592   0.264   4.601  18.492  0.7144  1.4194  0.0958
 3133TIP3   OH233593   0.450   4.936  19.224  0.1375  0.1238  0.2514
 3133TIP3    H133594   0.365   4.937  19.181  0.2564 -1.2858 -0.0947
 3133TIP3    H233595   0.431   4.916  19.315  0.1446 -2.4058 -0.2064
 3134TIP3   OH233596   4.191   0.910  16.391 -0.3706 -0.0167  0.1691
 3134TIP3    H133597   4.112   0.863  16.417 -0.6879  1.3851  1.9930
 3134TIP3    H233598   4.159   0.983  16.337 -0.1574 -0.3355 -0.3918
 3135TIP3   OH233599   5.808   0.118  18.670 -0.5597  0.1746  0.6837
 3135TIP3    H133600   5.855   0.049  18.717  0.5524 -0.7047 -1.5574
 3135TIP3    H233601   5.762   0.072  18.600 -1.3550  1.5121  0.3025
 3136TIP3   OH233602   6.373   7.440  16.566  0.2005 -0.8352  0.2383
 3136TIP3    H133603   6.303   7.406  16.511 -0.7777 -1.4412  1.7962
 3136TIP3    H233604   6.414   7.509  16.513 -0.6602 -1.4027 -1.2323
 3137TIP3   OH233605   5.826   0.940  17.973  0.2109 -0.7153 -0.2785
 3137TIP3    H133606   5.780   0.904  18.048  0.6441 -0.2247  0.2270
 3137TIP3    H233607   5.873   0.866  17.935 -1.3531 -1.3399 -1.0961
 3138TIP3   OH233608   2.360   4.608  16.966 -0.1072  0.0169  0.3634
 3138TIP3    H133609   2.302   4.648  16.900 -1.6171 -0.6481  1.2333
 3138TIP3    H233610   2.389   4.526  16.926 -1.0065 -0.3774  0.4921
 3139TIP3   OH233611   2.823   0.674  17.986  0.2942 -0.4205  0.1593
 3139TIP3    H133612   2.870   0.706  18.063 -0.6200 -0.1582  0.6237
 3139TIP3    H233613   2.871   0.596  17.959  0.5973 -0.5452  1.0281
 3140TIP3   OH233614   1.509   6.101  16.798  0.4283 -0.7656 -0.1308
 3140TIP3    H133615   1.509   6.005  16.799 -1.4528 -0.8495 -2.2438
 3140TIP3    H233616   1.528   6.125  16.889 -0.9917 -3.1671  0.8979
 3141TIP3   OH233617   1.287   1.699  16.660 -0.4420  0.1378  0.0495
 3141TIP3    H133618   1.293   1.783  16.704 -0.5440  0.3506 -0.3389
 3141TIP3    H233619   1.306   1.634  16.728  1.0109  0.5331  0.0350
 3142TIP3   OH233620   0.982   4.787  19.207 -0.7696  0.9693  0.3883
 3142TIP3    H133621   0.886   4.792  19.203 -0.7086  3.0631  0.6246
 3142TIP3    H233622   1.007   4.857  19.268  0.9070  0.1895  0.6479
 3143TIP3   OH233623   1.402   1.985  17.494 -0.3496  0.1902  0.2183
 3143TIP3    H133624   1.344   2.045  17.539 -0.3751  1.1364 -1.0398
 3143TIP3    H233625   1.461   1.953  17.563 -1.7458 -0.1044  1.3330
 3144TIP3   OH233626   3.474   6.000  18.740  0.2209 -0.1257 -0.5235
 3144TIP3    H133627   3.513   5.921  18.702  0.1846 -0.2568 -0.2916
 3144TIP3    H233628   3.386   6.004  18.704  0.3939  0.0870 -0.9312
 3145TIP3   OH233629   7.325   1.042  17.286  0.2190 -0.9289  0.2563
 3145TIP3    H133630   7.318   0.960  17.237 -0.2366 -0.0911 -1.1299
 3145TIP3    H233631   7.371   1.101  17.227 -1.1083  0.3788  0.4720
 3146TIP3   OH233632   0.828   2.601  18.379  0.2255 -0.0009 -0.1720
 3146TIP3    H133633   0.861   2.637  18.297  0.9104 -0.4560 -0.1014
 3146TIP3    H233634   0.760   2.662  18.406  0.0894  0.2352 -1.0011
 3147TIP3   OH233635   0.903   4.993  16.808 -0.0001  0.0300  0.0397
 3147TIP3    H133636   0.847   4.944  16.747  1.4262 -0.6308 -0.7746
 3147TIP3    H233637   0.978   5.021  16.756  0.5922  0.6564  1.1739
 3148TIP3   OH233638   4.993   7.325  16.543  0.8419 -0.1720  0.0646
 3148TIP3    H133639   4.966   7.415  16.531  2.8608  0.8589  2.2820
 3148TIP3    H233640   4.925   7.286  16.599  0.8691  0.5599  0.6201
 3149TIP3   OH233641   6.457   4.980  17.531 -0.6252 -0.2480  0.1300
 3149TIP3    H133642   6.437   5.011  17.443  0.0674  0.5293  0.2281
 3149TIP3    H233643   6.495   4.893  17.518  2.4294  1.0550 -0.6781
 3150TIP3   OH233644   4.967   0.046  17.058 -0.0278 -0.2223  0.3033
 3150TIP3    H133645   4.984   0.027  16.966 -1.5490 -1.6215  0.2595
 3150TIP3    H233646   4.873   0.028  17.069  0.0682  0.1550  2.0816
 3151TIP3   OH233647   7.387   1.635  18.527 -0.4366  0.2934 -0.4356
 3151TIP3    H133648   7.395   1.643  18.432  1.0280 -0.1918 -0.3793
 3151TIP3    H233649   7.372   1.725  18.557 -1.2101  0.4139 -1.1372
 3152TIP3   OH233650   4.050   2.662  16.270 -0.6587  0.0739  0.4865
 3152TIP3    H133651   4.125   2.653  16.211 -0.1893  2.5738  0.6038
 3152TIP3    H233652   3.975   2.668  16.211 -0.4292  0.4194  0.2187
 3153TIP3   OH233653   3.906   0.703  17.770  0.1247 -0.3903  0.1407
 3153TIP3    H133654   3.901   0.741  17.858  1.6801 -1.0165  0.5440
 3153TIP3    H233655   3.833   0.642  17.766 -1.2662  1.2012  0.1724
 3154TIP3   OH233656   2.444   4.949  17.600 -0.0360 -0.2574  0.1979
 3154TIP3    H133657   2.486   4.897  17.669 -1.4640 -2.0076 -0.1937
 3154TIP3    H233658   2.401   4.885  17.544  1.6106  1.0300 -2.7872
 3155TIP3   OH233659   4.113   1.246  16.009  0.0490 -0.2905 -0.4864
 3155TIP3    H133660   4.070   1.330  16.026 -1.6171 -1.0016 -0.9570
 3155TIP3    H233661   4.159   1.259  15.926 -0.7398 -0.0146 -0.8916
 3156TIP3   OH233662   1.585   4.953  17.281  0.0251 -0.1800  0.2637
 3156TIP3    H133663   1.492   4.952  17.305 -0.0346 -0.5337  0.0379
 3156TIP3    H233664   1.621   4.875  17.324  0.3281  0.2442  0.7769
 3157TIP3   OH233665   3.373   0.189  18.204 -0.1095  0.8013 -0.4816
 3157TIP3    H133666   3.353   0.129  18.132  0.1931 -0.9221  0.8315
 3157TIP3    H233667   3.287   0.213  18.239 -0.1899 -1.6159  1.1456
 3158TIP3   OH233668   5.243   7.284  18.314 -0.4633  0.6328  0.1887
 3158TIP3    H133669   5.184   7.274  18.239 -0.5940  1.5932  0.1394
 3158TIP3    H233670   5.246   7.379  18.329  0.5172  0.5475  0.6360
 3159TIP3   OH233671   2.475   2.856  18.267 -0.4567  0.0829 -0.6945
 3159TIP3    H133672   2.560   2.861  18.312 -1.9451  2.2936  2.2353
 3159TIP3    H233673   2.435   2.776  18.299  0.0193 -0.3673 -1.1931
 3160TIP3   OH233674   4.406   0.963  17.780  0.1811 -0.2405 -0.4035
 3160TIP3    H133675   4.404   0.878  17.735  2.3464 -0.2700 -0.5549
 3160TIP3    H233676   4.459   0.947  17.858 -0.7679  0.6154  0.4407
 3161TIP3   OH233677   0.603   5.745  18.115  0.3069 -0.4411  0.5589
 3161TIP3    H133678   0.578   5.821  18.167  1.1877 -0.4001  0.9430
 3161TIP3    H233679   0.667   5.699  18.169 -0.1168 -1.3939  0.2769
 3162TIP3   OH233680   3.596   3.388  18.602  0.3503  0.2613 -0.2535
 3162TIP3    H133681   3.648   3.448  18.549 -1.2328  0.4905 -1.6423
 3162TIP3    H233682   3.590   3.308  18.550  0.4481 -0.2549  0.5053
 3163TIP3   OH233683   1.154   2.137  18.360 -0.1962 -0.2477 -0.4490
 3163TIP3    H133684   1.110   2.118  18.443  0.4135 -3.3584 -0.7320
 3163TIP3    H233685   1.247   2.138  18.382 -0.1247  2.7293 -0.5059
 3164TIP3   OH233686   1.683   4.870  16.785  0.6477 -0.1107  0.9578
 3164TIP3    H133687   1.615   4.848  16.848  1.6656 -2.7615  1.2775
 3164TIP3    H233688   1.690   4.792  16.730  1.4301  1.2275 -0.9481
 3165TIP3   OH233689   6.867   5.124  15.897 -0.0452  0.6402 -0.0208
 3165TIP3    H133690   6.949   5.085  15.927  0.2776  0.7557 -0.7354
 3165TIP3    H233691   6.801   5.057  15.915 -0.0030  1.0166  1.6655
 3166TIP3   OH233692   0.083   6.772  17.427 -0.3473 -0.2312 -0.0465
 3166TIP3    H133693   0.009   6.794  17.484  0.0917  1.0098  0.0850
 3166TIP3    H233694   0.137   6.713  17.480 -1.0299 -0.8281  0.0014
 3167TIP3   OH233695   2.431   6.611  18.196  0.3910  0.2929 -0.3730
 3167TIP3    H133696   2.506   6.554  18.181  1.2248  1.6618 -1.7430
 3167TIP3    H233697   2.463   6.678  18.257 -0.8701 -1.1683  2.0243
 3168TIP3   OH233698   4.651   5.362  18.385 -0.0454  0.4076  0.0352
 3168TIP3    H133699   4.710   5.357  18.460  0.1898  2.3488  0.0327
 3168TIP3    H233700   4.678   5.290  18.329  0.5951 -0.3258  1.2351
 3169TIP3   OH233701   5.690   1.341  16.313 -0.0615  0.0656 -0.3659
 3169TIP3    H133702   5.770   1.295  16.288  1.2657  0.8056  2.2182
 3169TIP3    H233703   5.719   1.428  16.338 -1.9694  0.9934 -1.1702
 3170TIP3   OH233704   2.014   7.133  18.904  0.5762  0.3662  0.0899
 3170TIP3    H133705   2.105   7.116  18.925  0.6158  1.8277  1.2117
 3170TIP3    H233706   2.016   7.208  18.844  0.0871  0.9753  0.8155
 3171TIP3   OH233707   1.151   2.138  17.053 -0.2738  0.1575 -0.0433
 3171TIP3    H133708   1.220   2.125  17.118 -0.4180 -1.6162 -0.2165
 3171TIP3    H233709   1.184   2.210  16.998  0.4977  0.7096  1.0896
 3172TIP3   OH233710   1.665   0.446  18.874  0.3289  0.8003 -0.8840
 3172TIP3    H133711   1.672   0.385  18.801  0.9851 -0.9001  0.5341
 3172TIP3    H233712   1.572   0.467  18.879 -0.7887 -3.6461  1.2725
 3173TIP3   OH233713   4.421   2.671  18.006  0.1330 -0.6398  0.2500
 3173TIP3    H133714   4.482   2.616  18.055 -2.7723 -1.4283  3.3793
 3173TIP3    H233715   4.443   2.761  18.033  1.3750 -0.6819 -0.5523
 3174TIP3   OH233716   6.202   6.261  16.499 -0.7489 -0.5671  0.1882
 3174TIP3    H133717   6.140   6.247  16.427 -0.5829  0.9410 -0.2684
 3174TIP3    H233718   6.256   6.182  16.500 -0.0349 -0.1479 -2.0561
 3175TIP3   OH233719   2.045   4.000  18.965  0.5129 -0.1352 -0.0085
 3175TIP3    H133720   2.128   3.952  18.965  0.2777 -0.6001  1.3847
 3175TIP3    H233721   2.047   4.052  18.885  2.0918 -0.2389 -0.0675
 3176TIP3   OH233722   5.190   7.118  17.541  0.1006 -0.3381 -0.1175
 3176TIP3    H133723   5.099   7.144  17.556  0.5515  1.6549 -0.6046
 3176TIP3    H233724   5.204   7.131  17.448  0.7273 -1.2568 -0.1679
 3177TIP3   OH233725   5.918   3.616  17.660  0.0446 -0.3209 -0.5259
 3177TIP3    H133726   5.980   3.612  17.733  1.3668  2.1180 -1.3959
 3177TIP3    H233727   5.972   3.632  17.583 -1.4926 -0.5810 -1.7195
 3178TIP3   OH233728   2.986   2.438  16.599  0.3373  0.0297  0.3693
 3178TIP3    H133729   2.917   2.502  16.587  1.0057  0.6558 -0.2606
 3178TIP3    H233730   3.050   2.459  16.530  0.9523 -0.7846  0.6816
 3179TIP3   OH233731   6.730   2.717  16.989 -0.0054 -0.3598 -0.1029
 3179TIP3    H133732   6.668   2.702  16.918 -1.3343 -0.5636  1.0465
 3179TIP3    H233733   6.757   2.630  17.016 -0.6063 -0.3582  0.5454
 3180TIP3   OH233734   1.090   0.230  18.155  0.1257  0.5486 -0.1717
 3180TIP3    H133735   1.005   0.195  18.181  0.3361  0.5084  0.4837
 3180TIP3    H233736   1.080   0.325  18.163  0.5879  0.4854  1.3582
 3181TIP3   OH233737   1.820   4.791  17.340 -0.3246  0.4618 -0.1505
 3181TIP3    H133738   1.838   4.824  17.428 -0.2757  0.3325 -0.1131
 3181TIP3    H233739   1.895   4.735  17.320 -0.7524 -0.1999  0.0637
 3182TIP3   OH233740   3.115   1.332  17.994  0.1464  0.1519  0.1563
 3182TIP3    H133741   3.112   1.416  17.948  2.0113 -0.2055 -0.7092
 3182TIP3    H233742   3.206   1.323  18.022 -0.2567 -1.1201  1.1351
 3183TIP3   OH233743   6.900   5.529  16.872  0.0419  0.1752  0.1939
 3183TIP3    H133744   6.858   5.450  16.837  2.2927 -0.5043 -1.2390
 3183TIP3    H233745   6.949   5.564  16.797 -0.6114  2.7665  0.9044
 3184TIP3   OH233746   3.298   1.647  16.729  0.6020 -0.0960  0.1447
 3184TIP3    H133747   3.260   1.721  16.777  1.0430  0.2896 -0.0970
 3184TIP3    H233748   3.386   1.638  16.765  0.0183 -1.5441  1.3327
 3185TIP3   OH233749   4.973   2.539  18.931 -0.4372 -0.1852 -0.8932
 3185TIP3    H133750   4.931   2.536  18.845 -0.4518  1.1558 -0.9546
 3185TIP3    H233751   4.960   2.629  18.961  0.1312 -0.4589  0.2334
 3186TIP3   OH233752   4.078   0.955  16.952  0.1514 -0.2619  0.5696
 3186TIP3    H133753   4.167   0.930  16.976  1.0784  2.0540 -0.1827
 3186TIP3    H233754   4.077   0.952  16.856  0.2626  2.1351  0.4391
 3187TIP3   OH233755   6.383   2.236  17.637  0.4432 -0.1958 -0.8434
 3187TIP3    H133756   6.319   2.279  17.580 -0.9990  0.4758  1.1505
 3187TIP3    H233757   6.416   2.306  17.693  1.8511 -0.8219 -0.8455
 3188TIP3   OH233758   2.069   1.086  16.903  0.4193  0.7198 -0.0775
 3188TIP3    H133759   2.017   1.114  16.828  0.5933  1.1357 -0.0452
 3188TIP3    H233760   2.007   1.087  16.976  0.0777 -0.3633 -0.3363
 3189TIP3   OH233761   4.419   4.381  18.199 -0.1540 -0.0387  0.0853
 3189TIP3    H133762   4.476   4.393  18.276  0.2501 -0.1138 -0.1987
 3189TIP3    H233763   4.410   4.469  18.163 -0.4310  0.0133  0.2766
 3190TIP3   OH233764   0.970   5.031  17.867 -0.0431 -0.5153  0.3499
 3190TIP3    H133765   0.937   5.120  17.883 -0.4152 -0.6552  0.3704
 3190TIP3    H233766   0.946   4.983  17.946 -1.0124 -0.9656 -0.2007
 3191TIP3   OH233767   1.611   6.185  16.557  0.2298  0.0859  0.5209
 3191TIP3    H133768   1.643   6.101  16.524  0.0371 -0.4087  1.5467
 3191TIP3    H233769   1.582   6.166  16.646 -1.3381  0.8725  0.2246
 3192TIP3   OH233770   4.742   1.485  17.716  0.0844  0.2756 -0.7887
 3192TIP3    H133771   4.799   1.478  17.793 -1.4364  1.3186  0.4872
 3192TIP3    H233772   4.672   1.422  17.732 -0.9855  1.4714 -0.6012
 3193TIP3   OH233773   3.013   3.417  18.605  0.1536  0.6762  0.7212
 3193TIP3    H133774   2.980   3.328  18.599  0.2154  0.6999 -0.2254
 3193TIP3    H233775   3.097   3.415  18.559  0.0943  1.2412  0.5719
 3194TIP3   OH233776   4.019   6.649  17.571  0.0617  0.5677 -0.2290
 3194TIP3    H133777   4.031   6.577  17.508 -2.6049  1.8169 -2.3493
 3194TIP3    H233778   4.023   6.606  17.657 -1.0140 -2.0777 -1.3856
 3195TIP3   OH233779   4.139   0.597  16.859  0.2150  0.3430  0.1574
 3195TIP3    H133780   4.057   0.591  16.907 -0.1912 -3.2270 -0.7461
 3195TIP3    H233781   4.207   0.588  16.926  0.0085  3.2306  0.8966
 3196TIP3   OH233782   0.048   2.840  16.978 -0.0175 -0.0194 -0.1891
 3196TIP3    H133783  -0.012   2.869  17.047 -1.7491  0.1590 -1.7011
 3196TIP3    H233784   0.093   2.920  16.951 -0.6656  0.2513 -0.4921
 3197TIP3   OH233785   3.054   1.173  16.275  0.4240  0.2109  0.0637
 3197TIP3    H133786   3.000   1.229  16.330  0.9341  0.5927  0.1883
 3197TIP3    H233787   3.125   1.230  16.246  0.9800 -0.3833  0.2319
 3198TIP3   OH233788   4.189   6.218  17.901  0.1790  0.3347 -0.0251
 3198TIP3    H133789   4.120   6.218  17.833 -0.7360  0.2509  0.8782
 3198TIP3    H233790   4.246   6.146  17.876 -1.9559 -1.8472  1.0253
 3199TIP3   OH233791   1.499   0.751  18.854  0.0275 -0.1439 -0.1813
 3199TIP3    H133792   1.434   0.822  18.852  1.4445  1.1880 -0.8286
 3199TIP3    H233793   1.559   0.772  18.782  0.7064 -1.8056 -0.1364
 3200TIP3   OH233794   5.807   3.335  18.808 -0.0234 -0.8143 -0.3955
 3200TIP3    H133795   5.812   3.404  18.743  0.4968  0.7751  1.2448
 3200TIP3    H233796   5.865   3.267  18.775  2.2039  0.9976 -0.4398
 3201TIP3   OH233797   4.573   4.739  18.328  0.0621 -0.1107  0.0905
 3201TIP3    H133798   4.549   4.695  18.246  0.7373 -3.0438  1.3659
 3201TIP3    H233799   4.665   4.763  18.317 -0.0945  0.3084 -0.3281
 3202TIP3   OH233800   0.130   0.647  17.088  0.1538  0.3037 -0.3964
 3202TIP3    H133801   0.120   0.552  17.082 -2.0795  0.3893  0.6840
 3202TIP3    H233802   0.043   0.678  17.115  1.1659  2.5356  0.5388
 3203TIP3   OH233803   4.766   1.673  18.460  0.5725  0.5815  0.1970
 3203TIP3    H133804   4.829   1.705  18.395 -0.0026 -0.8785 -1.1399
 3203TIP3    H233805   4.817   1.616  18.517  0.5140 -0.6217 -0.9004
 3204TIP3   OH233806   0.230   2.334  17.358 -0.1361  0.1242  0.7583
 3204TIP3    H133807   0.256   2.295  17.275 -0.9871  1.5173 -0.2057
 3204TIP3    H233808   0.253   2.269  17.424  1.8628 -0.4453 -0.4202
 3205TIP3   OH233809   0.914   3.898  17.925 -0.5981 -0.9617 -0.4321
 3205TIP3    H133810   0.984   3.962  17.911 -0.4872 -0.5268  1.7299
 3205TIP3    H233811   0.843   3.927  17.867 -0.6066  1.2568  0.5894
 3206TIP3   OH233812   0.131   0.013  17.811  0.1317 -0.2693  0.3868
 3206TIP3    H133813   0.172   0.018  17.897  0.2139  1.1701  0.2897
 3206TIP3    H233814   0.084  -0.071  17.811 -0.7615  0.1893  2.2298
 3207TIP3   OH233815   0.958   4.411  18.469 -0.2830  0.3036  0.0541
 3207TIP3    H133816   0.966   4.343  18.402  0.7244  1.1494 -0.7309
 3207TIP3    H233817   0.949   4.363  18.551  1.5846 -0.8339 -0.3303
 3208TIP3   OH233818   2.028   7.179  16.253  0.5811  0.1779  0.0599
 3208TIP3    H133819   2.092   7.162  16.184  2.1111  2.1439  0.8781
 3208TIP3    H233820   1.970   7.103  16.252  1.4107 -0.5002 -2.4051
 3209TIP3   OH233821   7.125   1.251  17.986  0.6532  0.0253  0.2081
 3209TIP3    H133822   7.058   1.293  17.932  1.0774  1.4656  0.7534
 3209TIP3    H233823   7.152   1.174  17.936  0.3720  0.8107 -1.1873
 3210TIP3   OH233824   0.132   5.590  18.763  0.8167 -0.8917  0.1002
 3210TIP3    H133825   0.076   5.526  18.718 -3.0542 -0.1297  3.3131
 3210TIP3    H233826   0.164   5.544  18.841  0.5730  0.1444  0.8264
 3211TIP3   OH233827   6.935   3.019  18.014  0.3575 -0.1142  0.0884
 3211TIP3    H133828   6.873   3.000  17.943 -0.4921 -1.6847  1.1780
 3211TIP3    H233829   6.977   3.100  17.988 -0.0482 -0.5494 -2.1210
 3212TIP3   OH233830   0.535   1.249  18.832  0.0937  0.2042 -0.1609
 3212TIP3    H133831   0.483   1.255  18.752 -1.8858 -1.6233  0.9035
 3212TIP3    H233832   0.615   1.204  18.806 -0.5356 -0.3955 -1.1012
 3213TIP3   OH233833   4.797   6.422  18.055  0.4353 -0.1360  0.1189
 3213TIP3    H133834   4.828   6.513  18.063  3.2412 -1.0150  0.3122
 3213TIP3    H233835   4.784   6.394  18.145 -0.0727 -0.0477  0.0749
 3214TIP3   OH233836   3.507   5.781  16.160 -0.0294 -0.0964  0.0550
 3214TIP3    H133837   3.555   5.704  16.130 -0.1657 -0.8665  1.7026
 3214TIP3    H233838   3.423   5.776  16.114  1.2864  1.1687 -2.7170
 3215TIP3   OH233839   1.288   2.516  18.128  0.2047  0.1564 -0.1510
 3215TIP3    H133840   1.213   2.465  18.098  1.4669 -0.3263 -2.7875
 3215TIP3    H233841   1.277   2.522  18.223 -2.6836 -0.6016 -0.3429
 3216TIP3   OH233842   6.116   6.375  18.456  0.3309 -0.0395  0.3813
 3216TIP3    H133843   6.123   6.437  18.384  0.6166  0.6870  1.0148
 3216TIP3    H233844   6.135   6.427  18.534 -0.8155 -0.6055  1.0698
 3217TIP3   OH233845   3.800   4.087  17.761 -0.8794 -0.3018  0.6487
 3217TIP3    H133846   3.800   4.167  17.814 -0.2483  0.0774  0.0778
 3217TIP3    H233847   3.884   4.087  17.716 -1.7967 -0.0901 -1.1547
 3218TIP3   OH233848   6.032   2.709  18.836 -0.1929  0.0467  0.2645
 3218TIP3    H133849   6.044   2.618  18.807  0.4193  0.5172 -1.0621
 3218TIP3    H233850   6.036   2.705  18.932  0.1094 -1.2847  0.2124
 3219TIP3   OH233851   5.091   0.243  18.621  0.8655 -0.0694 -0.3145
 3219TIP3    H133852   5.078   0.338  18.621  1.5122  0.0237 -0.5731
 3219TIP3    H233853   5.083   0.218  18.529 -1.4955 -0.6001 -0.0476
 3220TIP3   OH233854   7.366   5.188  17.737  0.3346 -0.6807 -0.9790
 3220TIP3    H133855   7.353   5.276  17.770 -0.7183 -0.9087 -0.7558
 3220TIP3    H233856   7.327   5.189  17.650  1.7197 -0.5099 -1.6236
 3221TIP3   OH233857   0.996   6.129  16.270 -0.2403 -0.5999  0.1164
 3221TIP3    H133858   1.028   6.104  16.183 -0.7444  2.4857 -1.0686
 3221TIP3    H233859   1.057   6.196  16.299 -0.4407 -1.1506  1.9367
 3222TIP3   OH233860   1.699   4.736  18.758 -0.6439  0.2871  0.4548
 3222TIP3    H133861   1.678   4.751  18.666  0.3619  2.3620  0.5188
 3222TIP3    H233862   1.643   4.797  18.806 -1.2212 -0.8364  1.2485
 3223TIP3   OH233863   1.984   2.957  17.710 -1.1598  0.0299 -0.5591
 3223TIP3    H133864   1.984   2.897  17.785 -2.0896 -1.2963 -1.5884
 3223TIP3    H233865   2.031   2.910  17.641  1.5715  2.0475 -0.2873
 3224TIP3   OH233866   0.557   0.224  16.213 -0.3325 -0.2028 -0.0448
 3224TIP3    H133867   0.493   0.283  16.253 -0.1378  0.7812 -1.1596
 3224TIP3    H233868   0.509   0.181  16.142  0.0023 -0.1055 -0.3320
 3225TIP3   OH233869   2.328   1.284  18.199  0.9393  0.4845 -0.1575
 3225TIP3    H133870   2.249   1.266  18.249  0.0668  0.1071 -1.5975
 3225TIP3    H233871   2.391   1.218  18.228 -0.7638 -2.2323 -2.1659
 3226TIP3   OH233872   4.620   2.698  18.912 -0.2252  0.2169  0.5264
 3226TIP3    H133873   4.548   2.755  18.939 -0.1770 -0.3265  1.9079
 3226TIP3    H233874   4.698   2.738  18.951 -0.3728 -1.5192  2.7999
 3227TIP3   OH233875   0.063   1.163  16.572  0.0968  0.1503 -0.1909
 3227TIP3    H133876   0.116   1.154  16.492 -0.6083 -1.5374 -0.5242
 3227TIP3    H233877  -0.027   1.170  16.540 -0.1195  0.2267  0.4254
 3228TIP3   OH233878   4.141   1.993  17.863  0.5881  1.0639  0.0189
 3228TIP3    H133879   4.126   1.960  17.951  0.0595  0.3031 -0.3512
 3228TIP3    H233880   4.158   1.915  17.810  0.7083  1.4941 -0.5946
 3229TIP3   OH233881   1.513   1.321  16.827  0.0325  0.3526  0.3802
 3229TIP3    H133882   1.423   1.327  16.857  0.5163  1.4818  1.7107
 3229TIP3    H233883   1.546   1.411  16.828  1.4918 -0.1463  1.0371
 3230TIP3   OH233884   7.317   0.166  17.970  0.1311 -0.1689  0.4962
 3230TIP3    H133885   7.290   0.087  17.924 -0.5999  0.7579 -0.7304
 3230TIP3    H233886   7.261   0.169  18.047 -0.7439 -0.2030 -0.1183
 3231TIP3   OH233887   7.157   5.830  17.295  0.0922  0.3147 -0.3200
 3231TIP3    H133888   7.238   5.846  17.343 -0.0056  1.1184 -0.4062
 3231TIP3    H233889   7.088   5.838  17.361  0.1398 -1.4081 -0.0337
 3232TIP3   OH233890   1.320   2.104  17.243 -0.2203  0.0734 -0.2801
 3232TIP3    H133891   1.393   2.157  17.209 -0.0065  0.2533  0.4383
 3232TIP3    H233892   1.362   2.039  17.299 -0.7003  1.0906  1.3170
 3233TIP3   OH233893   4.238   5.394  19.061 -0.3695  0.3292 -0.1456
 3233TIP3    H133894   4.245   5.299  19.057  1.1848  0.3654  0.9445
 3233TIP3    H233895   4.249   5.422  18.970 -1.0824 -0.5224 -0.5137
 3234TIP3   OH233896   6.021   6.845  17.166 -0.3485  0.0330  0.1466
 3234TIP3    H133897   6.040   6.922  17.112  1.0313 -0.8218 -0.6361
 3234TIP3    H233898   5.931   6.821  17.140  0.0269  0.0526 -1.2881
 3235TIP3   OH233899   6.488   1.156  17.859 -0.9099 -0.7784  0.3083
 3235TIP3    H133900   6.468   1.170  17.767 -0.8836 -2.4913  0.0079
 3235TIP3    H233901   6.456   1.067  17.878  0.4208 -1.0416  1.5369
 3236TIP3   OH233902   7.216   3.211  18.296 -0.4022 -0.0974 -0.3930
 3236TIP3    H133903   7.237   3.303  18.311 -0.0737 -0.5921  2.8815
 3236TIP3    H233904   7.291   3.163  18.330 -1.0750 -1.6223 -0.9546
 3237TIP3   OH233905   5.190   4.256  18.537 -0.0348 -0.5589  0.0630
 3237TIP3    H133906   5.190   4.238  18.631  1.8825  1.0885  0.4549
 3237TIP3    H233907   5.279   4.287  18.519 -0.7645  0.4790 -2.0384
 3238TIP3   OH233908   5.042   6.405  18.681 -0.0993  0.1816 -0.4278
 3238TIP3    H133909   5.095   6.467  18.631  0.4229 -0.5606 -0.8222
 3238TIP3    H233910   5.098   6.379  18.754 -0.7693  1.0760  0.4394
 3239TIP3   OH233911   2.967   1.549  17.015  0.0530 -0.0228 -0.4243
 3239TIP3    H133912   3.049   1.530  16.970  1.3972  0.7882  1.5267
 3239TIP3    H233913   2.982   1.519  17.105 -2.2750 -1.0050 -0.2822
 3240TIP3   OH233914   6.398   1.002  16.840 -0.2141  0.2308  0.3451
 3240TIP3    H133915   6.373   1.093  16.830 -1.3830 -0.1058  0.1283
 3240TIP3    H233916   6.338   0.953  16.784  2.5656 -0.4200 -2.3274
 3241TIP3   OH233917   0.466   1.276  16.966 -0.5607 -0.8233 -0.0111
 3241TIP3    H133918   0.376   1.249  16.950 -1.1971  0.3387  1.4143
 3241TIP3    H233919   0.505   1.203  17.013 -1.1797 -0.7771  0.5922
 3242TIP3   OH233920   1.263   1.456  16.771 -0.0932  0.4940 -0.8740
 3242TIP3    H133921   1.190   1.435  16.713 -1.4869  1.5298  0.4122
 3242TIP3    H233922   1.249   1.402  16.848 -1.4076  2.9704  0.7386
 3243TIP3   OH233923   7.053   2.333  18.433 -0.5147 -0.5566  0.2672
 3243TIP3    H133924   7.009   2.417  18.422  0.5808 -0.0900 -0.7737
 3243TIP3    H233925   7.074   2.328  18.526  0.5724  0.9384  0.1336
 3244TIP3   OH233926   6.924   4.993  16.739 -0.0017  0.1537  0.2694
 3244TIP3    H133927   6.911   5.000  16.834  0.7825  0.9639  0.3375
 3244TIP3    H233928   6.848   5.035  16.700 -0.0595  0.3107  0.5541
 3245TIP3   OH233929   4.328   2.112  18.712 -0.0859  0.0190 -0.6685
 3245TIP3    H133930   4.310   2.032  18.663  1.2511  0.2150 -1.5191
 3245TIP3    H233931   4.393   2.085  18.778 -0.0204  0.2897 -0.6231
 3246TIP3   OH233932   6.334   0.385  18.149  0.4183  0.6611  0.5806
 3246TIP3    H133933   6.342   0.441  18.226  1.0568 -0.4400  1.3201
 3246TIP3    H233934   6.305   0.445  18.080 -0.1764  1.6603  1.6577
 3247TIP3   OH233935   1.675   3.959  17.382 -0.4040 -0.3596  0.2711
 3247TIP3    H133936   1.696   3.997  17.296  0.3439  0.6163  0.8596
 3247TIP3    H233937   1.682   4.033  17.443 -0.0179 -1.2184  1.2971
 3248TIP3   OH233938   2.593   2.468  17.527  0.5005 -0.3092  0.2235
 3248TIP3    H133939   2.628   2.405  17.590 -0.9658 -1.3142  0.0924
 3248TIP3    H233940   2.530   2.519  17.578  1.2637  0.6903  0.1900
 3249TIP3   OH233941   2.068   0.013  16.118 -0.4141 -0.1000 -0.2896
 3249TIP3    H133942   2.033   0.019  16.206 -1.4347  0.4426 -0.7149
 3249TIP3    H233943   2.085  -0.080  16.105 -2.6179 -0.5401 -0.3855
 3250TIP3   OH233944   0.847   1.453  18.560  0.5466  0.2638  0.0396
 3250TIP3    H133945   0.856   1.542  18.597  1.7838  0.3858 -0.5073
 3250TIP3    H233946   0.808   1.467  18.474 -2.5139 -0.0357  1.2519
 3251TIP3   OH233947   2.598   1.766  16.919 -0.1391 -0.2911 -0.0184
 3251TIP3    H133948   2.635   1.771  16.831 -1.4819  0.4216 -0.5669
 3251TIP3    H233949   2.547   1.685  16.919 -1.8175  0.7175 -0.6107
 3252TIP3   OH233950   1.110   4.073  18.653 -0.0819 -0.2543  0.1065
 3252TIP3    H133951   1.146   4.159  18.631  1.0530 -0.8170 -0.3193
 3252TIP3    H233952   1.052   4.052  18.579  0.9586 -0.5805 -0.6464
 3253TIP3   OH233953   5.800   7.019  16.802 -0.7209  0.0018  0.1697
 3253TIP3    H133954   5.767   6.959  16.868  0.8459  0.5879  1.5467
 3253TIP3    H233955   5.887   6.986  16.780  0.8819  2.5441  2.1513
 3254TIP3   OH233956   2.684   5.909  18.552  0.3022 -0.0074  0.1136
 3254TIP3    H133957   2.633   5.927  18.631  1.3147 -1.6196  1.1945
 3254TIP3    H233958   2.620   5.903  18.482 -1.1330 -2.6959  1.5297
 3255TIP3   OH233959   1.552   3.783  17.712  0.9441 -0.8184  0.3424
 3255TIP3    H133960   1.592   3.696  17.715  0.7458 -0.9154  0.2011
 3255TIP3    H233961   1.475   3.772  17.656  2.2477 -0.0023 -1.7110
 3256TIP3   OH233962   6.268   1.234  16.757  0.0638 -0.5153  0.6133
 3256TIP3    H133963   6.198   1.212  16.695  0.1974 -0.4412  0.4364
 3256TIP3    H233964   6.237   1.314  16.800 -0.5516 -1.1857  1.4640
 3257TIP3   OH233965   4.116   5.614  16.061 -0.1837  0.1950  0.7121
 3257TIP3    H133966   4.075   5.696  16.087 -0.9611  0.0205  0.0862
 3257TIP3    H233967   4.044   5.559  16.031  0.3770 -0.5531  0.6951
 3258TIP3   OH233968   3.378   3.733  19.108  0.0647 -0.2365  0.3192
 3258TIP3    H133969   3.318   3.808  19.104  0.2265 -0.0993  0.4856
 3258TIP3    H233970   3.354   3.687  19.188  0.9415  0.4618  1.0046
 3259TIP3   OH233971   1.107   2.609  18.795  0.2084 -0.7107 -0.6756
 3259TIP3    H133972   1.177   2.566  18.745  0.5362 -1.6138  0.5140
 3259TIP3    H233973   1.029   2.557  18.776 -0.3724  0.7374 -2.6019
 3260TIP3   OH233974   3.558   6.877  16.785 -0.0638 -0.2424  0.3076
 3260TIP3    H133975   3.502   6.941  16.742  2.2976  1.1947 -0.8575
 3260TIP3    H233976   3.572   6.913  16.873 -0.4554 -0.2760  0.3846
 3261TIP3   OH233977   1.265   4.056  18.124 -0.2203  0.3313 -0.0686
 3261TIP3    H133978   1.301   4.116  18.190  0.3625  0.5265 -0.5544
 3261TIP3    H233979   1.334   3.991  18.111  1.4989  2.5037 -3.3879
 3262TIP3   OH233980   1.114   6.041  17.604  0.6631  0.2451  0.2933
 3262TIP3    H133981   1.174   6.081  17.541 -0.2949  0.9308 -0.1981
 3262TIP3    H233982   1.157   5.959  17.628  1.0357 -0.0529 -1.2832
 3263TIP3   OH233983   6.439   3.950  16.930 -0.2787 -0.2487 -0.2021
 3263TIP3    H133984   6.515   3.915  16.884 -1.5507 -1.5733 -1.3907
 3263TIP3    H233985   6.402   3.875  16.976 -1.1997  0.2357 -0.1299
 3264TIP3   OH233986   3.817   1.582  18.403  0.0942 -0.2341  0.2032
 3264TIP3    H133987   3.746   1.519  18.414 -1.3817  1.2416 -0.4738
 3264TIP3    H233988   3.795   1.654  18.462  1.1848  0.1334  0.1822
 3265TIP3   OH233989   3.141   6.203  16.886 -0.3731 -0.5002  0.2785
 3265TIP3    H133990   3.164   6.267  16.953 -0.6801  0.0719 -0.1481
 3265TIP3    H233991   3.218   6.145  16.880  0.4805  0.6477 -0.2825
 3266TIP3   OH233992   5.355   3.926  17.816 -0.0767 -0.2591  0.3236
 3266TIP3    H133993   5.334   3.909  17.724  0.6478 -2.8099  0.5405
 3266TIP3    H233994   5.270   3.941  17.858 -0.3178  2.8107 -0.9720
 3267TIP3   OH233995   4.199   2.650  17.180  0.7523 -0.4116 -0.1666
 3267TIP3    H133996   4.238   2.659  17.094  0.4875  0.2643 -0.2291
 3267TIP3    H233997   4.232   2.567  17.214  1.8860 -0.0778 -0.3938
 3268TIP3   OH233998   7.371   2.130  18.276  0.0057  0.0531 -0.2217
 3268TIP3    H133999   7.312   2.082  18.333  1.4154 -0.1008  1.1655
 3268TIP3    H234000   7.379   2.217  18.316  0.9245 -0.0192 -0.2113
 3269TIP3   OH234001   4.098   3.449  18.345 -0.3214  0.0868 -0.2155
 3269TIP3    H134002   4.009   3.427  18.374 -1.4851  1.8318 -2.1859
 3269TIP3    H234003   4.132   3.505  18.415 -1.1830  0.2757  0.0734
 3270TIP3   OH234004   7.201   2.451  17.800  0.5859 -0.4179 -0.0092
 3270TIP3    H134005   7.203   2.512  17.874  0.1779  0.8826 -1.0214
 3270TIP3    H234006   7.292   2.445  17.772  0.4868  0.6927 -0.6331
 3271TIP3   OH234007   1.553   0.735  18.558 -0.0292  0.2897  0.0745
 3271TIP3    H134008   1.636   0.750  18.514  0.8075 -1.0250  1.1414
 3271TIP3    H234009   1.531   0.644  18.538 -0.1510 -0.0119  1.5041
 3272TIP3   OH234010   2.595   3.869  15.972  0.1390  0.1341 -0.1010
 3272TIP3    H134011   2.568   3.799  16.032  1.0566  0.8051  1.1132
 3272TIP3    H234012   2.530   3.938  15.985  0.9532  0.7190  0.9428
 3273TIP3   OH234013   2.443   4.359  16.309 -0.0696  0.0448  0.5251
 3273TIP3    H134014   2.501   4.299  16.356 -0.9180 -0.9838  0.2934
 3273TIP3    H234015   2.489   4.377  16.227 -0.3508 -1.3212  0.0345
 3274TIP3   OH234016   0.200   0.646  19.116 -0.6650  0.0560  0.8236
 3274TIP3    H134017   0.121   0.680  19.157 -1.3540  0.6890 -0.9602
 3274TIP3    H234018   0.176   0.558  19.085 -0.5151  0.0427  0.7430
 3275TIP3   OH234019   2.344   0.902  17.217  0.0456 -0.5230 -0.4956
 3275TIP3    H134020   2.334   0.993  17.187 -0.1323 -0.3030  0.1975
 3275TIP3    H234021   2.331   0.907  17.312  1.4949 -1.0580 -0.2469
 3276TIP3   OH234022   2.940   2.727  18.951  0.0343  0.0540  0.2626
 3276TIP3    H134023   2.936   2.810  18.999  1.6862  1.2089 -1.4145
 3276TIP3    H234024   3.022   2.686  18.981  0.2645  0.0328 -0.3732
 3277TIP3   OH234025   4.998   2.169  16.681  0.0727  0.0717  0.4253
 3277TIP3    H134026   5.036   2.084  16.703 -0.0878 -0.4201 -1.0580
 3277TIP3    H234027   5.069   2.216  16.636 -0.8072 -0.6431 -1.8644
 3278TIP3   OH234028   4.526   6.007  18.925  0.4140 -0.3321  0.3739
 3278TIP3    H134029   4.558   6.009  19.015  0.7563  1.4982  0.2436
 3278TIP3    H234030   4.437   5.972  18.932  0.6502 -0.7942  1.3228
 3279TIP3   OH234031   6.193   6.985  17.725  1.0265 -0.0701 -0.3046
 3279TIP3    H134032   6.160   6.929  17.656 -1.0357  2.9871 -1.9923
 3279TIP3    H234033   6.255   7.044  17.681  1.2266  0.6189  0.8495
 3280TIP3   OH234034   3.489   3.817  17.224  0.2196  0.0786 -0.0066
 3280TIP3    H134035   3.442   3.894  17.191  0.8524  0.1237 -0.8473
 3280TIP3    H234036   3.576   3.823  17.185 -0.1944 -1.8930 -1.4471
 3281TIP3   OH234037   3.247   5.228  18.190  0.3819 -0.3862  0.4270
 3281TIP3    H134038   3.185   5.300  18.199  0.2210 -0.6191  1.3566
 3281TIP3    H234039   3.249   5.208  18.097 -0.2826  0.1983  0.2854
 3282TIP3   OH234040   3.822   5.712  17.456 -0.8056 -0.0997  0.4072
 3282TIP3    H134041   3.859   5.768  17.387 -0.4180  0.3089  0.9335
 3282TIP3    H234042   3.884   5.641  17.465 -0.3495  0.3673  1.0057
 3283TIP3   OH234043   1.343   4.227  17.333 -0.7217  0.1535 -0.3535
 3283TIP3    H134044   1.385   4.219  17.247 -1.5065 -1.1466 -0.6341
 3283TIP3    H234045   1.416   4.234  17.395 -0.0194 -2.5366 -0.7807
 3284TIP3   OH234046   2.277   0.665  18.254 -0.4219 -0.0096  0.1494
 3284TIP3    H134047   2.298   0.736  18.194  1.0377 -1.9352 -1.7593
 3284TIP3    H234048   2.359   0.645  18.298 -0.4473 -1.4156 -0.3917
 3285TIP3   OH234049   7.135   5.343  18.807 -0.3055 -0.4109  0.3901
 3285TIP3    H134050   7.201   5.346  18.877  1.1018  0.1682 -0.9099
 3285TIP3    H234051   7.135   5.432  18.771 -0.1708 -0.9841 -1.0794
 3286TIP3   OH234052   4.051   3.392  17.260 -0.0701  0.2887  0.4914
 3286TIP3    H134053   4.051   3.451  17.335 -0.1739 -1.5021  2.0022
 3286TIP3    H234054   3.970   3.342  17.269  0.1119 -0.2388 -0.5868
 3287TIP3   OH234055   6.600   4.362  18.547  0.1196  0.0688 -0.3776
 3287TIP3    H134056   6.577   4.386  18.636 -2.6798 -2.9520 -0.1080
 3287TIP3    H234057   6.541   4.413  18.492  1.0455  1.0503 -0.5087
 3288TIP3   OH234058   0.554   4.699  18.955  0.0470 -0.0137 -0.2938
 3288TIP3    H134059   0.576   4.735  19.041  1.9243  0.6120 -0.9854
 3288TIP3    H234060   0.599   4.615  18.952 -2.2089 -1.3569  0.2990
 3289TIP3   OH234061   6.149   2.492  17.001 -0.2873  0.0271  0.3980
 3289TIP3    H134062   6.053   2.498  17.002 -0.2247  1.0641  0.9310
 3289TIP3    H234063   6.176   2.555  16.934  0.0148 -0.5088  0.0082
 3290TIP3   OH234064   3.250   0.848  16.560  0.0786  0.2668 -0.7532
 3290TIP3    H134065   3.267   0.762  16.522  0.7017 -0.4768  1.0806
 3290TIP3    H234066   3.191   0.891  16.498 -0.0113 -1.3637 -1.8483
 3291TIP3   OH234067   2.029   6.204  16.558 -0.4153  0.5084  0.1319
 3291TIP3    H134068   1.981   6.164  16.631  0.6323 -0.7535  0.1530
 3291TIP3    H234069   2.019   6.142  16.486  0.7157  0.4917 -0.0257
 3292TIP3   OH234070   2.513   5.861  18.358  0.7626  0.0645  0.6337
 3292TIP3    H134071   2.508   5.796  18.288  1.1493  0.8110 -0.1072
 3292TIP3    H234072   2.432   5.912  18.349  1.2193  0.7206  0.1557
 3293TIP3   OH234073   5.522   5.100  16.054 -0.1997 -0.4237 -0.0341
 3293TIP3    H134074   5.473   5.018  16.064  0.0940 -0.5649  0.2627
 3293TIP3    H234075   5.607   5.073  16.018 -0.1283 -0.2395 -0.0051
 3294TIP3   OH234076   1.092   0.093  16.836  0.1248  0.0744  0.0179
 3294TIP3    H134077   1.015   0.118  16.785 -1.1646 -1.2578  1.2098
 3294TIP3    H234078   1.077   0.001  16.859  2.7713 -0.6778 -0.8932
 3295TIP3   OH234079   5.954   3.829  16.655  0.8894 -0.2764 -0.1882
 3295TIP3    H134080   5.878   3.775  16.635  1.3586 -0.6758 -0.9589
 3295TIP3    H234081   5.934   3.915  16.618  1.2287 -0.6685 -1.3346
 3296TIP3   OH234082   4.462   4.637  18.071  0.7276 -0.4695 -0.0746
 3296TIP3    H134083   4.371   4.619  18.094  0.7048 -2.6570 -1.5218
 3296TIP3    H234084   4.456   4.675  17.983  1.1554  0.4435  0.2925
 3297TIP3   OH234085   7.085   1.524  18.206  0.2432 -0.6469 -0.4984
 3297TIP3    H134086   7.164   1.471  18.193 -0.0707 -0.9358 -1.3015
 3297TIP3    H234087   7.014   1.469  18.172 -0.0959  0.2584 -1.3038
 3298TIP3   OH234088   7.067   5.571  17.228 -0.0741 -0.0214  0.0312
 3298TIP3    H134089   7.143   5.549  17.175  0.1487  0.3025  0.2160
 3298TIP3    H234090   7.067   5.667  17.232  0.5957 -0.0691  1.6142
 3299TIP3   OH234091   6.983   0.236  18.720  0.5550  0.0825 -0.0338
 3299TIP3    H134092   6.999   0.143  18.708 -1.3518 -0.1698 -1.0430
 3299TIP3    H234093   6.906   0.240  18.777 -0.3216  0.9741 -1.2196
 3300TIP3   OH234094   1.852   4.383  18.262  0.0209 -0.1398 -0.1681
 3300TIP3    H134095   1.872   4.411  18.173  1.4241 -2.0402 -0.5232
 3300TIP3    H234096   1.897   4.446  18.318  0.3842  0.2099 -0.8432
 3301TIP3   OH234097   1.536   5.450  17.586  0.1117 -0.0831  0.3351
 3301TIP3    H134098   1.594   5.419  17.655  0.7388 -0.4626 -0.3446
 3301TIP3    H234099   1.510   5.371  17.539 -3.0563 -0.2679  2.1580
 3302TIP3   OH234100   0.551   2.086  16.416 -0.0434  0.4115  0.4211
 3302TIP3    H134101   0.555   2.001  16.372 -0.6026  0.3745  0.4434
 3302TIP3    H234102   0.643   2.111  16.427  0.1496  1.2717 -2.4224
 3303TIP3   OH234103   2.296   2.733  18.746 -0.2064  0.4683  0.5213
 3303TIP3    H134104   2.354   2.801  18.780  2.3518 -0.4844 -1.5380
 3303TIP3    H234105   2.237   2.779  18.686 -0.1357  1.1888  1.0024
 3304TIP3   OH234106   7.461   0.349  18.154 -0.0026  0.3648  0.3160
 3304TIP3    H134107   7.424   0.361  18.067  0.7412  2.1858  0.2092
 3304TIP3    H234108   7.443   0.431  18.199  2.2280  0.6063  0.8725
 3305TIP3   OH234109   6.317   6.291  18.074 -0.1038  0.0910 -0.6897
 3305TIP3    H134110   6.333   6.386  18.071 -1.8403  0.5704  1.8953
 3305TIP3    H234111   6.228   6.283  18.107 -0.4177 -2.4883 -1.9586
 3306TIP3   OH234112   6.566   2.055  17.908  0.3168  0.2847 -0.4470
 3306TIP3    H134113   6.494   2.091  17.958  0.4879  0.6624 -0.4679
 3306TIP3    H234114   6.526   2.017  17.830  0.0850 -0.0147 -0.1822
 3307TIP3   OH234115   4.192   3.959  16.936 -0.2673 -0.4689 -0.1043
 3307TIP3    H134116   4.129   3.907  16.987 -1.4206 -1.9738 -2.7942
 3307TIP3    H234117   4.258   3.895  16.908  0.0374  0.1801 -0.9055
 3308TIP3   OH234118   6.310   2.208  18.353  0.1876  0.2450  0.1839
 3308TIP3    H134119   6.394   2.213  18.308  0.7958  0.8174  1.3217
 3308TIP3    H234120   6.287   2.300  18.371 -0.4367  0.0702  0.3068
 3309TIP3   OH234121   2.190   2.689  17.909  0.4951 -0.0356 -0.1529
 3309TIP3    H134122   2.259   2.756  17.911  0.0872  0.4227 -1.0794
 3309TIP3    H234123   2.176   2.671  17.816 -0.0267 -0.7640  0.0589
 3310TIP3   OH234124   6.047   5.939  17.833 -0.2803  0.6494  0.1536
 3310TIP3    H134125   6.011   6.020  17.799 -1.8252 -0.3677 -0.7512
 3310TIP3    H234126   5.971   5.885  17.853  0.6658 -1.4042 -1.3558
 3311TIP3   OH234127   6.605   6.547  17.102  0.0371  0.6694 -0.0718
 3311TIP3    H134128   6.605   6.547  17.198  0.6267 -0.2240 -0.0598
 3311TIP3    H234129   6.575   6.634  17.078 -1.0778  0.5982  0.9256
 3312TIP3   OH234130   7.107   0.065  17.576  0.4098 -0.0059 -0.4310
 3312TIP3    H134131   7.029   0.040  17.527 -0.5326  1.0003  0.4958
 3312TIP3    H234132   7.099   0.020  17.660  0.8707  0.0533 -0.3490
 3313TIP3   OH234133   0.248   3.077  18.136  0.5027 -0.3064  0.2788
 3313TIP3    H134134   0.232   3.010  18.070  0.7756 -0.4006  0.3086
 3313TIP3    H234135   0.341   3.068  18.157  0.3087 -0.5898  1.0236
 3314TIP3   OH234136   0.987   6.521  18.529  0.0237 -0.5851  0.4778
 3314TIP3    H134137   1.068   6.474  18.546  0.1439 -0.7390 -0.4610
 3314TIP3    H234138   0.926   6.453  18.498 -0.9559 -0.7505  2.5990
 3315TIP3   OH234139   3.271   3.861  16.905 -0.5093  0.3189 -0.7763
 3315TIP3    H134140   3.326   3.833  16.979 -0.5482  2.3215  0.0539
 3315TIP3    H234141   3.318   3.935  16.866 -1.1764  0.1695 -1.9192
 3316TIP3   OH234142   5.691   5.716  17.626 -0.3818 -0.1460  0.1789
 3316TIP3    H134143   5.685   5.629  17.665  0.5501 -0.0846  0.4861
 3316TIP3    H234144   5.759   5.707  17.559 -0.6495  0.2183 -0.1464
 3317TIP3   OH234145   1.416   0.076  16.975 -0.8787 -0.0667  0.0732
 3317TIP3    H134146   1.371  -0.003  16.946 -2.0381  0.3456  0.6545
 3317TIP3    H234147   1.376   0.146  16.923  0.2862  0.1288 -0.5870
 3318TIP3   OH234148   3.604   5.773  18.641 -0.0534 -0.2529 -0.1716
 3318TIP3    H134149   3.694   5.756  18.612 -0.1123 -0.4251 -0.2538
 3318TIP3    H234150   3.575   5.690  18.679  0.9093  0.6023  2.7644
 3319TIP3   OH234151   0.863   1.191  16.780  0.5051 -0.4962 -0.2589
 3319TIP3    H134152   0.898   1.212  16.867 -1.2391 -0.0417  0.3764
 3319TIP3    H234153   0.857   1.096  16.779  1.0592 -0.5339 -0.0978
 3320TIP3   OH234154   1.289   0.816  18.554 -0.3522 -0.0922 -0.3197
 3320TIP3    H134155   1.383   0.806  18.534 -0.3892  0.2205 -0.6494
 3320TIP3    H234156   1.287   0.853  18.642 -0.1882 -1.8350  0.4746
 3321TIP3   OH234157   5.283   3.851  17.533 -0.0651  0.4119  0.5011
 3321TIP3    H134158   5.263   3.757  17.529 -0.9066  0.6335 -0.9205
 3321TIP3    H234159   5.352   3.863  17.468  0.8565  0.6070  1.4886
 3322TIP3   OH234160   4.969   5.192  16.751  0.6171 -0.4050  0.4095
 3322TIP3    H134161   5.007   5.104  16.743 -2.3065 -1.6455 -1.3157
 3322TIP3    H234162   4.891   5.190  16.696 -0.5879  2.7354  1.7510
 3323TIP3   OH234163   6.760   1.187  16.919  0.0098 -0.0417  0.0355
 3323TIP3    H134164   6.675   1.229  16.905 -0.5436 -1.5943 -1.6318
 3323TIP3    H234165   6.801   1.185  16.833  1.8876  0.8801  0.8393
 3324TIP3   OH234166   6.085   6.176  16.249 -0.2450  0.7616 -0.0803
 3324TIP3    H134167   6.085   6.094  16.298 -1.5283  0.8831  0.1548
 3324TIP3    H234168   6.162   6.170  16.192 -0.3695 -0.6473 -0.1323
 3325TIP3   OH234169   5.429   5.305  17.528 -0.2953  0.0777 -0.1857
 3325TIP3    H134170   5.368   5.234  17.510 -0.9821  0.1392  1.6022
 3325TIP3    H234171   5.462   5.287  17.617  1.5433  0.5901 -0.7167
 3326TIP3   OH234172   4.088   4.432  17.440  0.1432  0.0820 -0.2351
 3326TIP3    H134173   4.164   4.477  17.477 -0.9807  0.0841  2.2308
 3326TIP3    H234174   4.017   4.496  17.444 -0.9188 -1.1249  1.2010
 3327TIP3   OH234175   1.991   6.997  17.503 -0.2464 -0.3672 -0.3299
 3327TIP3    H134176   2.036   6.926  17.458 -0.5047 -0.1800 -0.8894
 3327TIP3    H234177   1.984   6.967  17.594 -0.1752 -0.9709 -0.5211
 3328TIP3   OH234178   0.715   5.802  16.990 -0.6474 -1.0170  0.5272
 3328TIP3    H134179   0.784   5.780  16.928  0.7325 -0.0744  1.6699
 3328TIP3    H234180   0.634   5.772  16.948  0.1947 -0.1940 -1.8312
 3329TIP3   OH234181   6.759   5.198  17.359 -0.3703  0.3436 -0.2577
 3329TIP3    H134182   6.828   5.141  17.326 -1.6836 -0.5416 -1.6527
 3329TIP3    H234183   6.697   5.205  17.286 -1.1406  2.1209  0.4972
 3330TIP3   OH234184   4.456   3.404  17.322  0.3833 -0.2033  0.2835
 3330TIP3    H134185   4.401   3.462  17.270 -0.0384 -1.0172 -0.2085
 3330TIP3    H234186   4.471   3.452  17.404 -1.4888 -0.1368  0.6479
 3331TIP3   OH234187   1.303   0.062  18.032  0.6503 -0.3065 -0.5638
 3331TIP3    H134188   1.255   0.144  18.045  1.5796  0.2044 -0.2971
 3331TIP3    H234189   1.306   0.051  17.937 -0.9402 -0.9275 -0.5759
 3332TIP3   OH234190   6.092   5.650  18.415 -0.0125  0.2850 -0.0405
 3332TIP3    H134191   6.061   5.740  18.401 -1.1085  0.0245  0.5821
 3332TIP3    H234192   6.151   5.657  18.491 -0.1888  0.4637  0.0821
 3333TIP3   OH234193   0.199   0.528  18.641  0.2990 -0.3076 -0.4363
 3333TIP3    H134194   0.144   0.574  18.705  0.3909  0.1522 -0.6808
 3333TIP3    H234195   0.211   0.592  18.570  4.8561  1.3990  1.5237
 3334TIP3   OH234196   4.844   4.081  17.062 -0.6332 -0.1245 -0.6523
 3334TIP3    H134197   4.912   4.017  17.084  1.0726  1.7771 -0.0727
 3334TIP3    H234198   4.885   4.166  17.079 -3.2762  1.1180 -0.0170
 3335TIP3   OH234199   6.045   4.628  18.586  0.2982  0.1240  0.4083
 3335TIP3    H134200   6.053   4.578  18.505  1.0781 -0.7698  1.0181
 3335TIP3    H234201   5.959   4.671  18.580 -0.7254 -1.8562  0.1931
 3336TIP3   OH234202   4.766   5.249  17.442 -0.4013 -0.3987 -0.6876
 3336TIP3    H134203   4.830   5.309  17.405  0.3542  2.0427  3.8811
 3336TIP3    H234204   4.682   5.291  17.426 -0.4204 -0.8717 -1.9815
 3337TIP3   OH234205   2.879   4.747  18.973 -0.2586  0.5748 -0.1346
 3337TIP3    H134206   2.951   4.775  19.030  0.1451 -2.2125  0.8822
 3337TIP3    H234207   2.913   4.672  18.926 -2.1059 -0.0750 -0.5380
 3338TIP3   OH234208   1.031   2.426  18.455  0.2017 -0.0585  0.4185
 3338TIP3    H134209   1.090   2.403  18.384  1.4304  0.7697  1.1328
 3338TIP3    H234210   0.971   2.490  18.418 -0.8093 -1.5023 -0.5373
 3339TIP3   OH234211   3.688   5.259  16.694 -0.1125  0.3143  0.1120
 3339TIP3    H134212   3.670   5.242  16.602 -2.1760  0.1165  0.5140
 3339TIP3    H234213   3.603   5.279  16.732  0.5757 -0.3898  2.1499
 3340TIP3   OH234214   2.269   1.068  16.370  0.4450  0.6641 -0.4909
 3340TIP3    H134215   2.194   1.021  16.407 -0.3300  1.7486 -0.6561
 3340TIP3    H234216   2.239   1.099  16.285  1.5009  0.0716 -1.1160
 3341TIP3   OH234217   4.989   4.250  17.356  0.3115  0.1379  0.8586
 3341TIP3    H134218   5.079   4.220  17.371  0.0765 -1.0166  0.1226
 3341TIP3    H234219   4.935   4.175  17.383 -0.3037 -0.1639 -1.0792
 3342TIP3   OH234220   3.669   0.997  17.754  0.3898  0.1145  0.0150
 3342TIP3    H134221   3.641   0.956  17.672  0.1210  2.0233 -0.9081
 3342TIP3    H234222   3.750   0.952  17.778 -0.2856 -1.4428 -0.5067
 3343TIP3   OH234223   7.472   5.490  17.639  0.7385 -0.2403 -0.5223
 3343TIP3    H134224   7.537   5.440  17.589 -0.3545 -1.2681 -0.9647
 3343TIP3    H234225   7.408   5.518  17.574 -0.3302 -1.0048  0.1657
 3344TIP3   OH234226   0.121   5.563  16.868  0.5761 -0.3749 -0.3177
 3344TIP3    H134227   0.168   5.618  16.806  1.6171  0.3249  1.0255
 3344TIP3    H234228   0.068   5.624  16.920  0.8832 -0.7395  0.4497
 3345TIP3   OH234229   0.708   4.600  17.581 -0.1603  0.1256 -0.1765
 3345TIP3    H134230   0.627   4.548  17.576 -0.4102  0.2959  1.5625
 3345TIP3    H234231   0.687   4.681  17.534 -1.0726  0.2424  0.4021
 3346TIP3   OH234232   1.930   4.903  17.039 -0.2933 -0.7457  0.0058
 3346TIP3    H134233   1.916   4.811  17.061 -1.1570 -0.7266 -0.4091
 3346TIP3    H234234   1.842   4.940  17.037  0.1317  1.0413  4.0257
 3347TIP3   OH234235   6.739   6.859  16.794 -0.1157 -0.4466  0.6307
 3347TIP3    H134236   6.778   6.804  16.862  1.1119 -1.6927 -0.9833
 3347TIP3    H234237   6.796   6.847  16.718 -1.8170  0.3147 -0.8447
 3348TIP3   OH234238   1.972   1.958  17.777 -0.0363  0.1723  0.2719
 3348TIP3    H134239   1.894   1.915  17.811 -0.0263  0.7147  0.9864
 3348TIP3    H234240   2.042   1.932  17.837  0.7669 -1.8630 -1.4072
 3349TIP3   OH234241   3.502   0.539  18.051 -0.0865  0.3578 -1.0046
 3349TIP3    H134242   3.451   0.619  18.042  0.6285  0.7082 -2.0723
 3349TIP3    H234243   3.573   0.562  18.110  0.3049  0.6132 -1.5674
 3350TIP3   OH234244   0.129   4.584  15.990 -0.1034 -0.1372 -0.3381
 3350TIP3    H134245   0.149   4.515  16.053  0.5225  0.2258 -0.1242
 3350TIP3    H234246   0.036   4.573  15.971 -0.2959 -0.2876  0.6102
 3351TIP3   OH234247   1.661   2.741  18.300 -0.4503 -0.3053 -0.2061
 3351TIP3    H134248   1.592   2.714  18.240  1.0188 -0.8834 -1.7556
 3351TIP3    H234249   1.675   2.666  18.357  0.6203 -1.2400 -1.6145
 3352TIP3   OH234250   0.940   5.185  17.078 -0.3047  0.1826  0.4376
 3352TIP3    H134251   0.990   5.110  17.111 -0.4543 -0.1001  0.0383
 3352TIP3    H234252   0.977   5.260  17.123 -0.5134 -0.1902  1.2536
 3353TIP3   OH234253   4.278   3.552  17.141 -0.0418  1.2122 -0.1438
 3353TIP3    H134254   4.198   3.504  17.164 -0.4198  1.7713 -0.2850
 3353TIP3    H234255   4.262   3.584  17.053  0.2912  1.4311 -0.1252
 3354TIP3   OH234256   4.613   5.890  17.756  0.3132 -0.3079  0.1542
 3354TIP3    H134257   4.671   5.828  17.712  0.4432 -1.0507  1.3188
 3354TIP3    H234258   4.652   5.902  17.843 -2.2570 -2.3930  1.7599
 3355TIP3   OH234259   5.326   1.591  16.163 -0.3786  0.2799 -0.0616
 3355TIP3    H134260   5.373   1.509  16.177 -1.2850 -0.0334  1.3059
 3355TIP3    H234261   5.384   1.658  16.197  0.0045  0.1313 -0.4060
 3356TIP3   OH234262   1.275   0.812  17.897 -0.5154 -0.5519  0.3367
 3356TIP3    H134263   1.288   0.866  17.975 -1.2270 -0.0627  0.1243
 3356TIP3    H234264   1.254   0.725  17.931 -2.5378  0.0598  0.7235
 3357TIP3   OH234265   1.352   6.122  16.392  0.0473 -0.2676  0.3593
 3357TIP3    H134266   1.341   6.090  16.302 -2.2695  0.7850  0.1980
 3357TIP3    H234267   1.376   6.045  16.443  2.1217 -0.7703 -1.2317
 3358TIP3   OH234268   3.403   1.717  17.073  0.0114 -0.6300 -0.3970
 3358TIP3    H134269   3.468   1.784  17.092  0.7047 -1.0421 -1.2684
 3358TIP3    H234270   3.319   1.758  17.094  0.4817  0.2130 -0.1300
 3359TIP3   OH234271   4.396   3.363  15.774 -0.0168  0.4931  0.1130
 3359TIP3    H134272   4.330   3.394  15.836 -0.6077  0.2575 -0.3877
 3359TIP3    H234273   4.441   3.443  15.745  0.2814  0.5996  0.8563
 3360TIP3   OH234274   2.468   6.205  17.721 -0.0814 -0.3000 -0.2475
 3360TIP3    H134275   2.540   6.255  17.760 -0.1285 -0.6997  0.3651
 3360TIP3    H234276   2.420   6.269  17.669 -1.0356  0.6960  1.7135
 3361TIP3   OH234277   1.763   3.131  17.642 -0.6108 -0.1829 -0.6115
 3361TIP3    H134278   1.745   3.136  17.549 -0.3197 -0.1260 -0.6646
 3361TIP3    H234279   1.843   3.079  17.649 -0.5906 -0.1250 -0.3999
 3362TIP3   OH234280   0.372   0.964  17.814  0.0284  0.0606  0.3864
 3362TIP3    H134281   0.379   0.898  17.745  1.3097  1.6480 -1.0581
 3362TIP3    H234282   0.304   0.929  17.872  0.1289 -2.1564 -0.7053
 3363TIP3   OH234283   5.253   0.523  17.211  0.6404 -0.2099 -0.1736
 3363TIP3    H134284   5.196   0.452  17.180 -2.0373  1.0865  1.4116
 3363TIP3    H234285   5.210   0.603  17.179  0.0493  0.9408  3.1401
 3364TIP3   OH234286   2.169   0.991  18.216  0.3036 -0.7801  0.5634
 3364TIP3    H134287   2.188   0.978  18.309  0.7634 -1.7418  0.3468
 3364TIP3    H234288   2.248   0.961  18.171 -0.0521 -0.6583 -0.1539
 3365TIP3   OH234289   0.077   1.831  16.147  0.5839 -0.1528  0.2781
 3365TIP3    H134290   0.064   1.827  16.242 -0.7579 -0.4425  0.0955
 3365TIP3    H234291   0.102   1.742  16.123  3.7120  0.4810  0.6850
 3366TIP3   OH234292   2.599   0.505  17.657 -0.4270  0.2374 -0.0554
 3366TIP3    H134293   2.610   0.474  17.567 -1.7333 -0.4176 -0.0159
 3366TIP3    H234294   2.665   0.573  17.667  1.5572 -1.4946 -0.6232
 3367TIP3   OH234295   3.783   2.013  17.740 -0.5103 -0.7002  0.4380
 3367TIP3    H134296   3.799   1.961  17.661 -0.9587 -0.0185 -0.1137
 3367TIP3    H234297   3.688   2.017  17.748 -0.5200  0.8298 -0.0930
 3368TIP3   OH234298   1.755   0.579  17.256 -0.2677 -0.2495 -0.0376
 3368TIP3    H134299   1.662   0.555  17.257 -0.3646  0.0028 -1.6738
 3368TIP3    H234300   1.786   0.556  17.344 -2.0803  0.5168  0.8537
 3369TIP3   OH234301   3.752   0.930  18.150  0.0664  0.1120  0.5593
 3369TIP3    H134302   3.705   0.992  18.094 -0.5692  0.9783  2.0077
 3369TIP3    H234303   3.683   0.876  18.189  0.4027  0.2304  1.3321
 3370TIP3   OH234304   3.222   3.892  18.459  0.0354  0.0428 -0.2512
 3370TIP3    H134305   3.242   3.820  18.519  0.6340  1.4722  1.3359
 3370TIP3    H234306   3.295   3.892  18.397  0.2968 -0.3682  0.0497
 3371TIP3   OH234307   7.449   2.457  19.085 -0.1679  0.1393 -0.4211
 3371TIP3    H134308   7.484   2.411  19.009  0.8287 -1.0990  0.7349
 3371TIP3    H234309   7.365   2.415  19.102 -0.4575  0.5126 -0.9043
 3372TIP3   OH234310   3.608   4.028  16.803  0.4232 -0.5342  0.0980
 3372TIP3    H134311   3.588   4.121  16.802 -0.5536 -0.7270 -1.2125
 3372TIP3    H234312   3.664   4.016  16.880  1.8983  1.3884 -0.6015
 3373TIP3   OH234313   1.224   6.256  17.191  0.0493 -0.1337 -0.5287
 3373TIP3    H134314   1.245   6.345  17.163 -0.9845  0.1190 -0.5315
 3373TIP3    H234315   1.236   6.203  17.113 -1.6910  0.3886 -1.2105
 3374TIP3   OH234316   5.243   0.092  18.301 -0.1332 -0.4330  0.3930
 3374TIP3    H134317   5.181   0.125  18.236  0.3211 -1.6985 -0.7499
 3374TIP3    H234318   5.326   0.133  18.277 -0.2310  0.1864  1.0703
 3375TIP3   OH234319   2.037   5.418  16.356  0.7935 -0.5514 -0.0587
 3375TIP3    H134320   2.101   5.466  16.304  0.1619  0.1522 -0.2001
 3375TIP3    H234321   1.961   5.476  16.360 -0.7137 -2.2555 -1.8228
 3376TIP3   OH234322   6.708   4.195  18.945  1.2200 -0.3193 -0.3240
 3376TIP3    H134323   6.783   4.249  18.969  1.7661 -1.0090 -0.4342
 3376TIP3    H234324   6.723   4.112  18.991  0.3625 -0.3613 -0.0956
 3377TIP3   OH234325   6.696   6.841  17.969 -0.5098 -0.4981  0.3575
 3377TIP3    H134326   6.685   6.747  17.955 -0.5939 -0.6552  1.3938
 3377TIP3    H234327   6.641   6.882  17.902 -3.2909 -1.2129  2.0215
 3378TIP3   OH234328   4.546   4.078  18.316  0.0634 -0.0539 -0.0083
 3378TIP3    H134329   4.493   4.070  18.236 -0.1066 -0.0208  0.1032
 3378TIP3    H234330   4.629   4.116  18.285  1.8078 -4.1164 -0.9619
 3379TIP3   OH234331   6.435   6.126  16.844  0.1709 -0.5422  0.5964
 3379TIP3    H134332   6.455   6.173  16.925 -0.1118 -1.0841  0.9917
 3379TIP3    H234333   6.520   6.093  16.813  0.6885  1.8132 -0.7354
 3380TIP3   OH234334   0.429   4.028  18.531  0.1104 -0.0239 -0.0607
 3380TIP3    H134335   0.499   3.963  18.533 -0.0633 -0.2072  2.6274
 3380TIP3    H234336   0.367   3.995  18.465  2.1949 -0.1265 -2.1065
 3381TIP3   OH234337   3.133   1.751  18.941 -0.9488 -0.8842  0.0812
 3381TIP3    H134338   3.163   1.841  18.933 -1.8037 -0.5956 -0.0166
 3381TIP3    H234339   3.212   1.700  18.958 -0.4757 -0.1044  0.2493
 3382TIP3   OH234340   5.543   5.069  18.549 -0.2351 -0.2795 -0.3860
 3382TIP3    H134341   5.508   5.068  18.460  0.1344 -0.9005 -0.5344
 3382TIP3    H234342   5.550   5.161  18.572 -0.2369 -0.1181 -1.0382
 3383TIP3   OH234343   5.023   5.072  17.305  0.4335 -0.1178  0.3440
 3383TIP3    H134344   4.960   5.037  17.369  0.8587  1.2810  1.5883
 3383TIP3    H234345   5.003   5.165  17.301  1.5677  0.1117 -0.2592
 3384TIP3   OH234346   1.926   5.834  17.661  0.2142 -0.4587 -0.1003
 3384TIP3    H134347   1.870   5.898  17.617 -0.1826 -1.1808 -0.6614
 3384TIP3    H234348   2.008   5.882  17.678  1.2593 -0.7099 -3.5786
 3385TIP3   OH234349   0.704   4.408  18.230  0.0140  0.0957 -0.1673
 3385TIP3    H134350   0.695   4.419  18.324 -0.8395  0.0879 -0.2445
 3385TIP3    H234351   0.716   4.314  18.218 -1.2974 -0.0961 -0.1588
 3386TIP3   OH234352   3.403   5.316  17.341  0.2706 -0.2479 -0.3832
 3386TIP3    H134353   3.311   5.288  17.338  0.4089 -1.1659  1.9327
 3386TIP3    H234354   3.421   5.348  17.252 -1.8018 -1.5601 -1.3595
 3387TIP3   OH234355   0.031   5.172  17.160  0.5673  0.2952  0.0818
 3387TIP3    H134356   0.115   5.163  17.205  0.4454 -1.4050  0.0157
 3387TIP3    H234357   0.042   5.250  17.106  1.2840  1.4589  1.8043
 3388TIP3   OH234358   5.497   2.685  16.274 -0.4748 -0.4464  0.1842
 3388TIP3    H134359   5.410   2.679  16.313 -0.4428 -2.4470  0.0394
 3388TIP3    H234360   5.513   2.598  16.236  1.3243  0.0654 -0.3393
 3389TIP3   OH234361   1.413   3.729  16.270 -0.3518  0.3822  0.0236
 3389TIP3    H134362   1.471   3.802  16.292  0.0270  0.7669 -1.9969
 3389TIP3    H234363   1.331   3.771  16.243 -0.9715 -0.0783  1.1462
 3390TIP3   OH234364   3.311   3.457  16.104 -0.2126 -0.1063  0.1811
 3390TIP3    H134365   3.333   3.365  16.093 -1.2299 -0.1316 -2.2675
 3390TIP3    H234366   3.247   3.458  16.175 -1.8674 -1.6463 -1.1642
 3391TIP3   OH234367   5.874   2.186  17.008  0.1819  0.3167  0.3908
 3391TIP3    H134368   5.788   2.164  16.973 -0.4328  0.6485  1.6353
 3391TIP3    H234369   5.926   2.211  16.931 -0.5789 -0.6565 -0.4671
 3392TIP3   OH234370   7.381   5.752  18.661 -0.1934 -0.0038 -0.0112
 3392TIP3    H134371   7.371   5.738  18.567 -1.1400  0.2690  0.0341
 3392TIP3    H234372   7.441   5.683  18.689  0.7069  0.3798 -0.9318
 3393TIP3   OH234373   3.560   5.912  19.013  0.3845  0.1619 -0.4067
 3393TIP3    H134374   3.513   5.963  19.079  0.7511 -1.1462  0.9379
 3393TIP3    H234375   3.531   5.948  18.929  1.5617  3.3967  0.4257
 3394TIP3   OH234376   4.756   6.302  18.299  0.2923  0.3050  0.4654
 3394TIP3    H134377   4.693   6.355  18.347  0.6612  0.2841  0.9782
 3394TIP3    H234378   4.811   6.262  18.366  0.0478 -0.7021  0.0952
 3395TIP3   OH234379   5.052   4.936  16.725 -0.5254 -0.3216  0.3517
 3395TIP3    H134380   5.134   4.887  16.720 -0.1543  0.2788  0.4662
 3395TIP3    H234381   4.984   4.869  16.729  0.0490 -0.8579  1.7583
 3396TIP3   OH234382   2.904   0.451  18.413 -0.0013  0.0556  0.0272
 3396TIP3    H134383   2.890   0.527  18.470 -0.4531  0.0555 -0.0756
 3396TIP3    H234384   2.816   0.416  18.398  0.0233  0.4895 -1.2701
 3397TIP3   OH234385   6.528   7.208  16.886  0.1001 -0.3120  0.5034
 3397TIP3    H134386   6.483   7.238  16.965  0.3833 -1.6896  1.2095
 3397TIP3    H234387   6.621   7.222  16.904  0.0969  1.2563 -0.4230
 3398TIP3   OH234388   4.804   5.739  17.633 -0.2578 -0.1848 -0.4171
 3398TIP3    H134389   4.781   5.784  17.552 -1.5177  0.5340  0.3150
 3398TIP3    H234390   4.778   5.648  17.618 -2.6562  0.3755 -0.0337
 3399TIP3   OH234391   3.208   6.418  17.403 -0.5718  0.1397 -0.3080
 3399TIP3    H134392   3.226   6.467  17.482 -1.1055 -0.5288  0.2348
 3399TIP3    H234393   3.288   6.367  17.388  0.1267  1.4127 -1.0811
 3400TIP3   OH234394   1.917   4.943  17.608 -0.5836  0.1786  0.5425
 3400TIP3    H134395   1.883   5.032  17.608  0.1217  0.4570  1.0128
 3400TIP3    H234396   2.006   4.950  17.572 -0.0700 -0.1294  1.6743
 3401TIP3   OH234397   0.982   4.008  17.356  0.2901 -0.0898 -0.0934
 3401TIP3    H134398   0.985   4.087  17.301 -0.1439  0.0781  0.1224
 3401TIP3    H234399   1.073   3.982  17.365  0.6832  1.7092  1.7356
 3402TIP3   OH234400   2.264   5.297  17.342  0.0698 -0.1479  0.8744
 3402TIP3    H134401   2.211   5.222  17.312  0.0771  0.4671 -0.7677
 3402TIP3    H234402   2.249   5.300  17.437 -0.7929 -1.5580  0.8160
 3403TIP3   OH234403   5.004   6.201  17.220  0.3988 -0.5975  0.0387
 3403TIP3    H134404   5.081   6.153  17.249  0.9352  0.3310  0.1830
 3403TIP3    H234405   5.008   6.196  17.124  1.4353  0.6280 -0.0142
 3404TIP3   OH234406   7.412   2.289  17.293 -0.1931 -0.0161  0.6039
 3404TIP3    H134407   7.489   2.275  17.238  0.2709 -0.6336  1.3872
 3404TIP3    H234408   7.446   2.333  17.372 -0.5392 -0.7741  1.1926
 3405TIP3   OH234409   6.225   4.980  16.470 -0.0632 -0.3599 -0.0012
 3405TIP3    H134410   6.260   4.931  16.395 -1.9229  0.2234 -1.3017
 3405TIP3    H234411   6.223   5.071  16.441  0.5291  0.0992  1.3097
 3406TIP3   OH234412   7.455   1.653  17.946 -0.4732 -0.0694 -0.4754
 3406TIP3    H134413   7.390   1.593  17.908 -0.3687 -1.5993  1.5641
 3406TIP3    H234414   7.408   1.696  18.017  0.5370 -0.7530  0.6386
 3407TIP3   OH234415   3.196   5.502  18.394  0.5114 -0.1742  0.1080
 3407TIP3    H134416   3.115   5.543  18.364  0.3049 -0.1463  0.6967
 3407TIP3    H234417   3.255   5.575  18.410  0.0246 -0.0606  1.5090
 3408TIP3   OH234418   3.196   6.702  18.538 -0.0772 -0.4772 -0.1526
 3408TIP3    H134419   3.248   6.743  18.607  1.2447 -1.5290 -0.4855
 3408TIP3    H234420   3.105   6.723  18.561  0.4517  1.2438  0.5498
 3409TIP3   OH234421   1.887   3.184  18.418 -0.2934  0.0760  0.1571
 3409TIP3    H134422   1.880   3.146  18.330  0.4495  0.3614 -0.0364
 3409TIP3    H234423   1.978   3.165  18.444 -0.5590 -0.1608  0.9369
 3410TIP3   OH234424   4.795   6.864  17.725 -0.3588  0.1584 -0.2226
 3410TIP3    H134425   4.857   6.861  17.798  1.6417  2.0348 -1.7454
 3410TIP3    H234426   4.784   6.772  17.699 -0.4338 -0.4601  1.8068
 3411TIP3   OH234427   6.861   3.852  18.631 -0.0640 -0.1356  0.8264
 3411TIP3    H134428   6.862   3.844  18.726  0.2491 -1.7483  0.7285
 3411TIP3    H234429   6.854   3.945  18.614  2.1126  0.4156  2.4348
 3412TIP3   OH234430   6.059   7.403  17.388  0.4047 -0.1116 -0.1263
 3412TIP3    H134431   6.051   7.438  17.476  0.0905 -0.3427 -0.0610
 3412TIP3    H234432   6.138   7.443  17.353  0.8584 -0.4757  0.4707
 3413TIP3   OH234433   2.275   6.656  17.188  0.2801  0.0151  0.1334
 3413TIP3    H134434   2.291   6.562  17.177  2.1559  0.3549 -0.4073
 3413TIP3    H234435   2.354   6.698  17.154 -1.0542  1.8626 -0.8821
 3414TIP3   OH234436   4.632   3.545  18.572 -0.1809 -0.5856  0.2317
 3414TIP3    H134437   4.711   3.501  18.603  0.8941  1.7109  0.9830
 3414TIP3    H234438   4.602   3.597  18.647 -0.9287  0.5445 -0.8098
 3415TIP3   OH234439   6.177   2.966  17.632  0.0998 -0.4407  0.9172
 3415TIP3    H134440   6.100   2.977  17.689 -2.9119 -0.4196 -2.7910
 3415TIP3    H234441   6.201   3.056  17.607  0.2112 -0.5349  0.6820
 3416TIP3   OH234442   3.809   7.434  17.012  0.3115 -0.2420  0.1107
 3416TIP3    H134443   3.883   7.391  16.968  0.4829  1.0009 -0.8655
 3416TIP3    H234444   3.827   7.421  17.105  1.6398 -0.2065 -0.1118
 3417TIP3   OH234445   3.128   5.220  16.526  0.1120 -0.0356 -0.0614
 3417TIP3    H134446   3.138   5.168  16.446 -3.1267  0.1946 -0.7883
 3417TIP3    H234447   3.069   5.168  16.581  0.5721  0.7833  1.2446
 3418TIP3   OH234448   0.804   3.513  19.072  0.2776  0.1539  0.2411
 3418TIP3    H134449   0.714   3.518  19.105  0.6193  2.9004  1.0139
 3418TIP3    H234450   0.851   3.463  19.139 -0.3750 -0.0302  0.5717
 3419TIP3   OH234451   6.230   3.599  17.703  0.0996 -0.4295  0.5183
 3419TIP3    H134452   6.315   3.581  17.742  0.7066  0.1796 -0.5074
 3419TIP3    H234453   6.184   3.652  17.768  1.8149  2.2337 -0.3134
 3420TIP3   OH234454   5.188   1.767  18.630 -0.3403 -0.0934  0.3110
 3420TIP3    H134455   5.126   1.725  18.689 -1.3402  0.0423 -0.5969
 3420TIP3    H234456   5.263   1.789  18.685 -0.4458 -1.6235  1.1324
 3421TIP3   OH234457   3.979   2.197  17.102 -0.6151  0.2450 -0.1532
 3421TIP3    H134458   4.056   2.209  17.046  1.0621 -2.2181  1.4153
 3421TIP3    H234459   3.999   2.244  17.182 -0.1208 -1.3950  0.7328
 3422TIP3   OH234460   0.843   1.165  19.004  0.3372  0.2199  0.2736
 3422TIP3    H134461   0.914   1.225  19.028  0.4566  0.1733  0.0270
 3422TIP3    H234462   0.818   1.192  18.916  0.2685  0.0231  0.2343
 3423TIP3   OH234463   7.398   1.576  18.953  0.0612 -0.6548  0.2047
 3423TIP3    H134464   7.477   1.614  18.992 -0.4349  0.9606 -0.2725
 3423TIP3    H234465   7.382   1.496  19.004  0.7706  0.1428  1.7536
 3424TIP3   OH234466   1.625   1.366  17.370 -0.1149  0.6378 -0.5260
 3424TIP3    H134467   1.634   1.453  17.411  0.4005 -0.6671  2.3655
 3424TIP3    H234468   1.538   1.336  17.395 -0.0227  0.0234 -0.9248
 3425TIP3   OH234469   5.388   3.936  18.391  0.1350  0.7650 -0.0811
 3425TIP3    H134470   5.472   3.902  18.423  0.6242  1.4982 -0.5422
 3425TIP3    H234471   5.404   3.955  18.298 -0.9145 -0.2379 -0.4802
 3426TIP3   OH234472   5.184   7.115  18.500 -0.4157  0.1857 -0.1046
 3426TIP3    H134473   5.230   7.139  18.580  1.2024 -0.3827 -0.8276
 3426TIP3    H234474   5.205   7.185  18.438 -0.6447 -0.0042 -0.3999
 3427TIP3   OH234475   4.235   6.076  17.593  0.4853  0.3104  0.3275
 3427TIP3    H134476   4.298   6.121  17.537  1.3783 -0.0612  1.0056
 3427TIP3    H234477   4.287   6.041  17.665 -0.4506 -0.2960  0.7377
 3428TIP3   OH234478   3.049   4.032  17.986 -0.1790  0.0833 -0.2361
 3428TIP3    H134479   2.982   4.017  18.053 -0.4996  0.6712 -0.4291
 3428TIP3    H234480   3.112   3.961  18.001  0.2079  0.6829  1.2582
 3429TIP3   OH234481   5.053   6.575  17.992  0.7919  0.0932  0.2150
 3429TIP3    H134482   4.973   6.601  17.945  0.3840  0.0846  0.8906
 3429TIP3    H234483   5.123   6.587  17.928  0.2644  0.2291 -0.3482
 3430TIP3   OH234484   0.644   7.280  16.511  0.7565  0.2212 -0.0301
 3430TIP3    H134485   0.562   7.275  16.463  0.1988  0.2499  0.8870
 3430TIP3    H234486   0.677   7.369  16.494 -0.7872  1.2105  1.7281
 3431TIP3   OH234487   5.651   0.865  17.159  0.3567 -0.4109 -0.3010
 3431TIP3    H134488   5.594   0.833  17.229  2.8129 -2.9548  0.7199
 3431TIP3    H234489   5.707   0.931  17.202  0.9621 -0.9892 -0.1879
 3432TIP3   OH234490   7.267   7.246  18.495 -0.1978  0.4450 -0.2582
 3432TIP3    H134491   7.245   7.317  18.434  1.1929  0.9349 -0.2463
 3432TIP3    H234492   7.343   7.204  18.454 -0.0046  0.0065  0.5358
 3433TIP3   OH234493   2.993   4.854  17.968  0.1427  0.2492 -0.0449
 3433TIP3    H134494   2.946   4.902  17.899 -1.6216 -1.0826  0.1754
 3433TIP3    H234495   2.925   4.812  18.019  1.5609 -1.7675  0.3213
 3434TIP3   OH234496   0.580   0.978  19.058 -0.4301 -0.1799 -0.2533
 3434TIP3    H134497   0.655   1.037  19.069 -0.7421 -0.1431  2.2220
 3434TIP3    H234498   0.505   1.037  19.050 -0.5861 -0.2101  0.8753
 3435TIP3   OH234499   1.987   4.065  17.894  0.1397  0.1879 -0.5420
 3435TIP3    H134500   1.938   3.994  17.853 -0.6232 -0.3751  1.2444
 3435TIP3    H234501   1.935   4.143  17.877  0.3068  0.1221 -1.4015
 3436TIP3   OH234502   1.391   1.073  17.738 -0.0019  0.2218  0.2118
 3436TIP3    H134503   1.356   1.056  17.826  0.1398 -0.1370  0.2000
 3436TIP3    H234504   1.314   1.090  17.684 -0.1142  0.0917  0.3297
 3437TIP3   OH234505   6.695   7.144  17.131  0.1331  0.3494  0.2821
 3437TIP3    H134506   6.775   7.098  17.105 -0.3593  0.2019 -1.0251
 3437TIP3    H234507   6.625   7.081  17.117 -0.3448  0.8818  0.2369
 3438TIP3   OH234508   7.142   5.069  18.799  0.3943 -0.1243  0.1186
 3438TIP3    H134509   7.158   5.159  18.773 -0.3311 -0.2710 -0.8893
 3438TIP3    H234510   7.056   5.070  18.840  0.1490 -0.4336 -0.3707
 3439TIP3   OH234511   4.483   1.691  18.161 -0.1524  0.5012  0.3379
 3439TIP3    H134512   4.489   1.690  18.257 -1.8999 -0.2157  0.4647
 3439TIP3    H234513   4.558   1.745  18.134  1.4234 -0.7209  1.9928
 3440TIP3   OH234514   4.090   5.168  17.336  0.3488 -0.6791  0.0372
 3440TIP3    H134515   4.133   5.211  17.262  0.5492  0.2814  0.6798
 3440TIP3    H234516   4.115   5.221  17.412  0.0090 -1.5367  0.7712
 3441TIP3   OH234517   2.558   0.508  18.344 -0.3945 -0.3303 -0.1087
 3441TIP3    H134518   2.581   0.415  18.347 -0.3400 -0.4058 -1.8372
 3441TIP3    H234519   2.530   0.529  18.433 -3.2347 -2.7582 -0.2833
 3442TIP3   OH234520   3.866   1.836  17.949 -0.2197  0.3498 -0.0554
 3442TIP3    H134521   3.847   1.912  17.894  0.2023 -0.9482 -2.1390
 3442TIP3    H234522   3.934   1.788  17.901 -1.2385 -1.9068  0.5992
 3443TIP3   OH234523   3.372   2.304  16.937  0.0836  0.1346 -0.2236
 3443TIP3    H134524   3.438   2.295  17.005 -2.4753 -1.5811  2.2617
 3443TIP3    H234525   3.347   2.396  16.940  1.3663  0.5053 -0.2774
 3444TIP3   OH234526   2.340   1.195  18.937 -0.2321  0.0354  0.6093
 3444TIP3    H134527   2.317   1.286  18.922  2.1675  0.6184 -0.0230
 3444TIP3    H234528   2.371   1.192  19.027 -0.0644 -0.0911  0.5485
 3445TIP3   OH234529   3.098   2.201  17.229  0.4021  0.1854 -0.6306
 3445TIP3    H134530   3.039   2.126  17.231 -0.3487  0.7417 -1.1972
 3445TIP3    H234531   3.111   2.218  17.136  2.8041 -0.9353 -0.5686
 3446TIP3   OH234532   0.398   6.534  17.276 -0.0122 -0.1960 -0.1935
 3446TIP3    H134533   0.367   6.449  17.308  0.9709 -0.2990  0.5010
 3446TIP3    H234534   0.373   6.596  17.344  2.0619 -0.4123  0.8247
 3447TIP3   OH234535   5.942   5.052  17.898  0.5041  0.7087 -0.1358
 3447TIP3    H134536   6.015   5.019  17.951  0.0934  0.7721  0.4902
 3447TIP3    H234537   5.869   4.993  17.918  0.8097 -0.3921 -2.0594
 3448TIP3   OH234538   6.769   4.048  17.768  0.1053  0.6401  0.0449
 3448TIP3    H134539   6.814   4.092  17.841  0.2747  2.2687 -0.9762
 3448TIP3    H234540   6.684   4.024  17.804  1.0085 -0.6884  1.4305
 3449TIP3   OH234541   1.447   1.721  17.217 -0.2747  0.5839 -0.0356
 3449TIP3    H134542   1.381   1.778  17.257 -1.0536  1.0355 -1.8504
 3449TIP3    H234543   1.398   1.667  17.155  0.6193 -1.3306  0.8391
 3450TIP3   OH234544   6.875   1.874  17.387  0.0243  0.1839 -0.1223
 3450TIP3    H134545   6.840   1.947  17.336 -0.4305  0.2314  0.2562
 3450TIP3    H234546   6.804   1.849  17.446  0.7833  0.6169  1.0229
 3451TIP3   OH234547   6.033   6.604  17.817 -0.2707  0.0347  0.3278
 3451TIP3    H134548   5.987   6.528  17.852  0.7449 -0.3362  0.8963
 3451TIP3    H234549   6.029   6.592  17.722 -2.4913  0.7292  0.2719
 3452TIP3   OH234550   1.707   5.131  16.787  0.0097 -0.2741 -0.1564
 3452TIP3    H134551   1.713   5.158  16.879 -1.8361 -0.5735  0.0783
 3452TIP3    H234552   1.702   5.036  16.790  2.6571 -0.5321 -0.7885
 3453TIP3   OH234553   3.482   0.269  16.328  0.1904 -0.3473 -0.0830
 3453TIP3    H134554   3.462   0.317  16.248  0.3450  0.6169  0.4345
 3453TIP3    H234555   3.397   0.238  16.359  0.1128 -0.5896 -0.5414
 3454TIP3   OH234556   2.895   0.287  17.288 -0.0918 -0.2165 -0.1793
 3454TIP3    H134557   2.971   0.326  17.245  0.1055 -1.1890 -0.7516
 3454TIP3    H234558   2.862   0.224  17.224 -0.7395 -0.5628  0.4876
 3455TIP3   OH234559   1.223   1.820  17.359 -0.1005 -0.3034 -0.3025
 3455TIP3    H134560   1.234   1.880  17.433 -0.1909 -0.3542 -0.2474
 3455TIP3    H234561   1.129   1.823  17.340 -0.1600 -0.6617 -0.0948
 3456TIP3   OH234562   5.293   7.101  16.088  0.1768 -0.3138 -0.0227
 3456TIP3    H134563   5.268   7.017  16.127  0.5235  0.6408  2.4604
 3456TIP3    H234564   5.299   7.083  15.994  0.6932 -3.1677  0.4512
 3457TIP3   OH234565   2.297   4.954  18.465 -0.0217  0.0811 -0.4020
 3457TIP3    H134566   2.208   4.925  18.446 -1.1712  0.9930  2.8931
 3457TIP3    H234567   2.334   4.885  18.518  0.3650  0.7497  0.2164
 3458TIP3   OH234568   3.310   6.792  18.793 -0.1079  0.1101 -0.1628
 3458TIP3    H134569   3.292   6.886  18.799 -0.2843  0.0693 -0.0586
 3458TIP3    H234570   3.406   6.786  18.798 -0.1220  0.2490  0.3436
 3459TIP3   OH234571   1.101   0.832  17.671  0.5893 -0.5552  0.1459
 3459TIP3    H134572   1.160   0.823  17.746 -0.6882  3.8441  2.0020
 3459TIP3    H234573   1.038   0.761  17.681  0.6615 -0.3247  3.1203
 3460TIP3   OH234574   5.299   6.284  16.393 -0.3578 -0.3873  0.5165
 3460TIP3    H134575   5.388   6.299  16.425 -0.3686  1.1906 -0.1282
 3460TIP3    H234576   5.311   6.228  16.316  0.1187  0.1329  0.2008
 3461TIP3   OH234577   3.944   2.003  16.603  0.2523  0.9029 -0.4079
 3461TIP3    H134578   3.882   2.013  16.676  0.5657 -0.8519  0.1440
 3461TIP3    H234579   3.889   2.009  16.525 -0.6687 -0.7479  0.0791
 3462TIP3   OH234580   5.169   3.505  18.124 -0.0848 -0.2843 -0.6524
 3462TIP3    H134581   5.181   3.581  18.180  1.2028 -0.4914 -0.6195
 3462TIP3    H234582   5.097   3.529  18.066 -0.3594  0.5596  0.0189
 3463TIP3   OH234583   4.804   4.193  18.295  0.1254 -0.3394 -0.3573
 3463TIP3    H134584   4.887   4.220  18.256 -0.8814  0.9262 -1.7753
 3463TIP3    H234585   4.796   4.247  18.374 -0.3984  1.3725 -1.5009
 3464TIP3   OH234586   3.469   2.611  19.006  0.3152  0.1884  0.1579
 3464TIP3    H134587   3.521   2.689  19.027  1.7521 -1.1256  1.7296
 3464TIP3    H234588   3.529   2.554  18.959 -0.1910 -0.6652  0.5321
 3465TIP3   OH234589   6.804   0.775  16.965 -0.0644  0.0889 -0.4399
 3465TIP3    H134590   6.739   0.727  16.913 -0.3006  1.6984 -1.7394
 3465TIP3    H234591   6.764   0.861  16.978  1.2533  0.6735 -0.1201
 3466TIP3   OH234592   6.634   1.844  17.504 -0.3093 -0.9306 -0.3407
 3466TIP3    H134593   6.579   1.816  17.431 -1.9849 -0.3310  0.6520
 3466TIP3    H234594   6.587   1.918  17.542  3.0301  2.2544 -1.7744
 3467TIP3   OH234595   1.626   2.390  16.900 -0.3225  0.1057 -0.4552
 3467TIP3    H134596   1.711   2.382  16.944 -1.4816  1.7626  2.4116
 3467TIP3    H234597   1.624   2.480  16.868 -1.8682  1.0115  1.8775
 3468TIP3   OH234598   0.358   5.098  16.545 -0.0331 -0.3024 -0.0255
 3468TIP3    H134599   0.397   5.010  16.550 -0.1457 -0.3519 -0.0124
 3468TIP3    H234600   0.383   5.130  16.459 -0.9161 -0.7910 -0.4818
 3469TIP3   OH234601   0.176   5.353  17.481 -0.2351 -0.6654  0.3060
 3469TIP3    H134602   0.193   5.365  17.387  0.1822 -0.8029  0.3589
 3469TIP3    H234603   0.231   5.419  17.523  0.7352 -1.5835  0.5210
 3470TIP3   OH234604   2.931   1.606  16.646 -0.2060 -0.3134 -0.0430
 3470TIP3    H134605   2.926   1.553  16.566  2.2304  1.1463 -1.2441
 3470TIP3    H234606   2.994   1.559  16.701  1.1461  0.7135 -0.6720
 3471TIP3   OH234607   4.712   0.769  16.342  0.6436 -0.2707  0.2621
 3471TIP3    H134608   4.746   0.681  16.358  0.2261 -0.3233  0.9038
 3471TIP3    H234609   4.617   0.759  16.348  0.5149 -0.0455 -1.0901
 3472TIP3   OH234610   3.582   1.925  17.138  1.0590 -0.6842  0.0970
 3472TIP3    H134611   3.588   2.014  17.102  1.4229 -0.6371  0.2719
 3472TIP3    H234612   3.508   1.930  17.199  1.6092 -0.2726  0.7397
 3473TIP3   OH234613   2.262   5.520  17.171 -0.6088 -0.3242  0.1722
 3473TIP3    H134614   2.345   5.529  17.124  0.1648 -0.3690  1.4809
 3473TIP3    H234615   2.277   5.449  17.234 -1.6887 -0.4335  0.3250
 3474TIP3   OH234616   4.443   5.551  17.955  0.1157 -0.4840  0.1767
 3474TIP3    H134617   4.416   5.520  17.869  1.9567 -0.0086 -0.6248
 3474TIP3    H234618   4.502   5.483  17.988  0.1523 -0.2321  0.6449
 3475TIP3   OH234619   6.737   2.384  17.203  0.0030 -0.5285  0.4355
 3475TIP3    H134620   6.804   2.439  17.243  0.0899  0.0819 -0.5040
 3475TIP3    H234621   6.763   2.379  17.111 -0.7862 -0.9826  0.2301
 3476TIP3   OH234622   6.363   1.218  19.072  0.1861 -0.0827 -0.4111
 3476TIP3    H134623   6.274   1.240  19.046 -0.4998 -0.9472  1.0825
 3476TIP3    H234624   6.402   1.301  19.099 -0.4317  0.1777 -0.3161
 3477TIP3   OH234625   0.685   1.077  18.527  0.2585  0.4000  0.1886
 3477TIP3    H134626   0.620   1.017  18.490  0.1728 -0.8510  2.1758
 3477TIP3    H234627   0.759   1.072  18.466  0.0893 -1.4615  0.0612
 3478TIP3   OH234628   4.857   4.692  18.297 -0.3226 -0.1757  0.0099
 3478TIP3    H134629   4.915   4.661  18.228  0.9380  2.0843 -0.0588
 3478TIP3    H234630   4.916   4.720  18.367 -1.4936 -0.6541  1.2153
 3479TIP3   OH234631   2.178   1.389  16.997  0.5819  0.3154  0.0716
 3479TIP3    H134632   2.117   1.457  16.970  1.3179  1.2975  0.8148
 3479TIP3    H234633   2.158   1.315  16.940  0.8400  1.6715 -1.9016
 3480TIP3   OH234634   0.064   2.563  16.964  0.4505 -0.6195  0.4675
 3480TIP3    H134635   0.062   2.658  16.964  0.8603 -0.5945  1.7128
 3480TIP3    H234636  -0.026   2.537  16.943  0.9241 -0.0269 -2.8812
 3481TIP3   OH234637   0.259   5.949  16.959 -0.5406 -0.1036 -0.4725
 3481TIP3    H134638   0.250   5.993  16.874  0.2060 -0.0988 -0.5602
 3481TIP3    H234639   0.354   5.941  16.971 -0.6465 -0.1334  0.3501
 3482TIP3   OH234640   3.970   6.397  18.734  0.1930 -0.4432  0.3360
 3482TIP3    H134641   4.029   6.463  18.773 -1.1145  0.4173  0.9241
 3482TIP3    H234642   3.958   6.426  18.644 -1.0283  0.6433  0.8130
 3483TIP3   OH234643   6.398   7.264  16.285 -0.1224  0.2047 -0.2105
 3483TIP3    H134644   6.323   7.283  16.341 -0.1588 -3.0431  1.0598
 3483TIP3    H234645   6.410   7.343  16.234 -2.6832  1.8479  1.4812
 3484TIP3   OH234646   1.789   2.243  17.490  0.0293  1.0143 -0.4623
 3484TIP3    H134647   1.733   2.241  17.568 -1.6602  1.8228 -1.5857
 3484TIP3    H234648   1.878   2.235  17.524 -0.7029  0.4549  1.4658
 3485TIP3   OH234649   1.768   5.872  17.048  0.2954 -0.5637 -0.0093
 3485TIP3    H134650   1.814   5.833  16.974 -0.7031 -0.6200 -0.6170
 3485TIP3    H234651   1.737   5.797  17.100 -0.0702 -0.5464 -0.2019
 3486TIP3   OH234652   5.810   1.648  17.655  0.2296  0.3394 -0.4987
 3486TIP3    H134653   5.739   1.603  17.609  0.8115 -0.4615 -0.6311
 3486TIP3    H234654   5.857   1.578  17.700  0.9156  0.8673 -0.3912
 3487TIP3   OH234655   3.460   5.822  17.396 -0.1280 -0.1657 -0.4027
 3487TIP3    H134656   3.536   5.822  17.338 -0.7691 -0.8114 -1.2572
 3487TIP3    H234657   3.391   5.781  17.345 -1.3787  1.4146 -0.0455
 3488TIP3   OH234658   4.632   6.128  16.959  0.3192 -0.1201 -0.2943
 3488TIP3    H134659   4.596   6.044  16.931  0.7181  0.1731 -1.7507
 3488TIP3    H234660   4.684   6.158  16.885 -0.0684  1.5712  0.0828
 3489TIP3   OH234661   4.577   5.704  17.422 -0.7422 -0.2631 -0.6784
 3489TIP3    H134662   4.517   5.709  17.497 -0.2450 -1.3021 -0.1926
 3489TIP3    H234663   4.569   5.789  17.379 -0.9227  0.4130  0.6519
 3490TIP3   OH234664   6.223   6.156  17.289 -0.5847  0.3796  0.0419
 3490TIP3    H134665   6.134   6.123  17.295 -1.1774  1.8165 -0.3437
 3490TIP3    H234666   6.226   6.230  17.349  0.0265  0.9972 -0.7178
 3491TIP3   OH234667   4.379   3.311  16.923  0.4064  0.1124 -0.0136
 3491TIP3    H134668   4.393   3.294  17.015 -0.0880 -2.8862 -0.4167
 3491TIP3    H234669   4.301   3.367  16.921  0.0247 -0.3310  1.3571
 3492TIP3   OH234670   5.559   4.781  18.574  0.5040 -0.3374  0.0690
 3492TIP3    H134671   5.475   4.741  18.594  0.7954 -0.5600  0.8888
 3492TIP3    H234672   5.538   4.869  18.545 -0.0399 -0.5666 -0.2611
 3493TIP3   OH234673   0.471   6.536  17.804  0.2264 -0.1418  0.0161
 3493TIP3    H134674   0.461   6.491  17.888  1.4322  0.6449  0.6129
 3493TIP3    H234675   0.490   6.466  17.741  1.9038 -0.5142  0.8909
 3494TIP3   OH234676   3.734   3.797  16.716  0.5131 -0.0908  0.4950
 3494TIP3    H134677   3.825   3.820  16.698  1.0330 -1.1308  1.5895
 3494TIP3    H234678   3.692   3.880  16.739  1.2412  0.3614  0.2335
 3495TIP3   OH234679   3.152   2.603  18.254  0.0753  0.2726 -0.1339
 3495TIP3    H134680   3.086   2.573  18.191  0.6034  2.3063 -1.7717
 3495TIP3    H234681   3.102   2.650  18.321 -0.2899  0.4115 -0.4966
 3496TIP3   OH234682   5.595   3.233  18.997  0.1212 -0.1560 -0.1350
 3496TIP3    H134683   5.609   3.141  19.021 -1.5551 -1.1985 -2.6979
 3496TIP3    H234684   5.675   3.258  18.951 -0.2693 -1.1157 -1.3883
 3497TIP3   OH234685   2.262   6.327  18.025  0.6990 -0.3106 -0.3276
 3497TIP3    H134686   2.327   6.263  18.054 -0.0106 -0.6422  0.5757
 3497TIP3    H234687   2.178   6.289  18.050 -0.0453 -0.8356 -3.1752
 3498TIP3   OH234688   4.044   0.413  18.014  0.0100 -0.1803 -0.0339
 3498TIP3    H134689   4.031   0.417  17.919 -1.4093 -1.5722  0.0592
 3498TIP3    H234690   4.104   0.485  18.033  0.9296 -0.3194 -2.0834
 3499TIP3   OH234691   7.022   4.158  16.593 -0.0729 -0.2173 -0.1252
 3499TIP3    H134692   7.003   4.159  16.687  1.3058  1.8941  0.2164
 3499TIP3    H234693   7.114   4.132  16.588  2.0977  5.8880 -0.1282
 3500TIP3   OH234694   2.634   2.915  17.366  0.1249 -0.0115  0.1970
 3500TIP3    H134695   2.688   2.979  17.321  1.6346 -1.3385  0.0098
 3500TIP3    H234696   2.677   2.831  17.348 -2.4399 -1.2669 -0.6277
 3501TIP3   OH234697   6.950   2.497  17.337 -0.3751 -0.0825  0.6201
 3501TIP3    H134698   7.038   2.506  17.302 -0.3461 -1.7213  0.2005
 3501TIP3    H234699   6.959   2.516  17.430  0.2946  0.3227  0.4820
 3502TIP3   OH234700   2.565   1.091  17.888 -0.0602  0.1984  0.3002
 3502TIP3    H134701   2.607   1.176  17.877 -1.2877  0.5844 -2.0853
 3502TIP3    H234702   2.473   1.112  17.907 -0.3324 -0.5639 -0.0959
 3503TIP3   OH234703   4.813   3.703  18.821  0.3429 -0.5397 -0.2678
 3503TIP3    H134704   4.848   3.755  18.749 -0.5396  0.0283 -0.2944
 3503TIP3    H234705   4.890   3.661  18.859  1.0194  0.4505 -0.5035
 3504TIP3   OH234706   2.345   0.410  17.608  0.3013  0.4983 -0.0083
 3504TIP3    H134707   2.428   0.444  17.640  0.8437  0.0778 -0.9218
 3504TIP3    H234708   2.333   0.454  17.524  0.6426 -0.9573 -0.8565
 3505TIP3   OH234709   6.651   1.512  18.273  0.3136  0.2172 -0.3571
 3505TIP3    H134710   6.715   1.442  18.286  0.2134  0.0886 -0.5552
 3505TIP3    H234711   6.680   1.557  18.194  0.5937  0.6387 -0.0192
 3506TIP3   OH234712   6.921   5.858  17.952  0.1622 -0.2581 -0.0046
 3506TIP3    H134713   7.015   5.851  17.934  0.0816 -1.1019 -0.1489
 3506TIP3    H234714   6.880   5.849  17.866 -0.0669 -0.2333  0.1036
 3507TIP3   OH234715   1.803   5.799  16.647  0.2686 -0.6174  0.3137
 3507TIP3    H134716   1.873   5.844  16.599  0.7403  0.6272  2.0641
 3507TIP3    H234717   1.848   5.748  16.714 -0.3657 -2.5227 -0.6385
 3508TIP3   OH234718   5.314   0.730  17.618 -0.2349 -0.2390 -0.8898
 3508TIP3    H134719   5.246   0.799  17.622 -0.5123 -0.5608  0.3222
 3508TIP3    H234720   5.265   0.650  17.601 -0.2851 -0.6038  0.8112
 3509TIP3   OH234721   5.648   7.239  17.561 -0.0403  0.2248 -0.2126
 3509TIP3    H134722   5.709   7.237  17.486  0.6525 -1.3381  0.3476
 3509TIP3    H234723   5.696   7.288  17.629 -0.1418  0.5225 -0.3530
 3510TIP3   OH234724   1.681   1.075  17.377  0.5361 -0.2861  0.3103
 3510TIP3    H134725   1.682   1.052  17.470  0.5248  1.2360  0.7154
 3510TIP3    H234726   1.642   1.000  17.333  0.0909 -0.8192  1.5984
 3511TIP3   OH234727   5.766   4.310  17.644  0.2572 -0.1155  0.3039
 3511TIP3    H134728   5.686   4.351  17.676  0.1536 -0.0565 -0.0306
 3511TIP3    H234729   5.739   4.257  17.570  0.8344  1.7035 -1.2841
 3512TIP3   OH234730   4.073   6.406  18.068 -0.3555 -0.4574 -0.2347
 3512TIP3    H134731   4.116   6.338  18.015 -0.4608 -0.9782  0.3354
 3512TIP3    H234732   4.105   6.390  18.157 -0.7925 -0.0879 -0.0093
 3513TIP3   OH234733   3.717   3.861  18.039  0.0571 -0.3912  0.5336
 3513TIP3    H134734   3.671   3.856  17.955 -0.2693  0.5679  0.6415
 3513TIP3    H234735   3.674   3.932  18.086  1.7714  0.6725  0.5639
 3514TIP3   OH234736   2.442   1.074  16.599 -0.3272 -0.1926  0.2869
 3514TIP3    H134737   2.451   1.162  16.634 -1.5591 -0.6916  1.9636
 3514TIP3    H234738   2.375   1.081  16.531  0.4844  0.3661 -0.4828
 3515TIP3   OH234739   1.076   5.821  16.680 -0.9087  0.5814  0.9001
 3515TIP3    H134740   1.068   5.753  16.746 -1.5043  1.6331  1.9384
 3515TIP3    H234741   1.022   5.790  16.607  0.7756 -1.1938  0.3381
 3516TIP3   OH234742   7.335   3.554  19.029 -0.2131 -0.1352  0.0016
 3516TIP3    H134743   7.365   3.600  18.951  1.9812 -1.9487 -0.3154
 3516TIP3    H234744   7.248   3.522  19.007  0.1539 -0.1438 -1.4969
 3517TIP3   OH234745   2.991   3.395  18.125  1.2033 -0.3655  0.1639
 3517TIP3    H134746   3.015   3.307  18.154  0.4261 -0.8791 -0.7159
 3517TIP3    H234747   2.928   3.381  18.055  1.4628  0.8913 -0.3391
 3518TIP3   OH234748   3.179   7.329  16.550 -0.4980  0.2203 -0.1857
 3518TIP3    H134749   3.141   7.407  16.509 -2.5154  0.3536  1.7571
 3518TIP3    H234750   3.190   7.353  16.642 -0.9769 -1.6908  0.4201
 3519TIP3   OH234751   6.752   5.333  16.770  0.1518 -0.1540 -0.2592
 3519TIP3    H134752   6.828   5.293  16.728  0.6726 -0.8134  1.2462
 3519TIP3    H234753   6.690   5.261  16.781  0.6568 -0.3437  1.4942
 3520TIP3   OH234754   1.302   7.128  18.534  0.4524  0.8770 -0.0550
 3520TIP3    H134755   1.294   7.090  18.446  1.8573 -0.4256  0.3291
 3520TIP3    H234756   1.215   7.119  18.572 -0.2877  1.8374 -1.4352
 3521TIP3   OH234757   6.579   4.259  16.329 -0.0532  0.4114 -0.8746
 3521TIP3    H134758   6.659   4.226  16.369 -0.5730  1.3394  1.0393
 3521TIP3    H234759   6.522   4.182  16.322  0.8329 -0.1713 -1.8711
 3522TIP3   OH234760   4.367   5.145  17.800 -0.5753  0.0321 -0.2856
 3522TIP3    H134761   4.419   5.219  17.768  1.6398 -1.6521 -0.8161
 3522TIP3    H234762   4.325   5.110  17.721  0.2514 -0.6420 -0.4404
 3523TIP3   OH234763   6.461   6.065  18.106  0.4863 -0.0795 -0.0369
 3523TIP3    H134764   6.419   6.148  18.085  0.5078  0.0106  0.2764
 3523TIP3    H234765   6.410   5.999  18.059 -0.8540 -0.1298  1.4142
 3524TIP3   OH234766   0.258   0.959  18.201 -0.0169 -0.4461  0.2224
 3524TIP3    H134767   0.208   0.915  18.133  0.0001 -1.2799  0.7388
 3524TIP3    H234768   0.197   0.968  18.275 -0.3684  1.4052 -0.2332
 3525TIP3   OH234769   0.790   3.167  16.114  0.0712  0.1367 -0.1328
 3525TIP3    H134770   0.743   3.087  16.141  0.5153  0.1808  0.8081
 3525TIP3    H234771   0.826   3.202  16.195 -0.9088  1.8277 -0.3800
 3526TIP3   OH234772   4.838   6.417  17.104 -0.4684  0.3437  0.1255
 3526TIP3    H134773   4.803   6.390  17.019  0.4889 -0.7559  0.0624
 3526TIP3    H234774   4.877   6.338  17.140  0.5598  1.1723  0.8837
 3527TIP3   OH234775   6.727   2.186  18.850 -0.0524 -0.1775 -0.5371
 3527TIP3    H134776   6.707   2.275  18.820 -0.6128 -0.3244 -0.6071
 3527TIP3    H234777   6.651   2.134  18.825  0.0229 -0.5632  0.0122
 3528TIP3   OH234778   0.206   2.199  19.156 -0.4920  0.0561  0.2106
 3528TIP3    H134779   0.224   2.283  19.199  0.5284  0.3451 -0.7309
 3528TIP3    H234780   0.157   2.222  19.077 -0.5886 -0.2764  0.1721
 3529TIP3   OH234781   1.411   0.152  17.284 -0.1169 -0.0247  0.8897
 3529TIP3    H134782   1.386   0.082  17.223 -0.4905  0.1856  0.7966
 3529TIP3    H234783   1.506   0.153  17.282 -0.1176 -0.3231  0.6530
 3530TIP3   OH234784   2.548   3.985  18.715 -0.2917  0.1404 -0.7109
 3530TIP3    H134785   2.613   4.055  18.707  0.3720 -0.5618 -1.5603
 3530TIP3    H234786   2.489   4.016  18.785  1.1702  0.5878  0.3796
 3531TIP3   OH234787   0.271   5.190  16.031  0.2124  0.4423 -0.0086
 3531TIP3    H134788   0.228   5.275  16.023 -0.6913  0.0081  0.1682
 3531TIP3    H234789   0.280   5.159  15.941  0.5021  0.6989 -0.0697
 3532TIP3   OH234790   1.460   4.965  18.186  1.1806 -0.5803 -0.0975
 3532TIP3    H134791   1.377   5.004  18.157  0.1887 -1.8260  0.9011
 3532TIP3    H234792   1.528   5.023  18.150 -0.0248 -0.4642 -2.4291
 3533TIP3   OH234793   4.254   3.529  18.574  1.1013  0.0732 -0.3056
 3533TIP3    H134794   4.243   3.477  18.653  0.3267  1.5101  0.5674
 3533TIP3    H234795   4.338   3.574  18.586  0.8214  0.5551 -0.1327
 3534TIP3   OH234796   4.360   0.216  17.669  0.0092  0.3429  0.0219
 3534TIP3    H134797   4.410   0.196  17.748  0.1220 -0.8496 -0.3430
 3534TIP3    H234798   4.389   0.304  17.644  1.9855 -0.3193 -0.1979
 3535TIP3   OH234799   6.987   0.888  16.567 -0.1355  0.5478  0.1086
 3535TIP3    H134800   7.049   0.822  16.536 -2.1581  0.1592 -3.6800
 3535TIP3    H234801   6.921   0.838  16.616  0.3216  0.3382  0.5124
 3536TIP3   OH234802   3.728   1.984  16.383 -0.3374  0.5795  0.1760
 3536TIP3    H134803   3.674   1.920  16.337  0.9363 -0.0036 -0.5436
 3536TIP3    H234804   3.668   2.057  16.401 -1.3239  0.0201 -0.7325
 3537TIP3   OH234805   4.779   5.129  18.220 -0.1731  0.5730 -0.1486
 3537TIP3    H134806   4.778   5.182  18.141 -0.1720  0.7646 -0.0222
 3537TIP3    H234807   4.806   5.042  18.191  1.8234  1.1205 -0.0637
 3538TIP3   OH234808   4.984   1.678  18.786 -0.0831  0.0792 -0.4705
 3538TIP3    H134809   4.947   1.600  18.743 -0.6494 -0.9789  1.7380
 3538TIP3    H234810   4.915   1.705  18.847  0.7027  1.4254 -0.1595
 3539TIP3   OH234811   2.418   2.374  17.281 -0.1164  0.4368  0.3197
 3539TIP3    H134812   2.391   2.283  17.287 -0.6884  0.6141  0.4605
 3539TIP3    H234813   2.514   2.371  17.286 -0.0161 -0.2935 -1.4427
 3540TIP3   OH234814   2.408   0.179  17.716  0.0857 -0.0339 -0.1610
 3540TIP3    H134815   2.373   0.256  17.670  0.1708 -0.0694 -0.2842
 3540TIP3    H234816   2.374   0.104  17.667  1.1067 -0.0616 -0.8554
 3541TIP3   OH234817   2.393   0.946  15.795  0.3758 -0.2769 -0.3956
 3541TIP3    H134818   2.386   0.907  15.708  2.0638 -0.3069 -0.5462
 3541TIP3    H234819   2.436   1.031  15.779 -1.0553  0.5969  0.2047
 3542TIP3   OH234820   5.891   0.652  17.709  0.8628  0.1039 -0.3247
 3542TIP3    H134821   5.901   0.591  17.636 -3.0683 -2.8550  1.2745
 3542TIP3    H234822   5.930   0.608  17.784 -1.4745 -0.3262  0.7317
 3543TIP3   OH234823   2.968   6.297  15.748 -0.0102 -0.1297  0.1047
 3543TIP3    H134824   3.005   6.321  15.833  1.4356 -0.8344 -0.2906
 3543TIP3    H234825   2.953   6.202  15.755 -0.6923 -0.0399 -0.1299
 3544TIP3   OH234826   5.501   0.892  17.993 -0.0330  0.2459  0.6874
 3544TIP3    H134827   5.554   0.858  18.066 -0.2968 -0.5408  0.5208
 3544TIP3    H234828   5.483   0.983  18.017  0.4174  0.1812  1.3009
 3545TIP3   OH234829   1.094   1.546  17.967  0.3055 -0.2707 -0.2306
 3545TIP3    H134830   1.037   1.500  18.029 -0.3948 -2.0523 -2.0735
 3545TIP3    H234831   1.169   1.488  17.955  2.3280  1.7461  1.6510
 3546TIP3   OH234832   4.898   4.380  17.606 -0.5991 -0.7731  0.6063
 3546TIP3    H134833   4.964   4.323  17.564 -0.5224 -0.3937  0.2069
 3546TIP3    H234834   4.868   4.329  17.681  0.2293 -0.9132  0.8568
 3547TIP3   OH234835   0.773   6.396  17.221 -0.3352  0.1177  0.1463
 3547TIP3    H134836   0.733   6.447  17.291 -0.1428  0.8312 -0.2497
 3547TIP3    H234837   0.866   6.393  17.243 -0.2978  0.2133  0.0053
 3548TIP3   OH234838   4.910   0.551  17.172  0.2711  0.2019  0.1202
 3548TIP3    H134839   4.978   0.488  17.198  2.5794  2.2173 -0.7164
 3548TIP3    H234840   4.942   0.589  17.091 -1.5824  1.7103  0.0387
 3549TIP3   OH234841   4.768   7.332  17.382  0.2516  0.9378  0.8950
 3549TIP3    H134842   4.689   7.287  17.410  0.4317  0.9346  1.4206
 3549TIP3    H234843   4.781   7.306  17.291  1.1739 -1.2755  1.5998
 3550TIP3   OH234844   7.074   4.421  16.848  0.7368  0.5944 -0.2246
 3550TIP3    H134845   7.133   4.360  16.891  1.7287  1.6244 -0.0607
 3550TIP3    H234846   7.091   4.409  16.755 -1.6182 -1.8424 -0.4464
 3551TIP3   OH234847   1.805   1.441  17.057 -0.2854  0.4966  0.2691
 3551TIP3    H134848   1.885   1.486  17.029  0.1471  0.1048  0.8458
 3551TIP3    H234849   1.735   1.503  17.040  0.0690  0.6099 -0.8260
 3552TIP3   OH234850   2.988   2.752  16.449 -0.0613 -0.0158 -0.6257
 3552TIP3    H134851   3.070   2.736  16.401  0.6270 -0.7380  0.7246
 3552TIP3    H234852   2.933   2.677  16.427 -0.1341  0.1670 -1.0713
 3553TIP3   OH234853   2.438   1.713  18.525  0.1435 -0.0415  0.1132
 3553TIP3    H134854   2.532   1.732  18.527  0.2397 -0.5375  1.8422
 3553TIP3    H234855   2.398   1.792  18.490  1.0690  0.8024  0.9123
 3554TIP3   OH234856   3.829   5.225  16.944  0.2989  0.1300  0.0305
 3554TIP3    H134857   3.802   5.301  16.995 -1.5456 -1.4340  1.5563
 3554TIP3    H234858   3.792   5.239  16.857 -3.2407 -0.5631  1.2549
 3555TIP3   OH234859   0.352   4.415  18.656  0.2392  0.1896 -0.2446
 3555TIP3    H134860   0.302   4.491  18.683 -0.9826 -0.6819  0.0640
 3555TIP3    H234861   0.396   4.442  18.575  1.2791  1.7596  0.7848
 3556TIP3   OH234862   1.266   6.624  17.509 -0.3053 -0.3392 -0.2219
 3556TIP3    H134863   1.211   6.686  17.556 -0.4016 -0.3740 -0.2878
 3556TIP3    H234864   1.209   6.548  17.495 -1.4716  0.9334 -3.4367
 3557TIP3   OH234865   2.403   4.841  16.786  0.1885 -0.2698 -0.1915
 3557TIP3    H134866   2.317   4.883  16.782 -0.1436 -0.9147  0.0740
 3557TIP3    H234867   2.396   4.766  16.727  0.5548 -0.3501 -0.1340
 3558TIP3   OH234868   1.784   6.146  17.786  0.2508 -0.0390 -0.0985
 3558TIP3    H134869   1.702   6.193  17.773  0.1973  0.2832  1.2374
 3558TIP3    H234870   1.758   6.055  17.797  0.1348 -0.0393 -0.3733
 3559TIP3   OH234871   6.070   5.463  16.153  0.3391 -0.3466  0.6155
 3559TIP3    H134872   5.983   5.424  16.148 -2.0083  3.8089  3.2536
 3559TIP3    H234873   6.084   5.503  16.067 -0.0767 -1.4343  0.0264
 3560TIP3   OH234874   7.212   1.788  16.469 -0.1002 -0.6560  0.3617
 3560TIP3    H134875   7.117   1.799  16.461  0.1142 -0.0831 -2.4597
 3560TIP3    H234876   7.244   1.872  16.500 -0.4519 -0.6899  0.8267
 3561TIP3   OH234877   5.068   3.016  18.698  0.3599  0.2323 -0.8648
 3561TIP3    H134878   5.105   3.058  18.620 -1.0146  0.3465 -1.4736
 3561TIP3    H234879   4.976   3.039  18.697  0.0672 -0.7876  0.1326
 3562TIP3   OH234880   5.644   2.453  17.077  0.5009 -0.3366 -0.0922
 3562TIP3    H134881   5.573   2.456  17.141  0.2651 -0.1762 -0.3595
 3562TIP3    H234882   5.664   2.360  17.068  2.0147 -0.2674  1.8247
 3563TIP3   OH234883   7.166   1.832  17.597 -0.9217  0.1427  0.4272
 3563TIP3    H134884   7.240   1.772  17.604 -0.0728  0.6415 -2.7826
 3563TIP3    H234885   7.200   1.908  17.550 -3.3411  0.5326 -0.8774
 3564TIP3   OH234886   6.363   5.882  16.507 -0.3304  0.1418 -0.1371
 3564TIP3    H134887   6.411   5.964  16.498 -0.6598  0.6091  1.9093
 3564TIP3    H234888   6.432   5.816  16.517 -0.0823  0.3573 -0.3770
 3565TIP3   OH234889   2.727   2.617  16.546 -0.4072 -0.5967 -0.1397
 3565TIP3    H134890   2.686   2.631  16.631  1.2318 -1.7236  0.8691
 3565TIP3    H234891   2.657   2.637  16.483 -1.6970  0.1058  1.4416
 3566TIP3   OH234892   6.779   1.090  17.195 -0.7563  0.6604 -0.0842
 3566TIP3    H134893   6.790   1.150  17.121  0.6369  1.3963  0.6675
 3566TIP3    H234894   6.866   1.088  17.237 -0.7153 -1.9502 -0.1247
 3567TIP3   OH234895   4.271   6.177  17.142  0.1648 -0.0246 -0.4981
 3567TIP3    H134896   4.356   6.198  17.181 -0.2550 -0.2859  0.5844
 3567TIP3    H234897   4.260   6.083  17.157 -0.5671  0.1137 -0.1118
 3568TIP3   OH234898   5.875   6.356  16.305 -0.6155  0.2848  0.4416
 3568TIP3    H134899   5.956   6.315  16.278 -0.8892 -0.5980  0.9359
 3568TIP3    H234900   5.806   6.296  16.276 -1.1467  1.2735 -0.4577
 3569TIP3   OH234901   6.529   3.432  17.569 -0.2342 -0.0849 -0.0392
 3569TIP3    H134902   6.590   3.481  17.514 -0.0402 -1.4099 -1.0644
 3569TIP3    H234903   6.582   3.402  17.643 -0.1877  0.6405  0.2220
 3570TIP3   OH234904   3.506   4.672  18.802  0.3830  0.1745  0.4076
 3570TIP3    H134905   3.470   4.707  18.721 -0.2953 -2.3591 -0.4704
 3570TIP3    H234906   3.601   4.683  18.793  0.3000  0.0697 -0.6553
 3571TIP3   OH234907   0.347   0.424  16.737 -0.1713 -0.2632  0.5714
 3571TIP3    H134908   0.321   0.459  16.652  0.6957  0.2419  0.5021
 3571TIP3    H234909   0.315   0.334  16.736 -0.9373  0.0032  0.0654
 3572TIP3   OH234910   3.503   5.815  17.875  0.1914 -0.4591 -0.2168
 3572TIP3    H134911   3.470   5.737  17.831 -0.6744  0.1869 -0.7606
 3572TIP3    H234912   3.554   5.782  17.948  1.0427 -1.5499 -1.2650
 3573TIP3   OH234913   4.965   1.453  18.307 -0.7564  0.2283 -0.2084
 3573TIP3    H134914   4.890   1.393  18.306  0.2731 -1.0920  0.0194
 3573TIP3    H234915   4.983   1.466  18.400 -0.2010 -0.1009 -0.2699
 3574TIP3   OH234916   4.957   2.058  18.900 -0.0319  0.4924 -0.7883
 3574TIP3    H134917   4.873   2.062  18.945  1.3529 -0.0876  2.0683
 3574TIP3    H234918   4.992   2.147  18.907  0.3094  0.3332 -0.4356
 3575TIP3   OH234919   7.071   3.522  16.448 -0.6680 -0.6300  0.4781
 3575TIP3    H134920   7.118   3.488  16.372 -0.8802  0.3006 -0.0913
 3575TIP3    H234921   7.075   3.452  16.512  0.2168 -1.1308 -0.0990
 3576TIP3   OH234922   4.911   4.026  16.188  0.3344 -1.0924  0.2134
 3576TIP3    H134923   4.857   3.989  16.118  0.0475 -0.3111  0.0094
 3576TIP3    H234924   4.940   3.950  16.239  0.9553 -1.7144 -1.0267
 3577TIP3   OH234925   1.222   3.890  16.125 -0.3220  0.6515 -0.2538
 3577TIP3    H134926   1.187   3.965  16.173 -0.1884  0.8573 -0.4745
 3577TIP3    H234927   1.267   3.929  16.050  1.2790  0.4607  0.5563
 3578TIP3   OH234928   2.055   6.782  18.123  0.4332 -0.2243  0.0331
 3578TIP3    H134929   2.021   6.698  18.092  2.5415 -0.1680 -2.8559
 3578TIP3    H234930   2.047   6.841  18.048 -1.1238  2.3421  2.0059
 3579TIP3   OH234931   2.722   3.804  17.303 -0.2339 -0.2013 -0.5853
 3579TIP3    H134932   2.781   3.878  17.290  1.0420 -1.1489 -0.4479
 3579TIP3    H234933   2.680   3.820  17.387 -0.7657  0.8600 -1.0316
 3580TIP3   OH234934   1.100   0.348  16.642 -0.1012  0.1438 -0.4414
 3580TIP3    H134935   1.060   0.412  16.582  1.1401  0.9090 -0.4867
 3580TIP3    H234936   1.179   0.391  16.674  1.0758 -1.5728 -0.8935
 3581TIP3   OH234937   7.472   6.586  17.912 -0.4230  0.1536 -0.1108
 3581TIP3    H134938   7.386   6.568  17.950  0.4628 -0.7737  1.6138
 3581TIP3    H234939   7.513   6.646  17.974  0.0282  0.9163 -1.1340
 3582TIP3   OH234940   4.791   2.962  16.387 -0.2621 -0.0720 -0.1850
 3582TIP3    H134941   4.726   3.021  16.351  0.5662  2.5504  2.2795
 3582TIP3    H234942   4.872   2.985  16.341  0.1424  1.0884  1.0454
 3583TIP3   OH234943   6.797   0.722  18.168  0.2344 -0.0150  0.4776
 3583TIP3    H134944   6.717   0.673  18.144 -0.4854  1.0166  0.6885
 3583TIP3    H234945   6.868   0.669  18.133 -0.5692 -0.7377 -0.1303
 3584TIP3   OH234946   4.039   2.330  18.943 -0.3557  0.0718 -0.3577
 3584TIP3    H134947   4.034   2.244  18.986 -2.7857  0.7745  0.9657
 3584TIP3    H234948   3.991   2.319  18.862 -2.1521  0.5182  0.5870
 3585TIP3   OH234949   2.975   4.117  19.142 -0.0638  0.0469 -0.0028
 3585TIP3    H134950   3.058   4.103  19.097  0.2694 -0.0607  0.6254
 3585TIP3    H234951   2.977   4.210  19.168 -0.5014  0.2548 -0.6872
 3586TIP3   OH234952   5.448   0.789  17.368 -0.2988 -0.4941 -0.1397
 3586TIP3    H134953   5.406   0.815  17.450  0.4899  0.4919 -0.0249
 3586TIP3    H234954   5.379   0.794  17.302 -1.1197 -1.9619  0.5532
 3587TIP3   OH234955   0.961   1.242  17.664 -0.6924 -0.2259  0.0753
 3587TIP3    H134956   0.921   1.222  17.749 -0.5242  0.4426  0.3184
 3587TIP3    H234957   0.901   1.304  17.623 -1.5672 -1.7036 -0.9745
 3588TIP3   OH234958   3.433   1.246  16.173 -0.4317  0.3329  0.1530
 3588TIP3    H134959   3.403   1.156  16.173  2.3682 -0.7073 -0.5197
 3588TIP3    H234960   3.355   1.298  16.156 -1.7861 -2.0911 -1.5058
 3589TIP3   OH234961   2.664   0.390  17.410  0.2579 -0.3538  0.5778
 3589TIP3    H134962   2.742   0.385  17.355 -0.9725  1.1623 -1.4215
 3589TIP3    H234963   2.613   0.313  17.386 -0.2430  0.2664 -0.3795
 3590TIP3   OH234964   0.158   4.934  18.155  0.2682  0.1905  0.0086
 3590TIP3    H134965   0.158   4.942  18.060 -0.3045 -1.5771 -0.1887
 3590TIP3    H234966   0.071   4.898  18.176  0.1934  1.0287  1.2570
 3591TIP3   OH234967   0.367   2.299  16.735  0.1610 -0.0226 -0.3443
 3591TIP3    H134968   0.411   2.327  16.816 -1.7560 -1.0170  1.1129
 3591TIP3    H234969   0.274   2.312  16.752 -0.3579 -1.1439 -2.0468
 3592TIP3   OH234970   3.153   0.251  16.723 -0.2017 -0.1121  0.0141
 3592TIP3    H134971   3.182   0.272  16.634  2.5458 -0.8552  0.6454
 3592TIP3    H234972   3.106   0.169  16.714 -0.5563  0.1709 -0.8389
 3593TIP3   OH234973   7.239   4.674  18.090 -0.3717  0.3723  1.1465
 3593TIP3    H134974   7.186   4.598  18.111  0.3676 -0.4061  0.2817
 3593TIP3    H234975   7.288   4.649  18.012 -0.5205  1.9332  0.5130
 3594TIP3   OH234976   6.273   5.653  17.850  0.1613 -0.2974  0.2383
 3594TIP3    H134977   6.308   5.570  17.882 -0.3136 -0.7673 -0.4302
 3594TIP3    H234978   6.192   5.629  17.804 -0.4290  0.6268  0.7612
 3595TIP3   OH234979   0.619   5.539  18.511 -0.3818 -0.1245 -0.1719
 3595TIP3    H134980   0.570   5.498  18.439  0.2802  0.2576 -0.8558
 3595TIP3    H234981   0.552   5.568  18.572 -0.9450 -0.7566 -0.4724
 3596TIP3   OH234982   7.285   5.370  16.454 -0.5643  0.2918 -0.6650
 3596TIP3    H134983   7.351   5.306  16.482  0.9375  2.7588  2.0063
 3596TIP3    H234984   7.327   5.418  16.383 -0.1924  0.6803 -0.1883
 3597TIP3   OH234985   7.157   7.015  17.544  0.6032 -0.5054  0.1478
 3597TIP3    H134986   7.253   7.018  17.547  0.6604 -2.1655  0.9376
 3597TIP3    H234987   7.129   7.082  17.606  1.1619  1.7215 -1.8665
 3598TIP3   OH234988   0.305   0.155  16.763  0.2937  0.3890  0.2315
 3598TIP3    H134989   0.338   0.114  16.843  0.5118  0.9367  0.4249
 3598TIP3    H234990   0.374   0.140  16.698 -0.1389 -0.5712 -0.0221
 3599TIP3   OH234991   2.238   5.713  18.336  0.4817  0.1280 -0.6922
 3599TIP3    H134992   2.180   5.743  18.406  1.2230  2.5025 -1.0018
 3599TIP3    H234993   2.216   5.769  18.261  0.7559 -1.3398 -1.9213
 3600TIP3   OH234994   0.131   1.913  17.942  0.4629 -0.4293 -0.2409
 3600TIP3    H134995   0.125   1.952  18.030  2.1928 -1.2604  0.2900
 3600TIP3    H234996   0.060   1.848  17.940 -0.2614  0.3216  0.1264
 3601TIP3   OH234997   4.847   0.723  18.100  0.4990 -0.2629 -0.0650
 3601TIP3    H134998   4.889   0.732  18.015 -0.9750  0.1422 -0.7602
 3601TIP3    H234999   4.790   0.647  18.092  1.7569 -1.3988  1.1795
 3602TIP3   OH235000   3.067   0.514  16.786 -0.2118  0.0253 -0.1681
 3602TIP3    H135001   2.994   0.526  16.847  0.9575  1.7268  0.9761
 3602TIP3    H235002   3.096   0.424  16.800  0.0549  0.3840  1.8705
 3603TIP3   OH235003   2.609   1.286  17.243  0.2226 -0.6805 -0.4166
 3603TIP3    H135004   2.611   1.255  17.153  0.4791 -1.9929  0.0167
 3603TIP3    H235005   2.518   1.313  17.258 -0.1694 -1.8257 -0.6413
 3604TIP3   OH235006   7.084   4.457  18.152 -0.3601  0.1547  0.4043
 3604TIP3    H135007   6.991   4.460  18.173 -0.8481  0.0654 -1.4998
 3604TIP3    H235008   7.090   4.397  18.077  1.2478  0.0616  0.5650
 3605TIP3   OH235009   6.909   3.271  17.492 -0.2664 -0.1704 -0.0365
 3605TIP3    H135010   6.965   3.302  17.564 -0.6394  0.2818  0.0632
 3605TIP3    H235011   6.869   3.350  17.458  1.1776 -0.1576 -1.8547
 3606TIP3   OH235012   1.300   3.793  17.597 -0.3889 -0.5106 -0.0997
 3606TIP3    H135013   1.249   3.717  17.623 -1.9620  0.4679 -0.2341
 3606TIP3    H235014   1.240   3.867  17.605  0.6828  0.5395 -1.3264
 3607TIP3   OH235015   7.331   2.929  17.142 -0.3958 -0.1122  0.3268
 3607TIP3    H135016   7.256   2.988  17.133 -0.2825  0.0966  0.7125
 3607TIP3    H235017   7.304   2.867  17.209 -0.1509  0.0847  0.6137
 3608TIP3   OH235018   1.836   2.458  18.894  0.2697 -0.0069 -0.8831
 3608TIP3    H135019   1.804   2.530  18.948 -1.7569  0.1381 -2.1400
 3608TIP3    H235020   1.775   2.387  18.911  1.4224 -0.9839 -0.7137
 3609TIP3   OH235021   2.649   1.426  18.569  0.1460  0.3602  0.4030
 3609TIP3    H135022   2.730   1.388  18.535 -0.4732 -1.5527  0.9756
 3609TIP3    H235023   2.583   1.359  18.553 -0.9507  1.1016  1.6785
 3610TIP3   OH235024   4.981   5.084  18.631  0.3788 -0.0098 -0.1372
 3610TIP3    H135025   5.051   5.057  18.690  0.3910 -0.5502 -0.3912
 3610TIP3    H235026   4.901   5.051  18.671  0.4251 -0.7174 -0.6110
 3611TIP3   OH235027   2.741   7.228  18.690 -1.0433 -0.2250  0.3297
 3611TIP3    H135028   2.836   7.238  18.701 -0.9550 -1.0085  0.2850
 3611TIP3    H235029   2.704   7.289  18.754 -0.5201  1.4342 -0.8805
 3612TIP3   OH235030   1.948   2.968  16.552 -0.6676  0.0433 -0.3232
 3612TIP3    H135031   1.870   2.925  16.517 -0.7273  2.1309 -3.2299
 3612TIP3    H235032   1.922   3.060  16.561  1.6847  1.0929 -2.7280
 3613TIP3   OH235033   0.545   5.101  17.765 -0.7102  0.0942  0.6516
 3613TIP3    H135034   0.481   5.156  17.811 -0.6070 -0.0303  0.9430
 3613TIP3    H235035   0.515   5.101  17.674 -0.0929  1.5564  0.4158
 3614TIP3   OH235036   1.414   3.288  18.107 -0.3248 -0.4901 -0.1906
 3614TIP3    H135037   1.410   3.344  18.185 -1.3807  0.1818 -0.7099
 3614TIP3    H235038   1.352   3.218  18.125  0.5965 -1.2217  0.2247
 3615TIP3   OH235039   5.141   4.058  16.498  0.2336 -0.1778 -0.4732
 3615TIP3    H135040   5.128   3.967  16.524  1.5608  0.2199  1.8743
 3615TIP3    H235041   5.198   4.053  16.422  0.1293 -1.3082 -0.4994
 3616TIP3   OH235042   6.394   1.287  18.206 -0.0682 -0.2193  0.1236
 3616TIP3    H135043   6.407   1.380  18.189 -0.4159 -0.2628 -0.3943
 3616TIP3    H235044   6.321   1.262  18.149 -0.0230 -0.7919  0.3109
 3617TIP3   OH235045   0.808   5.606  18.248 -0.1132  0.0367  0.0531
 3617TIP3    H135046   0.819   5.558  18.166  1.6791  0.3986  0.0341
 3617TIP3    H235047   0.777   5.541  18.310 -0.2308 -0.5432 -0.5993
 3618TIP3   OH235048   5.135   1.871  19.084 -0.4707 -0.0701  0.2153
 3618TIP3    H135049   5.060   1.830  19.127 -0.9322 -0.8539 -1.2920
 3618TIP3    H235050   5.097   1.933  19.022  0.1903  0.9971  0.8514
 3619TIP3   OH235051   3.570   4.086  18.113  0.7119 -0.0662 -0.3969
 3619TIP3    H135052   3.502   4.087  18.045  0.2531  0.7785  0.0518
 3619TIP3    H235053   3.558   4.169  18.159  0.6737 -0.8491  1.0522
 3620TIP3   OH235054   0.668   6.705  17.060 -0.2572  0.0679 -0.2079
 3620TIP3    H135055   0.614   6.783  17.073 -1.5206 -0.6097 -1.1726
 3620TIP3    H235056   0.610   6.643  17.016  0.8122 -1.3112  0.2618
 3621TIP3   OH235057   0.689   0.583  18.117  0.4537 -0.4227  0.0561
 3621TIP3    H135058   0.686   0.518  18.186  1.1685 -0.4390  0.0771
 3621TIP3    H235059   0.710   0.534  18.038 -0.6203 -0.4422 -0.2336
 3622TIP3   OH235060   7.169   0.551  16.804 -0.1786  0.2222 -0.1853
 3622TIP3    H135061   7.215   0.621  16.850 -1.7805  0.2847  1.4652
 3622TIP3    H235062   7.155   0.585  16.716  0.6871  1.2123  0.0453
 3623TIP3   OH235063   2.360   0.524  17.367  0.3997 -0.2769 -0.3951
 3623TIP3    H135064   2.435   0.582  17.369  1.6769 -1.8698  1.7334
 3623TIP3    H235065   2.359   0.489  17.277  1.3893  0.7523 -0.8227
 3624TIP3   OH235066   6.486   4.034  17.854  1.0696 -0.2194  0.4053
 3624TIP3    H135067   6.469   4.124  17.884  2.8038 -0.0454  1.0117
 3624TIP3    H235068   6.402   4.003  17.820  0.9747  2.6620 -2.5689
 3625TIP3   OH235069   4.581   2.408  17.980 -0.0251 -0.0522  0.0147
 3625TIP3    H135070   4.626   2.357  17.913 -0.3353  0.7358 -0.8058
 3625TIP3    H235071   4.599   2.361  18.061  0.4791 -0.9385 -0.5929
 3626TIP3   OH235072   7.052   4.260  17.278  0.4447 -0.6231 -0.3829
 3626TIP3    H135073   7.005   4.340  17.254  0.0082 -0.7668 -0.0358
 3626TIP3    H235074   7.006   4.190  17.232  1.5118 -0.5692 -1.5848
 3627TIP3   OH235075   0.310   5.505  18.038  0.7515 -0.4387  0.2388
 3627TIP3    H135076   0.283   5.437  17.977  1.4543 -1.3209  0.8711
 3627TIP3    H235077   0.355   5.570  17.984 -1.7192  0.6149 -0.6889
 3628TIP3   OH235078   0.013   3.995  19.288  0.7168 -0.4505 -0.1520
 3628TIP3    H135079  -0.075   4.034  19.284  1.1673  0.7572  0.8854
 3628TIP3    H235080   0.053   4.021  19.205  0.6615  0.4966  0.0983
 3629TIP3   OH235081   0.920   0.834  17.309  0.2544  0.4523  0.2994
 3629TIP3    H135082   0.913   0.854  17.402 -2.2068 -0.5893  0.4107
 3629TIP3    H235083   0.984   0.762  17.305 -0.2450 -0.0704  1.2983
 3630TIP3   OH235084   2.413   3.804  17.198  0.2034 -0.3864 -0.2590
 3630TIP3    H135085   2.428   3.736  17.264 -1.3492 -1.4801 -0.9870
 3630TIP3    H235086   2.495   3.855  17.198  0.2001 -0.2114  2.6052
 3631TIP3   OH235087   1.226   2.518  16.739  0.2995  0.0985  0.0440
 3631TIP3    H135088   1.195   2.566  16.662 -1.0450 -0.3238  0.2846
 3631TIP3    H235089   1.236   2.428  16.709  1.9255  0.3312 -0.1743
 3632TIP3   OH235090   1.827   1.726  18.239 -1.0130  0.8378  0.5916
 3632TIP3    H135091   1.773   1.708  18.162 -3.9741 -3.4702  3.2090
 3632TIP3    H235092   1.893   1.658  18.239 -0.8907  0.9360  1.6757
 3633TIP3   OH235093   2.231   3.344  17.555 -0.5078  0.1995 -0.0554
 3633TIP3    H135094   2.252   3.406  17.625 -0.6623 -0.9998  1.0804
 3633TIP3    H235095   2.314   3.329  17.510 -0.2079  0.2127  0.4926
 3634TIP3   OH235096   4.539   4.400  16.085  0.4130  0.1476 -0.8917
 3634TIP3    H135097   4.487   4.461  16.138 -0.2829  0.0516 -1.4416
 3634TIP3    H235098   4.591   4.457  16.027  2.2071  0.3015  0.7774
 3635TIP3   OH235099   0.178   7.327  17.447 -0.1879 -0.0405  0.0775
 3635TIP3    H135100   0.096   7.287  17.475 -2.2836  3.4316 -0.4721
 3635TIP3    H235101   0.224   7.347  17.529 -1.2819  0.4944  0.5878
 3636TIP3   OH235102   5.190   7.402  17.188  0.1240 -0.1996  0.2304
 3636TIP3    H135103   5.132   7.454  17.132  0.4072  0.6185  0.6850
 3636TIP3    H235104   5.147   7.403  17.274 -0.7269 -2.1141 -0.1052
 3637TIP3   OH235105   6.188   2.453  18.123  0.1891  0.0357 -0.0196
 3637TIP3    H135106   6.279   2.425  18.114 -0.4559 -2.3976  0.3138
 3637TIP3    H235107   6.138   2.390  18.070 -1.4373  0.2640  1.1699
 3638TIP3   OH235108   3.466   5.276  17.618  0.4042  0.0533  0.1321
 3638TIP3    H135109   3.449   5.344  17.553 -0.5190 -0.9373 -0.7003
 3638TIP3    H235110   3.389   5.278  17.675  0.5937  0.0379  0.3852
 3639TIP3   OH235111   6.465   4.691  16.487  0.2284  0.3106 -0.3336
 3639TIP3    H135112   6.427   4.728  16.407  0.6316 -0.6511 -0.9907
 3639TIP3    H235113   6.523   4.622  16.456  0.7169  0.2032  0.7790
 3640TIP3   OH235114   1.982   4.348  18.681  0.5595 -0.3384 -0.0992
 3640TIP3    H135115   1.904   4.384  18.722  0.7252  0.9492 -0.8501
 3640TIP3    H235116   1.979   4.380  18.591  1.6565 -0.7408 -0.2955
 3641TIP3   OH235117   7.175   4.921  16.677  0.2561  0.2378 -0.0133
 3641TIP3    H135118   7.088   4.951  16.702  0.1476  0.3935 -0.5650
 3641TIP3    H235119   7.216   4.997  16.637  0.9781  0.4225  1.0628
 3642TIP3   OH235120   2.474   7.027  16.445 -0.1081 -0.0620  0.4912
 3642TIP3    H135121   2.397   7.083  16.455  0.3307  0.9022 -1.0964
 3642TIP3    H235122   2.544   7.073  16.493 -0.4405 -0.8531  1.7916
 3643TIP3   OH235123   1.161   7.113  17.666 -0.1956 -0.3576  0.0262
 3643TIP3    H135124   1.096   7.072  17.723 -0.8713  0.2119 -0.3239
 3643TIP3    H235125   1.111   7.138  17.588  0.1042  1.5118  0.3966
 3644TIP3   OH235126   4.900   1.977  17.924  0.6698 -0.2115  0.0726
 3644TIP3    H135127   4.955   2.046  17.888  0.1453  0.2534  0.1333
 3644TIP3    H235128   4.885   2.004  18.015  2.5707 -1.7278  0.9129
 3645TIP3   OH235129   6.800   1.957  18.675  0.5815 -0.0137  0.3672
 3645TIP3    H135130   6.844   1.888  18.726 -0.9695 -0.3720  1.2715
 3645TIP3    H235131   6.800   2.033  18.733  0.6359  0.2061  0.0815
 3646TIP3   OH235132   6.476   6.331  17.604 -0.0227 -0.3944 -0.6006
 3646TIP3    H135133   6.566   6.330  17.572  0.6795 -1.0357  1.2286
 3646TIP3    H235134   6.430   6.267  17.550 -0.5539  2.7515 -4.3478
 3647TIP3   OH235135   7.089   2.212  17.977 -0.1363 -0.6312 -0.6949
 3647TIP3    H135136   7.150   2.265  18.029 -0.0414  0.1206 -1.5586
 3647TIP3    H235137   7.008   2.263  17.976  0.0973 -0.2558 -1.9252
 3648TIP3   OH235138   6.427   2.114  18.850 -0.2870  0.0737  0.2763
 3648TIP3    H135139   6.358   2.126  18.785 -1.5982 -1.4046  1.3038
 3648TIP3    H235140   6.400   2.037  18.899  1.5704  0.0971  1.4352
 3649TIP3   OH235141   5.750   5.100  18.281 -0.1777 -0.3259  0.1929
 3649TIP3    H135142   5.829   5.128  18.235  0.6997 -1.0278  1.2114
 3649TIP3    H235143   5.766   5.125  18.372 -1.9880  1.2770  0.1198
 3650TIP3   OH235144   2.919   5.463  18.179  0.1048 -0.4024 -0.2381
 3650TIP3    H135145   2.925   5.386  18.122 -1.1702  0.5355 -1.7230
 3650TIP3    H235146   2.986   5.522  18.146 -0.0938 -0.1842 -0.2549
 3651TIP3   OH235147   4.314   4.825  18.363  0.1155 -0.1161 -0.2952
 3651TIP3    H135148   4.395   4.785  18.333  0.8197  0.1912  1.1028
 3651TIP3    H235149   4.270   4.756  18.413 -0.7735 -0.4508 -1.4777
 3652TIP3   OH235150   3.832   5.234  18.116 -0.3547 -0.1800  0.5760
 3652TIP3    H135151   3.765   5.225  18.048 -1.3898  0.9234  1.4117
 3652TIP3    H235152   3.812   5.318  18.159  0.2276 -0.8719  2.2837
 3653TIP3   OH235153   6.256   2.402  19.181 -0.6638 -0.2831 -0.4337
 3653TIP3    H135154   6.207   2.328  19.217  0.0296 -0.2644  0.5851
 3653TIP3    H235155   6.348   2.380  19.198 -0.4629  0.9825  0.2351
 3654TIP3   OH235156   1.690   2.291  17.763 -0.7807 -0.0265  0.2036
 3654TIP3    H135157   1.637   2.332  17.831  1.4845  0.4647  1.7982
 3654TIP3    H235158   1.780   2.306  17.791  0.2630 -0.2065 -2.7083
 3655TIP3   OH235159   2.573   5.239  18.645 -0.1402 -0.0467 -0.3202
 3655TIP3    H135160   2.485   5.201  18.639 -1.2262  2.3788 -0.6201
 3655TIP3    H235161   2.624   5.172  18.691 -2.2196 -1.3773  0.2012
 3656TIP3   OH235162   6.179   1.492  18.348 -0.0296  0.1315 -0.2843
 3656TIP3    H135163   6.257   1.507  18.295  0.2823  0.0242  0.1451
 3656TIP3    H235164   6.206   1.508  18.438  0.1935 -2.3497  0.1689
 3657TIP3   OH235165   4.841   6.018  17.384  0.6160 -0.7242 -0.2621
 3657TIP3    H135166   4.902   6.003  17.456  1.4257 -1.5688 -1.1050
 3657TIP3    H235167   4.895   6.014  17.305 -0.6367 -2.3727 -1.0983
 3658TIP3   OH235168   6.257   3.932  17.725 -0.5079 -0.5154 -0.3368
 3658TIP3    H135169   6.181   3.981  17.694  0.7284  1.0946 -0.9605
 3658TIP3    H235170   6.300   3.900  17.646  1.2461  1.4292 -0.2708
 3659TIP3   OH235171   5.047   5.650  19.168 -0.4359  0.2073 -0.2090
 3659TIP3    H135172   4.975   5.604  19.126  0.4352 -0.2022 -1.2716
 3659TIP3    H235173   5.051   5.612  19.256 -0.6921 -0.6682 -0.5666
 3660TIP3   OH235174   2.521   5.450  17.801  0.4625  0.0720  0.4263
 3660TIP3    H135175   2.502   5.379  17.741 -1.0528  1.4566 -0.8063
 3660TIP3    H235176   2.441   5.460  17.853  0.4939  1.1756  0.2725
 3661TIP3   OH235177   2.670   0.611  18.776 -0.5532 -0.2436 -0.2027
 3661TIP3    H135178   2.583   0.599  18.739 -1.5872  1.7192  1.4059
 3661TIP3    H235179   2.722   0.646  18.704 -1.9767  1.5836 -0.4080
 3662TIP3   OH235180   1.413   4.613  18.686 -0.2859  0.0519  0.0715
 3662TIP3    H135181   1.373   4.690  18.644  0.7081  1.2668  1.2550
 3662TIP3    H235182   1.468   4.575  18.618 -3.0961 -1.4994 -1.5102
 3663TIP3   OH235183   0.136   1.533  17.570 -0.2119 -0.5227  0.2625
 3663TIP3    H135184   0.216   1.585  17.569 -0.8195  0.4280  0.5759
 3663TIP3    H235185   0.134   1.491  17.484  1.6285 -2.1489  0.9359
 3664TIP3   OH235186   7.275   4.663  16.166  0.3856  0.1742 -0.7558
 3664TIP3    H135187   7.183   4.677  16.145  0.0463 -0.8613 -0.0039
 3664TIP3    H235188   7.311   4.620  16.088  0.4419  1.2930 -1.3717
 3665TIP3   OH235189   3.885   6.953  16.962 -0.2711  0.2037  0.4786
 3665TIP3    H135190   3.829   6.955  17.040  0.1626  0.5537  0.7856
 3665TIP3    H235191   3.835   6.999  16.895 -0.3910  0.4347  0.7245
 3666TIP3   OH235192   0.759   5.786  18.526  0.4342 -0.2194 -0.0202
 3666TIP3    H135193   0.722   5.699  18.509  2.5856 -1.1443 -0.4085
 3666TIP3    H235194   0.849   5.768  18.556  0.5074  1.8430  1.2047
 3667TIP3   OH235195   3.957   4.755  17.990  0.2188  0.6157 -0.4929
 3667TIP3    H135196   3.862   4.758  17.984  0.0739 -0.5658  0.7242
 3667TIP3    H235197   3.987   4.827  17.934 -1.3643  0.8542 -1.0869
 3668TIP3   OH235198   3.983   5.209  17.755 -0.2121 -0.2294 -0.4418
 3668TIP3    H135199   4.018   5.282  17.805 -1.9341 -0.3317  0.9990
 3668TIP3    H235200   3.898   5.240  17.724 -0.0029 -0.8550 -1.7188
 3669TIP3   OH235201   5.540   5.769  17.906  0.6798  0.1329  0.1334
 3669TIP3    H135202   5.478   5.832  17.942 -0.0856 -0.0555 -0.7825
 3669TIP3    H235203   5.545   5.792  17.813  3.2121  1.1284  0.4402
 3670TIP3   OH235204   0.370   1.836  18.208  0.0982  0.9086 -0.1434
 3670TIP3    H135205   0.304   1.904  18.218  0.2052  0.9273  0.5143
 3670TIP3    H235206   0.441   1.863  18.266  0.0967  0.1897  0.2065
 3671TIP3   OH235207   5.571   1.189  16.915  0.1836 -0.2290  0.0073
 3671TIP3    H135208   5.627   1.112  16.905 -0.3287 -0.3976 -2.0082
 3671TIP3    H235209   5.561   1.223  16.826 -1.7051  0.6639  0.5140
 3672TIP3   OH235210   0.364   1.732  17.546  0.0228  0.3282 -0.3228
 3672TIP3    H135211   0.364   1.801  17.479  0.9449  0.4565 -0.2049
 3672TIP3    H235212   0.340   1.777  17.627 -0.5129  0.2826 -0.4499
 3673TIP3   OH235213   6.603   3.538  18.080  0.0800  0.2851  0.5437
 3673TIP3    H135214   6.592   3.599  18.152  0.7033 -0.2040  1.0668
 3673TIP3    H235215   6.689   3.557  18.045  0.5800 -0.7502  1.1664
 3674TIP3   OH235216   2.046   3.913  18.480 -0.1778  0.8950  0.1665
 3674TIP3    H135217   2.117   3.881  18.426  0.1535  2.0885 -0.1357
 3674TIP3    H235218   2.007   3.984  18.429 -2.8421 -0.9185 -0.5572
 3675TIP3   OH235219   6.805   0.306  16.043 -0.1784 -0.0993 -0.2239
 3675TIP3    H135220   6.840   0.392  16.067  1.4440 -0.8970  0.4362
 3675TIP3    H235221   6.748   0.281  16.117 -0.8442  0.4878 -0.5279
 3676TIP3   OH235222   5.032   4.404  16.805  0.0839 -0.2396  0.2370
 3676TIP3    H135223   4.986   4.410  16.722 -0.9468 -2.8644  0.5383
 3676TIP3    H235224   5.018   4.490  16.846 -1.6550  0.1930 -1.1520
 3677TIP3   OH235225   1.530   6.297  17.318  0.4695  0.0786  0.7618
 3677TIP3    H135226   1.519   6.382  17.275 -1.4513  0.2460  1.4808
 3677TIP3    H235227   1.599   6.312  17.383  0.6255  0.9145  0.4112
 3678TIP3   OH235228   1.661   4.102  17.649 -0.0507  0.3722  0.3048
 3678TIP3    H135229   1.697   4.122  17.735  1.4129 -1.9415  0.3076
 3678TIP3    H235230   1.613   4.020  17.661  2.1006 -1.2848 -1.4336
 3679TIP3   OH235231   3.766   5.410  18.409 -0.6280  0.0593 -0.0562
 3679TIP3    H135232   3.687   5.392  18.359 -0.7760  0.9965 -0.1786
 3679TIP3    H235233   3.736   5.418  18.500 -0.1014 -3.6168  0.5953
 3680TIP3   OH235234   7.205   3.603  18.655 -0.6672 -0.1796 -0.0566
 3680TIP3    H135235   7.284   3.628  18.703 -2.1265  1.9575  1.4122
 3680TIP3    H235236   7.218   3.510  18.634  2.2008  0.0954  0.0782
 3681TIP3   OH235237   4.997   2.066  17.632  0.1161  0.1341  0.3389
 3681TIP3    H135238   4.934   1.994  17.645  0.3967 -0.6009 -1.9147
 3681TIP3    H235239   4.978   2.127  17.703 -0.9496 -1.5866  1.6347
 3682TIP3   OH235240   3.046   3.687  18.103 -0.4282  0.6723 -0.1898
 3682TIP3    H135241   2.999   3.604  18.109 -0.2191  0.6342  1.0731
 3682TIP3    H235242   2.980   3.754  18.121  0.2581  0.5439  3.5709
 3683TIP3   OH235243   6.138   4.630  17.826  0.2313  0.4477 -0.4544
 3683TIP3    H135244   6.072   4.610  17.760  0.1713 -0.9218 -0.0155
 3683TIP3    H235245   6.177   4.713  17.797 -2.2483  1.7612 -0.2329
 3684TIP3   OH235246   7.271   4.414  17.499  0.2930  0.0691 -0.4147
 3684TIP3    H135247   7.245   4.496  17.457  1.8992  0.6028 -0.4722
 3684TIP3    H235248   7.216   4.347  17.459  0.1175  0.9000 -1.6133
 3685TIP3   OH235249   2.654   0.216  18.349  0.7976  0.5274  0.4567
 3685TIP3    H135250   2.694   0.180  18.428 -0.6769 -1.8322  0.2281
 3685TIP3    H235251   2.559   0.208  18.365  0.4663  0.3997 -1.3640
 3686TIP3   OH235252   6.896   1.204  19.016  0.5240  0.0174  0.2319
 3686TIP3    H135253   6.821   1.179  18.963  0.7954 -1.6993  0.6009
 3686TIP3    H235254   6.865   1.279  19.068  0.4913  2.3246 -2.8044
 3687TIP3   OH235255   4.272   6.541  18.500 -0.7147 -0.2170  0.2162
 3687TIP3    H135256   4.319   6.616  18.464 -1.8119  1.1480  1.4796
 3687TIP3    H235257   4.250   6.487  18.424  0.1550  0.6907 -0.7141
 3688TIP3   OH235258   7.153   4.369  15.893 -0.2996  0.1316 -1.2570
 3688TIP3    H135259   7.106   4.295  15.932  0.2034 -0.0307 -0.9441
 3688TIP3    H235260   7.120   4.375  15.804 -1.2856  0.3410 -0.8957
 3689TIP3   OH235261   3.454   1.136  18.482  0.3964 -0.1913  0.6779
 3689TIP3    H135262   3.401   1.088  18.419  0.5868  0.5016 -0.0290
 3689TIP3    H235263   3.458   1.079  18.558  0.9486 -1.4853 -0.2710
 3690TIP3   OH235264   4.688   3.921  16.868  0.3134 -0.0874  0.0371
 3690TIP3    H135265   4.660   3.992  16.926 -1.0779 -1.5786  1.2945
 3690TIP3    H235266   4.650   3.842  16.907  3.4035 -1.8218 -0.1869
 3691TIP3   OH235267   6.410   4.455  16.309 -0.5197  0.5151 -0.1798
 3691TIP3    H135268   6.417   4.473  16.215 -0.5663 -0.9723 -0.4986
 3691TIP3    H235269   6.478   4.390  16.325 -1.0627  0.1421  0.6532
 3692TIP3   OH235270   3.113   6.196  18.610 -0.6558 -0.4155  0.0217
 3692TIP3    H135271   3.086   6.278  18.651 -1.1591  0.4489 -1.8953
 3692TIP3    H235272   3.032   6.160  18.574  0.1566  1.1832 -4.0477
 3693TIP3   OH235273   4.082   0.909  17.240 -0.1904  0.3801  0.1526
 3693TIP3    H135274   4.078   0.918  17.145  0.2885 -2.0203 -0.1482
 3693TIP3    H235275   4.175   0.899  17.260 -0.4867 -2.7389  0.3973
 3694TIP3   OH235276   2.763   4.886  15.857  0.2117  0.3402  0.3642
 3694TIP3    H135277   2.729   4.968  15.820 -0.1209  0.4749  0.9558
 3694TIP3    H235278   2.826   4.855  15.792 -1.4221 -0.1988 -1.0712
 3695TIP3   OH235279   5.072   2.823  16.687 -0.2252 -0.5833 -0.3640
 3695TIP3    H135280   4.997   2.879  16.711  0.3916 -0.2290  0.8292
 3695TIP3    H235281   5.094   2.778  16.769  0.8158 -0.7412 -0.7265
 3696TIP3   OH235282   6.687   5.720  17.196  0.3148 -0.4333 -0.2475
 3696TIP3    H135283   6.607   5.669  17.183 -0.0391  0.2929 -1.0126
 3696TIP3    H235284   6.722   5.732  17.108  0.9821 -0.2874  0.0351
 3697TIP3   OH235285   4.270   7.163  17.326  0.0077 -0.0024  0.0384
 3697TIP3    H135286   4.212   7.089  17.304  0.4421  0.3371 -2.5600
 3697TIP3    H235287   4.216   7.220  17.380 -1.0394 -1.1984  0.3124
 3698TIP3   OH235288   5.679   6.335  17.750 -0.1787  0.2643  0.0709
 3698TIP3    H135289   5.696   6.289  17.668  1.1543 -1.0966  1.0748
 3698TIP3    H235290   5.595   6.379  17.735  0.0521  0.1061 -2.0228
 3699TIP3   OH235291   5.606   5.974  17.643 -0.6127  0.0888 -0.0878
 3699TIP3    H135292   5.633   5.885  17.620 -0.7987 -0.0418  0.1940
 3699TIP3    H235293   5.651   6.030  17.580  0.9351 -0.0488  0.8479
 3700TIP3   OH235294   0.750   0.490  16.705  0.2662  0.1539  0.0963
 3700TIP3    H135295   0.666   0.537  16.699  0.2633  0.0314 -1.3060
 3700TIP3    H235296   0.799   0.521  16.629  1.5477  0.2841  0.9532
 3701TIP3   OH235297   5.457   6.762  16.623 -0.1311 -0.2793  0.0744
 3701TIP3    H135298   5.472   6.684  16.676 -0.6962  0.4545  1.3437
 3701TIP3    H235299   5.469   6.835  16.683 -1.0726  0.5679 -0.7366
 3702TIP3   OH235300   7.237   3.368  16.887 -0.4163  0.6198  0.0431
 3702TIP3    H135301   7.191   3.341  16.967 -0.2911  1.8621  0.5475
 3702TIP3    H235302   7.207   3.457  16.871  0.3060  0.7294 -0.7559
 3703TIP3   OH235303   4.162   2.305  17.565  0.0437 -0.2834  0.3404
 3703TIP3    H135304   4.160   2.400  17.572  2.6645  0.1830 -2.6578
 3703TIP3    H235305   4.240   2.279  17.615 -0.7688 -0.9217  1.3096
 3704TIP3   OH235306   5.926   4.107  17.007  0.3016  0.4731 -1.0362
 3704TIP3    H135307   5.967   4.142  17.086 -1.0899 -1.5287  0.6982
 3704TIP3    H235308   5.854   4.166  16.988 -0.7897 -0.2285  0.6522
 3705TIP3   OH235309   0.173   0.845  18.581  0.0857  0.3612 -0.1798
 3705TIP3    H135310   0.113   0.824  18.510 -0.4139 -1.4598  0.7267
 3705TIP3    H235311   0.260   0.828  18.545 -0.0072  1.5030 -1.0025
 3706TIP3   OH235312   4.519   2.157  18.458 -0.4021 -0.0812  1.0313
 3706TIP3    H135313   4.553   2.079  18.501 -0.4593  0.4653  2.0946
 3706TIP3    H235314   4.563   2.230  18.500 -0.5816  0.4911  0.2654
 3707TIP3   OH235315   5.636   2.906  16.347  0.0607 -0.5305 -0.0850
 3707TIP3    H135316   5.583   2.828  16.330  0.2351 -0.6708  0.0215
 3707TIP3    H235317   5.726   2.875  16.346  0.0709 -0.5903  1.3444
 3708TIP3   OH235318   7.189   2.893  18.176  0.5312 -0.5158  0.2944
 3708TIP3    H135319   7.205   2.971  18.229 -0.5407 -1.7706  2.6372
 3708TIP3    H235320   7.167   2.927  18.089 -1.2208  1.9028  1.5342
 3709TIP3   OH235321   6.046   0.371  18.106 -0.5912  0.2011  0.6876
 3709TIP3    H135322   6.134   0.349  18.137 -0.7947  0.2910  1.3542
 3709TIP3    H235323   5.989   0.346  18.178 -1.4590 -2.6238 -0.8593
 3710TIP3   OH235324   2.556   3.857  17.536  0.4205 -0.1107  0.7951
 3710TIP3    H135325   2.473   3.904  17.531  0.8555  0.9661  2.6487
 3710TIP3    H235326   2.595   3.887  17.618  1.1498 -3.0229  1.6336
 3711TIP3   OH235327   0.461   4.728  16.276  0.0192 -0.6360 -0.1498
 3711TIP3    H135328   0.420   4.756  16.194 -2.2090 -0.5883  0.9251
 3711TIP3    H235329   0.538   4.679  16.248  0.0869  0.5471 -2.2319
 3712TIP3   OH235330   4.863   5.336  17.987  0.5220 -0.5699  0.4233
 3712TIP3    H135331   4.769   5.353  17.980  0.5764 -0.5617 -0.4020
 3712TIP3    H235332   4.892   5.387  18.063 -0.3257 -1.4014  1.3228
 3713TIP3   OH235333   0.574   5.590  17.346  0.0525 -0.2916  0.1359
 3713TIP3    H135334   0.605   5.516  17.398 -1.1406  0.1545  1.5300
 3713TIP3    H235335   0.631   5.590  17.269  0.0066 -2.7530  0.0086
 3714TIP3   OH235336   1.734   3.649  18.782  0.2493  0.1210  0.0612
 3714TIP3    H135337   1.808   3.635  18.723  0.9144 -1.0606  1.1339
 3714TIP3    H235338   1.773   3.689  18.860  0.0147 -1.6790  1.1591
 3715TIP3   OH235339   3.496   0.606  16.083 -0.2320  0.2220 -0.3789
 3715TIP3    H135340   3.408   0.582  16.056  0.3732 -0.0526 -2.2061
 3715TIP3    H235341   3.553   0.539  16.045  0.9245  1.3330 -0.6978
 3716TIP3   OH235342   1.752   6.524  17.294  0.8448  0.2132 -0.1367
 3716TIP3    H135343   1.781   6.467  17.366  2.3027  0.0813 -0.7942
 3716TIP3    H235344   1.740   6.465  17.220  0.3845  0.4917 -0.2877
 3717TIP3   OH235345   0.165   6.365  16.942  0.0329  0.5527  0.0131
 3717TIP3    H135346   0.099   6.310  16.900  0.0895  1.7472 -1.7409
 3717TIP3    H235347   0.148   6.355  17.036  0.6257 -3.1203 -0.1071
 3718TIP3   OH235348   4.554   1.211  18.679  0.1481 -0.7059  0.0730
 3718TIP3    H135349   4.580   1.296  18.645 -0.0625 -0.4133  0.6333
 3718TIP3    H235350   4.467   1.196  18.641 -0.1054 -0.3584  0.4923
 3719TIP3   OH235351   4.299   1.198  16.952  0.7261  0.1262  0.3921
 3719TIP3    H135352   4.265   1.245  16.875  1.0246  0.3053  0.3674
 3719TIP3    H235353   4.317   1.110  16.920  1.2145  0.3059  0.1531
 3720TIP3   OH235354   5.777   3.228  16.880  0.3630 -0.0250 -0.0920
 3720TIP3    H135355   5.763   3.275  16.962  1.0970 -0.6675  0.4207
 3720TIP3    H235356   5.871   3.206  16.880  0.1937 -0.8176 -0.6692
 3721TIP3   OH235357   7.191   0.865  18.233  0.3239 -0.2945  0.1234
 3721TIP3    H135358   7.134   0.788  18.241  1.0825 -0.9692 -0.7479
 3721TIP3    H235359   7.230   0.875  18.320 -2.4410  1.2917  1.3240
 3722TIP3   OH235360   1.191   0.376  18.418  0.1834  0.4096 -0.3724
 3722TIP3    H135361   1.144   0.315  18.361 -0.6734  1.3697 -0.7197
 3722TIP3    H235362   1.145   0.371  18.502  0.6126  0.0076 -0.1487
 3723TIP3   OH235363   1.360   1.822  16.430 -0.0884  0.4508 -0.0521
 3723TIP3    H135364   1.299   1.784  16.494  0.9294 -1.9591 -0.3961
 3723TIP3    H235365   1.415   1.882  16.481  0.3720 -1.0339  1.2810
 3724TIP3   OH235366   2.114   6.995  17.958  0.4127 -0.2335 -0.0265
 3724TIP3    H135367   2.192   7.018  18.008 -0.6922  1.6541  0.9554
 3724TIP3    H235368   2.109   7.062  17.890 -1.0928  0.5578  0.8111
 3725TIP3   OH235369   0.990   3.635  17.831 -0.6553 -0.1893  0.2749
 3725TIP3    H135370   0.966   3.726  17.852 -1.2953 -0.8049  2.5119
 3725TIP3    H235371   0.906   3.592  17.813 -0.5001 -0.6670  0.6873
 3726TIP3   OH235372   1.756   5.106  18.797  0.0493  0.2378  0.5937
 3726TIP3    H135373   1.778   5.182  18.850 -1.2212  0.9909  0.0950
 3726TIP3    H235374   1.791   5.031  18.846 -0.3513  0.9782  2.0760
 3727TIP3   OH235375   1.571   3.843  16.707 -0.6684  0.6199 -0.4867
 3727TIP3    H135376   1.488   3.796  16.716 -0.0428 -0.2260  1.5286
 3727TIP3    H235377   1.581   3.858  16.613 -2.4741 -0.3908 -0.8809
 3728TIP3   OH235378   0.209   4.576  18.182 -0.1360 -0.1614  0.3858
 3728TIP3    H135379   0.147   4.511  18.214 -2.0350  1.4606  0.1972
 3728TIP3    H235380   0.213   4.642  18.252  0.4987  0.3373 -0.1061
 3729TIP3   OH235381   3.694   2.131  17.355  0.1011  0.6817  0.1945
 3729TIP3    H135382   3.748   2.194  17.403  0.7274  0.0714  0.3029
 3729TIP3    H235383   3.623   2.184  17.319  0.1249  1.3045  1.0207
 3730TIP3   OH235384   5.146   2.518  16.598 -0.9953  0.0259 -0.4782
 3730TIP3    H135385   5.051   2.521  16.606 -0.9948  1.1488 -0.6645
 3730TIP3    H235386   5.169   2.602  16.557  0.1128  0.0277  0.1023
 3731TIP3   OH235387   3.674   0.057  18.271 -0.0268 -0.7466  0.3650
 3731TIP3    H135388   3.675   0.065  18.175  0.1011 -1.4337  0.3021
 3731TIP3    H235389   3.615   0.126  18.300  0.2917 -0.2331 -0.1792
 3732TIP3   OH235390   6.019   2.208  18.920 -0.4870 -0.2004  0.1722
 3732TIP3    H135391   5.943   2.187  18.865 -0.6187  0.7884 -0.0398
 3732TIP3    H235392   6.085   2.143  18.895 -0.6638  0.0134 -0.9010
 3733TIP3   OH235393   4.906   1.150  16.319 -0.6824  0.0768 -0.5601
 3733TIP3    H135394   4.914   1.115  16.408 -2.5508  0.5065 -0.1934
 3733TIP3    H235395   4.964   1.226  16.318  1.6631 -1.5944 -0.6669
 3734TIP3   OH235396   1.156   4.028  17.666  0.0390 -0.1044 -0.0675
 3734TIP3    H135397   1.167   4.040  17.761  0.5345 -0.9471 -0.0078
 3734TIP3    H235398   1.121   4.112  17.635 -2.0653 -0.4482  1.1568
 3735TIP3   OH235399   4.002   0.005  17.358  0.1174 -0.0916  0.2728
 3735TIP3    H135400   4.054  -0.043  17.423  1.6804  0.6949 -0.3243
 3735TIP3    H235401   3.913  -0.026  17.370  0.3299  0.0692  2.8365
 3736TIP3   OH235402   0.210   2.412  18.226  0.0194 -0.0386  0.5643
 3736TIP3    H135403   0.280   2.471  18.254  0.9322  0.3495 -2.2494
 3736TIP3    H235404   0.254   2.348  18.170 -1.5646 -1.1565  0.5369
 3737TIP3   OH235405   4.251   5.765  17.931 -1.0370  0.7962  0.0763
 3737TIP3    H135406   4.186   5.752  18.000 -0.7889  1.7730  0.5156
 3737TIP3    H235407   4.313   5.692  17.943 -0.1812  1.7436  1.8651
 3738TIP3   OH235408   0.432   0.521  17.838  0.0032 -0.3847  0.0786
 3738TIP3    H135409   0.379   0.495  17.762 -0.2363 -1.4724  0.6021
 3738TIP3    H235410   0.454   0.439  17.882  3.0495 -0.1207 -0.6846
 3739TIP3   OH235411   0.839   3.295  18.869 -0.5000  0.1343  0.1438
 3739TIP3    H135412   0.808   3.368  18.923 -0.6149  1.1982 -1.3009
 3739TIP3    H235413   0.896   3.336  18.804  1.7056 -1.4355  0.9854
 3740TIP3   OH235414   0.109   2.751  18.485 -0.5675  0.4218 -0.0714
 3740TIP3    H135415   0.151   2.816  18.542 -0.0159 -0.7184  0.8675
 3740TIP3    H235416   0.101   2.794  18.400 -1.5513  2.2345  0.8852
 3741TIP3   OH235417   2.918   6.218  16.055 -0.3717 -0.1383  0.3368
 3741TIP3    H135418   2.878   6.243  16.138 -0.4945 -2.5032  1.0437
 3741TIP3    H235419   2.987   6.283  16.041 -0.2091  0.1927  2.3977
 3742TIP3   OH235420   6.530   1.313  16.779  0.4043 -0.1691 -1.1295
 3742TIP3    H135421   6.527   1.224  16.744 -0.5781  0.2385 -2.1491
 3742TIP3    H235422   6.493   1.305  16.867  3.4482 -1.3029  0.1825
 3743TIP3   OH235423   4.294   2.374  18.586 -0.9050  0.3838 -0.2516
 3743TIP3    H135424   4.331   2.289  18.611 -0.3379  0.3925 -1.0147
 3743TIP3    H235425   4.222   2.353  18.527 -0.7934  0.4266 -0.4046
 3744TIP3   OH235426   7.306   3.163  16.517  0.1921 -0.1783 -0.6439
 3744TIP3    H135427   7.287   3.072  16.541 -1.9165  0.2690 -0.4909
 3744TIP3    H235428   7.367   3.193  16.584  1.2119 -1.5640 -0.9002
 3745TIP3   OH235429   7.143   2.051  17.142 -0.2069 -0.3736  0.2357
 3745TIP3    H135430   7.139   2.090  17.229  3.7953  1.2454 -0.1237
 3745TIP3    H235431   7.228   2.007  17.139 -0.3679 -0.6847 -2.7430
 3746TIP3   OH235432   4.722   1.968  18.522  0.1433 -0.2705  0.5604
 3746TIP3    H135433   4.713   1.875  18.500  0.6435 -0.5109  1.3386
 3746TIP3    H235434   4.808   1.975  18.563 -0.4585  0.2752  1.7938
 3747TIP3   OH235435   1.463   5.981  18.073 -0.3565 -0.0149 -0.5902
 3747TIP3    H135436   1.508   5.956  17.992  1.1716 -1.3593  0.6177
 3747TIP3    H235437   1.494   5.919  18.138  0.3120  2.4561  1.6279
 3748TIP3   OH235438   2.709   4.241  18.719 -0.6188 -0.7583 -0.4721
 3748TIP3    H135439   2.731   4.286  18.800  2.4023  0.2837 -1.7260
 3748TIP3    H235440   2.633   4.288  18.685 -0.0947  0.7284  0.3164
 3749TIP3   OH235441   2.151   0.296  16.480 -0.0734 -0.5899 -0.0435
 3749TIP3    H135442   2.203   0.360  16.432  1.4196 -0.4509  1.6283
 3749TIP3    H235443   2.194   0.213  16.463 -1.5696 -1.0866 -1.6148
 3750TIP3   OH235444   5.456   4.018  18.140 -0.3330  0.0878  0.5891
 3750TIP3    H135445   5.373   4.061  18.120  0.6695  1.8959  0.0688
 3750TIP3    H235446   5.518   4.056  18.078  0.9385 -1.0606  1.1093
 3751TIP3   OH235447   4.405   0.720  16.400 -0.2684  0.0066  0.1583
 3751TIP3    H135448   4.337   0.786  16.405 -1.9429 -1.6399  0.2760
 3751TIP3    H235449   4.399   0.673  16.484 -0.4411 -1.4996 -0.6698
 3752TIP3   OH235450   3.636   6.464  16.672  0.2230 -0.5403 -0.3202
 3752TIP3    H135451   3.662   6.553  16.652 -1.0007 -0.0430  0.2217
 3752TIP3    H235452   3.644   6.456  16.767 -1.0233 -0.5288 -0.1892
 3753TIP3   OH235453   5.056   4.664  18.103  0.4232  0.4049 -0.3419
 3753TIP3    H135454   5.125   4.608  18.140  1.1259  1.1202 -0.5322
 3753TIP3    H235455   5.051   4.637  18.011 -1.9769 -2.0299  0.3584
 3754TIP3   OH235456   7.353   3.874  16.740  0.0247  0.1104  0.2804
 3754TIP3    H135457   7.441   3.895  16.709  0.7504 -2.1354  0.6725
 3754TIP3    H235458   7.305   3.849  16.661 -0.3998  1.5660  0.0302
 3755TIP3   OH235459   6.198   3.696  16.441  0.7192 -0.1334 -0.0444
 3755TIP3    H135460   6.112   3.654  16.435  0.1215  0.9988  0.3165
 3755TIP3    H235461   6.255   3.641  16.388 -0.0963 -1.2235  0.1563
 3756TIP3   OH235462   3.669   0.823  16.842 -0.1195  0.6234  0.2047
 3756TIP3    H135463   3.676   0.830  16.746 -1.0427  0.1392  0.0884
 3756TIP3    H235464   3.759   0.816  16.872  0.1453  0.0104 -0.6956
 3757TIP3   OH235465   5.775   0.864  17.561 -0.0066 -0.3085 -0.3800
 3757TIP3    H135466   5.691   0.852  17.605 -0.4435 -0.1162 -1.1368
 3757TIP3    H235467   5.840   0.841  17.627 -0.6655 -0.9901  0.0528
 3758TIP3   OH235468   3.405   6.125  17.739  0.5237  0.1590  0.1484
 3758TIP3    H135469   3.337   6.063  17.713  1.5929 -1.6161  1.3394
 3758TIP3    H235470   3.479   6.069  17.765  2.1354  1.9877 -0.2843
 3759TIP3   OH235471   1.520   3.678  19.075  0.0149 -0.5476 -0.1017
 3759TIP3    H135472   1.607   3.678  19.035  1.0314 -0.7600  1.9933
 3759TIP3    H235473   1.489   3.589  19.064  0.9519 -1.0178  0.9116
 3760TIP3   OH235474   3.226   3.940  15.927  0.1430 -0.2185  0.4813
 3760TIP3    H135475   3.166   3.982  15.865 -1.2986 -0.7501  1.4583
 3760TIP3    H235476   3.270   3.873  15.876  0.5965  0.7766 -0.4743
 3761TIP3   OH235477   7.232   3.392  16.238 -0.1119  0.2197 -0.5520
 3761TIP3    H135478   7.325   3.410  16.243 -0.4649  1.8333  1.5129
 3761TIP3    H235479   7.223   3.330  16.165  2.3440  1.2780 -1.8575
 3762TIP3   OH235480   1.348   0.557  18.289  0.6648  0.1357 -0.3557
 3762TIP3    H135481   1.275   0.512  18.330  1.1753  0.7874  1.3261
 3762TIP3    H235482   1.424   0.535  18.343  1.1266  2.0381 -0.1572
 3763TIP3   OH235483   2.082   7.246  17.524 -0.1351 -0.0390 -0.3024
 3763TIP3    H135484   2.123   7.254  17.438 -1.4110  2.7907 -0.7850
 3763TIP3    H235485   2.030   7.166  17.519 -0.6148  0.3609 -2.3961
 3764TIP3   OH235486   3.149   0.094  17.495 -0.3859 -0.0038 -0.5788
 3764TIP3    H135487   3.071   0.147  17.506 -1.8443 -2.1496 -0.0230
 3764TIP3    H235488   3.157   0.044  17.577  2.8506  1.6607  0.3073
 3765TIP3   OH235489   4.925   0.707  18.362 -0.1236 -0.3926 -0.7681
 3765TIP3    H135490   5.020   0.708  18.352  0.1213  0.0712  1.1686
 3765TIP3    H235491   4.892   0.681  18.276  1.7699 -1.1631 -1.3131
 3766TIP3   OH235492   7.316   4.743  17.197  0.5217 -0.3975  0.0219
 3766TIP3    H135493   7.399   4.791  17.188  0.1111  0.6476  1.4403
 3766TIP3    H235494   7.281   4.740  17.108  1.5149  0.2119 -0.4096
 3767TIP3   OH235495   7.002   0.559  18.022  0.7729  0.0653  0.3896
 3767TIP3    H135496   6.931   0.498  18.041 -0.0800  1.6315  2.6702
 3767TIP3    H235497   7.034   0.533  17.936 -3.4454  0.0956 -1.4339
 3768TIP3   OH235498   2.548   0.580  16.670  0.6972 -0.0699  0.1231
 3768TIP3    H135499   2.476   0.640  16.689  0.2147 -0.2446 -1.0529
 3768TIP3    H235500   2.516   0.526  16.598  2.6199  1.0280 -1.6988
 3769TIP3   OH235501   3.998   0.833  18.012  0.6660 -0.0672 -0.0239
 3769TIP3    H135502   3.924   0.862  18.066  0.7552  0.3316 -0.1191
 3769TIP3    H235503   4.047   0.912  17.992  0.5113 -0.1781 -0.8759
 3770TIP3   OH235504   5.692   2.051  19.369  0.7644  0.8368 -0.2125
 3770TIP3    H135505   5.603   2.086  19.367  0.7722  0.8418 -0.4572
 3770TIP3    H235506   5.685   1.975  19.427  0.8446  1.4895  0.6757
 3771TIP3   OH235507   1.341   3.936  18.603 -0.5587 -0.2999 -0.4571
 3771TIP3    H135508   1.397   3.926  18.680  0.3945  1.7676 -0.8170
 3771TIP3    H235509   1.256   3.962  18.638 -0.6232 -1.0556 -0.0357
 3772TIP3   OH235510   6.362   6.741  16.458  0.4536  0.2880  0.4697
 3772TIP3    H135511   6.307   6.672  16.420 -0.1735  1.0767 -0.0829
 3772TIP3    H235512   6.406   6.781  16.383 -0.9181  1.9635  0.5085
 3773TIP3   OH235513   4.486   7.242  16.628 -0.5295 -0.1395 -0.0619
 3773TIP3    H135514   4.437   7.281  16.555 -2.3807 -1.8203  0.1965
 3773TIP3    H235515   4.535   7.170  16.588 -0.0244  0.1362  0.0522
 3774TIP3   OH235516   0.879   6.035  17.117 -0.0190 -0.1906  0.0462
 3774TIP3    H135517   0.815   5.964  17.119  0.9000 -1.0372  0.1135
 3774TIP3    H235518   0.894   6.058  17.209 -0.5049  0.2783  0.0144
 3775TIP3   OH235519   6.036   0.438  18.427  0.7001  0.5991 -0.5352
 3775TIP3    H135520   5.992   0.370  18.377  0.4491  1.6275 -1.7611
 3775TIP3    H235521   6.010   0.520  18.385  1.3932  1.4287  0.5863
 3776TIP3   OH235522   6.950   6.610  17.237 -0.0567 -0.1523 -0.3098
 3776TIP3    H135523   6.993   6.525  17.236  1.4599  0.5697 -0.7554
 3776TIP3    H235524   6.979   6.651  17.318 -2.1292 -0.6708  0.7415
 3777TIP3   OH235525   7.185   0.700  16.562  0.0757 -0.7663  0.3412
 3777TIP3    H135526   7.264   0.753  16.574 -0.1798 -0.2493 -0.2003
 3777TIP3    H235527   7.206   0.642  16.488  0.0347 -0.8055  0.3602
 3778TIP3   OH235528   3.665   3.546  17.201  0.0871  0.3553  0.2734
 3778TIP3    H135529   3.612   3.601  17.260 -0.3031 -0.1962  0.4443
 3778TIP3    H235530   3.662   3.592  17.117 -0.4654  0.4590  0.3451
 3779TIP3   OH235531   4.002   2.764  16.821  0.2330 -0.0839  0.6131
 3779TIP3    H135532   4.017   2.728  16.734 -1.0605 -0.0544  0.3585
 3779TIP3    H235533   4.082   2.745  16.869  0.6580 -0.8040 -0.3519
 3780TIP3   OH235534   6.963   6.167  16.503 -0.3174 -0.3891 -0.5414
 3780TIP3    H135535   6.929   6.171  16.592  0.4766  0.9508 -0.2766
 3780TIP3    H235536   7.051   6.205  16.508 -0.2141 -0.3837 -1.8625
 3781TIP3   OH235537   0.825   4.765  18.651 -0.6943 -0.2705 -0.5463
 3781TIP3    H135538   0.733   4.744  18.639 -1.2292  0.6063  1.5493
 3781TIP3    H235539   0.839   4.843  18.597 -1.2946 -0.1308 -0.5092
 3782TIP3   OH235540   4.239   4.666  17.205 -0.5790  0.5229  0.1673
 3782TIP3    H135541   4.172   4.641  17.269  1.1656 -0.2686  1.7424
 3782TIP3    H235542   4.258   4.758  17.226 -0.7409  0.5797  0.0750
 3783TIP3   OH235543   5.113   4.202  17.689 -0.1615  0.0719 -0.4783
 3783TIP3    H135544   5.053   4.214  17.763  1.5332 -0.9173  1.1381
 3783TIP3    H235545   5.186   4.153  17.725  1.4249  0.8018 -2.4975
 3784TIP3   OH235546   3.506   6.733  17.070  0.1294  0.3831  0.5726
 3784TIP3    H135547   3.494   6.664  17.136 -1.1603  1.1567  1.1807
 3784TIP3    H235548   3.425   6.730  17.018  0.6671  0.5206 -0.2962
 3785TIP3   OH235549   3.665   5.113  16.448  0.1864  0.2204  0.4136
 3785TIP3    H135550   3.699   5.064  16.372 -1.3359  1.0532 -0.8769
 3785TIP3    H235551   3.596   5.057  16.483  1.5397 -0.6222  1.8759
 3786TIP3   OH235552   4.180   4.857  17.476  0.8288  0.1236 -0.6244
 3786TIP3    H135553   4.240   4.850  17.401  2.0495 -0.0458  0.3403
 3786TIP3    H235554   4.165   4.951  17.487  1.1777  0.1856 -0.6719
 3787TIP3   OH235555   6.864   5.575  18.042 -0.2198 -0.1663 -0.3200
 3787TIP3    H135556   6.840   5.640  17.976  2.2009  2.4819  1.1605
 3787TIP3    H235557   6.876   5.626  18.122  1.6250 -2.4448  0.9835
 3788TIP3   OH235558   2.698   6.307  17.793 -0.3997 -0.0447  0.3370
 3788TIP3    H135559   2.755   6.319  17.869  1.5875 -1.2869 -0.8837
 3788TIP3    H235560   2.756   6.275  17.724 -2.3154  0.1399 -1.4515
 3789TIP3   OH235561   7.242   7.310  18.750 -0.5211  0.8100 -0.0744
 3789TIP3    H135562   7.336   7.326  18.763  0.3087 -2.1019 -1.5551
 3789TIP3    H235563   7.235   7.281  18.659 -2.6253 -0.4194  0.4048
 3790TIP3   OH235564   3.383   2.885  17.921 -0.4727 -0.2296 -0.0096
 3790TIP3    H135565   3.406   2.852  18.008  0.0979 -0.4778 -0.2522
 3790TIP3    H235566   3.301   2.840  17.900 -0.6051 -0.1808  0.3891
 3791TIP3   OH235567   3.437   3.419  18.811 -0.0915  0.1941  0.4691
 3791TIP3    H135568   3.501   3.362  18.854 -1.3697 -0.7370  1.2201
 3791TIP3    H235569   3.462   3.419  18.719 -0.3300 -2.0122  0.3595
 3792TIP3   OH235570   5.631   5.613  18.635  0.2179  0.2752 -0.4454
 3792TIP3    H135571   5.697   5.682  18.642  0.7765 -0.0389 -2.2258
 3792TIP3    H235572   5.572   5.644  18.566  0.4307 -0.9815 -1.2072
 3793TIP3   OH235573   5.364   2.313  18.217 -0.7060 -0.4510  0.2692
 3793TIP3    H135574   5.342   2.231  18.173  0.8641 -0.9577  0.3801
 3793TIP3    H235575   5.460   2.314  18.220 -0.6465  1.6899 -0.3096
 3794TIP3   OH235576   0.354   7.112  16.642 -0.2717  0.1437 -0.1524
 3794TIP3    H135577   0.284   7.109  16.708 -0.2359  0.0454 -0.1171
 3794TIP3    H235578   0.434   7.092  16.691 -0.3192 -0.5088 -0.3241
 3795TIP3   OH235579   0.040   3.450  16.235 -0.0020 -0.2516 -0.5611
 3795TIP3    H135580   0.087   3.477  16.314 -1.8753  0.0174  0.5464
 3795TIP3    H235581   0.107   3.443  16.168  1.2213  2.8728  0.1541
 3796TIP3   OH235582   1.810   2.160  16.241 -0.7696  0.0544  0.3598
 3796TIP3    H135583   1.833   2.130  16.153 -1.2626  0.1763  0.1851
 3796TIP3    H235584   1.838   2.088  16.298 -2.1734 -0.8922 -0.0784
 3797TIP3   OH235585   7.480   2.333  18.417  0.0693 -0.0927 -0.0626
 3797TIP3    H135586   7.521   2.327  18.503 -0.0049  0.0638 -0.0157
 3797TIP3    H235587   7.551   2.357  18.357  0.5961 -2.2953 -0.4262
 3798TIP3   OH235588   3.745   0.158  17.488  0.6279  0.2846 -0.1830
 3798TIP3    H135589   3.694   0.095  17.538 -0.7185  0.6730 -1.0258
 3798TIP3    H235590   3.724   0.138  17.396  0.5480  1.6402 -0.4746
 3799TIP3   OH235591   5.918   2.159  16.412 -0.3052  0.4369  0.0405
 3799TIP3    H135592   5.849   2.206  16.458  1.3704  1.1225  2.0354
 3799TIP3    H235593   5.999   2.206  16.436  1.1360 -1.8024 -0.1514
 3800TIP3   OH235594   3.266   3.691  17.832 -0.1287 -0.4825  0.0705
 3800TIP3    H135595   3.259   3.740  17.913 -0.2182  1.1432 -0.8764
 3800TIP3    H235596   3.177   3.691  17.796  0.1538 -0.0000 -0.6654
 3801TIP3   OH235597   0.236   6.970  18.127 -0.1943 -0.0300  0.1884
 3801TIP3    H135598   0.170   7.033  18.157 -1.3648 -1.6906  1.2434
 3801TIP3    H235599   0.319   7.015  18.140 -1.0302  1.7144 -0.1602
 3802TIP3   OH235600   4.566   2.986  16.835 -0.0846  0.1361  0.4629
 3802TIP3    H135601   4.656   2.976  16.804 -1.0874 -0.5602 -2.6480
 3802TIP3    H235602   4.538   3.071  16.799 -1.1775 -0.4763 -0.1959
 3803TIP3   OH235603   2.458   0.632  18.589  0.7199 -0.6547  0.5080
 3803TIP3    H135604   2.454   0.727  18.583 -1.4417 -0.7569 -0.4650
 3803TIP3    H235605   2.380   0.608  18.639  0.7748 -1.9589  0.0040
 3804TIP3   OH235606   6.597   0.426  17.308 -0.0320 -0.3037  0.4196
 3804TIP3    H135607   6.622   0.342  17.269 -3.4732 -0.6167 -1.5602
 3804TIP3    H235608   6.547   0.401  17.387 -1.5806 -0.2317 -0.4991
 3805TIP3   OH235609   1.256   3.220  17.239  0.2494 -0.0200 -0.0921
 3805TIP3    H135610   1.234   3.312  17.222  1.2658  0.1718 -0.3753
 3805TIP3    H235611   1.259   3.214  17.335 -2.0474 -0.3073  0.0287
 3806TIP3   OH235612   6.935   1.613  17.322 -0.4878  0.3298 -0.0349
 3806TIP3    H135613   6.999   1.638  17.256 -1.4680  0.6655 -0.8874
 3806TIP3    H235614   6.911   1.695  17.366  0.1168  0.1162  0.7078
 3807TIP3   OH235615   7.271   5.899  18.005  0.0200  1.1518 -0.0838
 3807TIP3    H135616   7.243   5.851  17.927  1.0314 -0.4857  0.5078
 3807TIP3    H235617   7.244   5.989  17.989  0.1616  0.8467 -2.3060
 3808TIP3   OH235618   2.751   0.804  18.317  0.3359  0.1855 -0.2104
 3808TIP3    H135619   2.717   0.838  18.234  1.8067  0.4893 -0.7240
 3808TIP3    H235620   2.840   0.776  18.296  0.7722  0.3615  1.3004
 3809TIP3   OH235621   2.297   2.622  16.865 -0.0835 -0.3929 -0.0616
 3809TIP3    H135622   2.318   2.711  16.836 -1.8829 -0.2316 -1.0614
 3809TIP3    H235623   2.381   2.577  16.868  0.9569  1.5031  1.1202
 3810TIP3   OH235624   6.779   4.389  16.963 -0.4091 -0.4655 -0.1791
 3810TIP3    H135625   6.872   4.379  16.942 -0.4433 -1.0852 -0.0603
 3810TIP3    H235626   6.778   4.423  17.053 -0.2981 -0.7883 -0.0539
 3811TIP3   OH235627   0.695   0.119  17.126  0.0953 -0.0553  0.3167
 3811TIP3    H135628   0.731   0.064  17.195 -0.1902 -1.4674 -0.6052
 3811TIP3    H235629   0.707   0.067  17.046 -0.6560  1.0112 -0.5193
 3812TIP3   OH235630   1.985   1.581  16.925  0.2654 -0.4996 -0.5050
 3812TIP3    H135631   1.970   1.674  16.939 -0.9579 -0.5114 -1.5426
 3812TIP3    H235632   1.986   1.571  16.829  0.5204 -1.5286 -0.4046
 3813TIP3   OH235633   4.946   4.662  16.936 -0.2361 -0.0025 -0.3033
 3813TIP3    H135634   4.923   4.701  17.020  0.4931  1.7489 -0.8880
 3813TIP3    H235635   5.019   4.714  16.904  0.2858 -1.3917 -1.4908
 3814TIP3   OH235636   6.427   3.396  19.080  0.5405  0.3001  0.0366
 3814TIP3    H135637   6.496   3.442  19.128 -0.4946  1.1439  0.7967
 3814TIP3    H235638   6.432   3.431  18.991  1.2069  0.2213  0.0450
 3815TIP3   OH235639   7.453   4.460  18.250  0.8560 -0.6511 -0.3872
 3815TIP3    H135640   7.429   4.437  18.160 -0.5177  0.0873 -0.2426
 3815TIP3    H235641   7.431   4.553  18.257  1.0846 -0.6686  0.6678
 3816TIP3   OH235642   1.821   1.065  17.045  0.0444 -0.1900 -0.3521
 3816TIP3    H135643   1.785   1.078  16.957  1.3835 -0.4355 -0.9596
 3816TIP3    H235644   1.800   0.974  17.066 -4.4810  1.0018  1.6365
 3817TIP3   OH235645   3.855   3.531  17.723 -0.3049 -0.8620  0.4082
 3817TIP3    H135646   3.827   3.442  17.702  0.7602 -1.3841  1.1222
 3817TIP3    H235647   3.780   3.570  17.767 -0.3339 -1.8619  1.2849
 3818TIP3   OH235648   6.744   7.135  18.371  0.2395 -0.3069 -0.7043
 3818TIP3    H135649   6.660   7.134  18.418 -0.3447 -0.6203 -1.7274
 3818TIP3    H235650   6.805   7.092  18.431 -0.2632  0.1430  0.1570
 3819TIP3   OH235651   2.957   5.027  18.196 -0.2190  0.5984  0.1091
 3819TIP3    H135652   3.021   5.069  18.138  1.2227 -0.9209  0.5016
 3819TIP3    H235653   3.003   5.020  18.280 -0.3624 -1.7100  0.0556
 3820TIP3   OH235654   1.612   0.335  18.019  0.2581  0.0520 -0.2233
 3820TIP3    H135655   1.665   0.332  17.939  0.1615  0.1309 -0.2904
 3820TIP3    H235656   1.634   0.254  18.065  0.2058 -0.0613 -0.3979
 3821TIP3   OH235657   3.884   5.918  16.804  0.3096  0.4366  0.2275
 3821TIP3    H135658   3.949   5.929  16.872  0.8464 -1.8593  0.1843
 3821TIP3    H235659   3.840   5.836  16.826 -1.6924  1.2493 -0.4677
 3822TIP3   OH235660   6.369   3.085  16.747  0.1786  0.2218 -0.0697
 3822TIP3    H135661   6.348   3.009  16.692  1.6540  0.2281 -0.6900
 3822TIP3    H235662   6.318   3.071  16.827 -1.0433 -0.4325 -0.9184
 3823TIP3   OH235663   2.073   4.631  17.908 -0.1552  0.3616  0.6769
 3823TIP3    H135664   2.008   4.699  17.891  0.5418  0.8605 -0.0349
 3823TIP3    H235665   2.148   4.677  17.944 -0.3279 -0.2658  1.8679
 3824TIP3   OH235666   0.566   1.614  17.832  0.1550  1.2271 -0.2052
 3824TIP3    H135667   0.602   1.654  17.912 -1.3654  2.4869 -0.0948
 3824TIP3    H235668   0.475   1.595  17.854  0.3685 -0.7847 -0.8489
 3825TIP3   OH235669   0.018   4.164  17.864  0.0829 -0.2279 -0.9109
 3825TIP3    H135670   0.075   4.214  17.805 -1.3629  0.4259 -1.7926
 3825TIP3    H235671  -0.049   4.126  17.807 -0.2613 -1.1626  0.0765
 3826TIP3   OH235672   6.450   6.924  17.173 -0.0812 -0.0890  0.1611
 3826TIP3    H135673   6.434   6.886  17.087 -0.0549  2.1423 -0.9211
 3826TIP3    H235674   6.525   6.877  17.208 -0.5733 -1.5425 -0.6741
 3827TIP3   OH235675   3.675   5.280  17.351  0.4527  0.0113  0.0461
 3827TIP3    H135676   3.605   5.344  17.335  1.6627  1.5489  0.6634
 3827TIP3    H235677   3.656   5.209  17.289 -0.4442  1.3581 -1.3270
 3828TIP3   OH235678   4.740   2.712  16.810 -0.0003  0.5495  0.1405
 3828TIP3    H135679   4.785   2.790  16.778  0.6367  1.2086  2.4004
 3828TIP3    H235680   4.713   2.736  16.899 -0.2691 -1.6223  0.6899
 3829TIP3   OH235681   3.237   6.858  16.254 -0.0323 -0.1879  0.1711
 3829TIP3    H135682   3.228   6.910  16.175 -1.7012  0.2196  0.5796
 3829TIP3    H235683   3.207   6.771  16.229 -2.9729  0.5121  0.8635
 3830TIP3   OH235684   5.934   1.808  19.027  0.2100 -0.0564 -0.0516
 3830TIP3    H135685   6.024   1.792  19.057  0.3588  1.1098  0.1680
 3830TIP3    H235686   5.900   1.873  19.088 -1.2476 -1.4410  0.6702
 3831TIP3   OH235687   3.230   2.007  18.624 -0.3074 -0.4174 -0.8585
 3831TIP3    H135688   3.232   2.030  18.531  0.1479  3.4387 -0.0493
 3831TIP3    H235689   3.321   2.008  18.652 -0.5589  0.1173 -0.0225
 3832TIP3   OH235690   6.226   2.270  16.833  0.2838  0.0126  0.0122
 3832TIP3    H135691   6.154   2.232  16.884 -0.6286  1.4731 -0.1431
 3832TIP3    H235692   6.251   2.349  16.880  0.2404  0.7372 -1.1399
 3833TIP3   OH235693   4.150   2.795  18.686  0.2599  0.0370  0.2413
 3833TIP3    H135694   4.214   2.740  18.732  1.0840 -0.5618 -1.5120
 3833TIP3    H235695   4.195   2.879  18.675  0.4389 -0.1168 -0.2496
 3834TIP3   OH235696   2.897   1.754  16.274 -0.4358  0.0790 -0.3320
 3834TIP3    H135697   2.824   1.735  16.215 -1.8413 -0.2328  1.4263
 3834TIP3    H235698   2.965   1.692  16.248 -1.9123 -1.7116 -0.0989
 3835TIP3   OH235699   6.932   6.735  16.987  0.5418 -0.1022 -0.5521
 3835TIP3    H135700   6.913   6.673  16.917  0.4015  0.4871 -1.0382
 3835TIP3    H235701   6.935   6.681  17.066 -0.2220 -0.6405 -0.8789
 3836TIP3   OH235702   1.192   6.080  17.898 -0.7241  0.3590  0.2583
 3836TIP3    H135703   1.222   6.162  17.857 -1.6078  0.7262  0.3172
 3836TIP3    H235704   1.232   6.080  17.984  2.8595 -1.4110 -1.2167
 3837TIP3   OH235705   3.785   6.503  15.939 -0.7756  0.0233  0.0039
 3837TIP3    H135706   3.690   6.492  15.934 -0.8092  0.8543 -2.6214
 3837TIP3    H235707   3.819   6.455  15.863  0.8777  0.2842  0.5258
 3838TIP3   OH235708   3.395   0.985  16.130 -0.6148 -0.0150 -0.0673
 3838TIP3    H135709   3.328   0.927  16.094 -0.3664  0.2116 -0.9161
 3838TIP3    H235710   3.450   0.928  16.183 -0.7971 -0.4166 -0.3090
 3839TIP3   OH235711   6.440   3.276  16.980  0.0401 -0.1300  0.2058
 3839TIP3    H135712   6.491   3.276  17.061 -1.7533  1.2131  1.4386
 3839TIP3    H235713   6.486   3.337  16.922  0.2214  0.5351  1.0265
 3840TIP3   OH235714   6.122   0.592  16.369 -0.1145 -0.0191 -0.2047
 3840TIP3    H135715   6.057   0.538  16.415  0.4280 -0.0238  0.5856
 3840TIP3    H235716   6.203   0.542  16.377  0.4369  0.9752  0.6926
 3841TIP3   OH235717   2.639   7.037  17.888  0.2739 -0.4277  0.6063
 3841TIP3    H135718   2.696   6.979  17.839  0.2069 -0.3240  0.4022
 3841TIP3    H235719   2.664   7.125  17.860  1.2842 -0.2773  1.8885
 3842TIP3   OH235720   2.736   7.375  17.203 -0.2569  0.2046  0.0419
 3842TIP3    H135721   2.808   7.414  17.153  0.4499  0.7975  1.4787
 3842TIP3    H235722   2.694   7.449  17.247 -1.1723 -0.2516 -0.0358
 3843TIP3   OH235723   3.591   2.493  18.253  0.4619  0.4536  0.1949
 3843TIP3    H135724   3.515   2.449  18.290 -2.1380  2.3692 -2.3749
 3843TIP3    H235725   3.636   2.530  18.329 -0.2022 -2.0398  1.9365
 3844TIP3   OH235726   3.624   1.595  18.598 -0.1141  0.0265 -0.1588
 3844TIP3    H135727   3.546   1.633  18.558  1.0186  0.0893 -2.4986
 3844TIP3    H235728   3.646   1.520  18.542  1.2611 -0.2637  0.6987
 3845TIP3   OH235729   1.081   4.275  17.236  0.5034  0.0876 -0.2880
 3845TIP3    H135730   1.173   4.264  17.263  0.2177 -0.7414  0.3880
 3845TIP3    H235731   1.086   4.288  17.141  1.2611 -1.0976 -0.4385
 3846TIP3   OH235732   3.121   5.474  18.955  0.4564  0.1857 -0.5516
 3846TIP3    H135733   3.083   5.562  18.965 -0.3082 -0.0612 -1.2036
 3846TIP3    H235734   3.046   5.415  18.954  1.0304 -0.6645  1.4958
 3847TIP3   OH235735   7.363   0.265  17.387  0.2716 -0.2930 -0.1086
 3847TIP3    H135736   7.337   0.230  17.302 -0.0671 -2.2119  0.7415
 3847TIP3    H235737   7.408   0.193  17.430 -0.0698  0.4578  1.5875
 3848TIP3   OH235738   3.472   6.799  17.439 -0.0173 -0.1870  0.3359
 3848TIP3    H135739   3.475   6.716  17.487  1.0126 -0.8281 -0.7803
 3848TIP3    H235740   3.479   6.866  17.507 -3.1942 -0.8542  1.5098
 3849TIP3   OH235741   2.206   4.391  17.170  0.0258  0.2057  0.2129
 3849TIP3    H135742   2.220   4.327  17.100  1.8249 -1.6311  2.1091
 3849TIP3    H235743   2.294   4.418  17.195 -0.5956  1.0545  1.5476
 3850TIP3   OH235744   5.284   4.792  16.665  0.2303  0.3353  0.1168
 3850TIP3    H135745   5.292   4.702  16.633 -0.8305 -0.3577  1.6861
 3850TIP3    H235746   5.352   4.799  16.732  0.2058  0.6439  0.1081
 3851TIP3   OH235747   4.537   6.161  18.190  0.2126  0.2253  0.3424
 3851TIP3    H135748   4.613   6.216  18.206  0.4657 -0.0846  0.2232
 3851TIP3    H235749   4.521   6.170  18.096  1.7592 -1.7766 -0.2075
 3852TIP3   OH235750   0.800   2.233  16.209 -0.8304 -0.2732 -0.3156
 3852TIP3    H135751   0.755   2.314  16.235 -0.8163 -0.1894 -0.5582
 3852TIP3    H235752   0.842   2.254  16.126 -1.3233 -0.7139 -0.6792
 3853TIP3   OH235753   5.838   3.530  18.583  0.6851 -0.1675 -0.6360
 3853TIP3    H135754   5.884   3.601  18.537 -1.4730  0.6305 -1.7290
 3853TIP3    H235755   5.747   3.540  18.556 -0.1027 -1.8507  1.1800
 3854TIP3   OH235756   0.780   4.035  18.760 -0.2616 -0.6876 -0.1782
 3854TIP3    H135757   0.783   4.025  18.855 -1.3987 -0.3224 -0.0954
 3854TIP3    H235758   0.728   3.961  18.729  0.2684 -0.9156 -0.5384
 3855TIP3   OH235759   6.379   0.613  16.648  0.4680 -0.4713 -0.0834
 3855TIP3    H135760   6.446   0.571  16.594 -1.2804 -2.2177 -0.9996
 3855TIP3    H235761   6.415   0.610  16.737  1.6400 -1.2680 -0.5586
 3856TIP3   OH235762   4.069   6.037  18.198  0.5200  1.0935  0.3561
 3856TIP3    H135763   4.090   6.056  18.106 -0.3816  1.5959  0.2415
 3856TIP3    H235764   4.154   6.023  18.240  0.8832 -1.1192 -0.9588
 3857TIP3   OH235765   4.649   2.620  18.607  0.2132 -0.2438 -0.1760
 3857TIP3    H135766   4.658   2.668  18.690 -1.1005  0.5136 -0.4416
 3857TIP3    H235767   4.592   2.675  18.554  1.2638 -0.5920 -1.7100
 3858TIP3   OH235768   4.606   4.163  17.466 -0.1827 -0.2947 -0.4552
 3858TIP3    H135769   4.529   4.127  17.421 -0.9948  0.3562  0.3900
 3858TIP3    H235770   4.629   4.241  17.416 -2.7386  2.0064  1.6724
 3859TIP3   OH235771   7.344   1.555  16.439  0.0862 -0.2053  0.1142
 3859TIP3    H135772   7.421   1.581  16.490  0.2518  0.3805 -0.4211
 3859TIP3    H235773   7.285   1.629  16.445 -0.7491 -0.9308  1.1036
 3860TIP3   OH235774   2.494   4.865  17.112 -0.5907  0.6682  0.1548
 3860TIP3    H135775   2.513   4.882  17.019 -0.4175 -1.0675 -0.1754
 3860TIP3    H235776   2.409   4.821  17.111 -0.3598  0.1938  0.7553
 3861TIP3   OH235777   1.778   4.456  18.801 -0.1572  0.5678 -0.2714
 3861TIP3    H135778   1.713   4.409  18.854  0.2782  0.6581  0.3633
 3861TIP3    H235779   1.757   4.548  18.814 -1.0400  0.5696 -1.5559
 3862TIP3   OH235780   3.031   1.721  17.691 -0.1142  0.4581  0.0066
 3862TIP3    H135781   2.999   1.707  17.602 -0.5987 -2.4106  0.5301
 3862TIP3    H235782   2.956   1.755  17.739 -0.6555 -0.5594 -0.1024
 3863TIP3   OH235783   3.832   3.146  18.633 -0.7375  0.0437 -0.0284
 3863TIP3    H135784   3.754   3.108  18.592 -1.8902 -0.8487  2.7638
 3863TIP3    H235785   3.851   3.088  18.706  1.5658  1.2064  0.3667
 3864TIP3   OH235786   4.844   2.577  18.333  0.3311  0.3755  0.7218
 3864TIP3    H135787   4.918   2.634  18.312 -0.9515  1.1242 -2.4487
 3864TIP3    H235788   4.875   2.489  18.311  0.3368  0.6886 -0.6339
 3865TIP3   OH235789   6.444   1.477  17.703 -0.0823 -0.1047  0.2740
 3865TIP3    H135790   6.439   1.468  17.798 -0.0764  1.3136  0.4324
 3865TIP3    H235791   6.352   1.481  17.675 -0.0830 -0.3001  0.2523
 3866TIP3   OH235792   1.532   1.622  18.942  0.0713  0.0844  0.0021
 3866TIP3    H135793   1.493   1.547  18.988 -0.8089  0.8107  0.4686
 3866TIP3    H235794   1.461   1.657  18.888  0.5313  0.4650 -0.3606
 3867TIP3   OH235795   1.647   0.042  17.768 -0.7237  0.0015 -0.2479
 3867TIP3    H135796   1.709  -0.005  17.711  0.8413 -0.7501  1.9007
 3867TIP3    H235797   1.591  -0.027  17.803 -1.6655  0.4532 -0.8340
 3868TIP3   OH235798   2.876   6.759  17.140 -0.1024  0.0510 -0.3376
 3868TIP3    H135799   2.853   6.666  17.139  0.5946 -0.1478  0.9951
 3868TIP3    H235800   2.808   6.800  17.193 -0.3953  0.3137 -0.9034
 3869TIP3   OH235801   5.160   3.059  17.218  0.5684 -0.2696 -0.9869
 3869TIP3    H135802   5.187   3.141  17.176  2.7299 -1.4866 -2.1339
 3869TIP3    H235803   5.184   2.991  17.155 -1.2547 -1.8094 -0.1070
 3870TIP3   OH235804   2.321   4.702  17.509  0.8989 -0.1009 -0.2624
 3870TIP3    H135805   2.242   4.655  17.481  0.7914  0.7244 -1.4185
 3870TIP3    H235806   2.393   4.641  17.490  0.6502 -0.3578 -0.3986
 3871TIP3   OH235807   2.240   2.615  18.278  0.4146 -0.1577 -0.5308
 3871TIP3    H135808   2.146   2.598  18.288  0.3145  0.7767  0.2958
 3871TIP3    H235809   2.261   2.582  18.191 -0.5914 -0.7660 -0.5611
 3872TIP3   OH235810   3.934   4.058  18.699  0.3239 -0.0823 -0.1075
 3872TIP3    H135811   3.880   4.017  18.766  1.2589  0.8564  1.2700
 3872TIP3    H235812   3.990   3.987  18.667 -2.8018 -1.5998 -2.9453
 3873TIP3   OH235813   3.244   2.475  18.746  0.2617  0.5394  0.0981
 3873TIP3    H135814   3.214   2.503  18.833  0.9553  1.6667 -0.0101
 3873TIP3    H235815   3.289   2.552  18.710  3.8132 -1.1408  0.5035
 3874TIP3   OH235816   6.451   5.086  17.258 -0.5834  0.0441 -0.2092
 3874TIP3    H135817   6.498   5.155  17.211 -1.2884  0.0442 -0.9511
 3874TIP3    H235818   6.400   5.042  17.190 -1.1479 -0.3682  0.4652
 3875TIP3   OH235819   4.097   4.265  18.803  0.7303  0.0351 -0.3569
 3875TIP3    H135820   4.059   4.343  18.843  3.3342  1.7408 -1.0158
 3875TIP3    H235821   4.028   4.232  18.746  0.2597  3.2292 -1.8332
 3876TIP3   OH235822   4.323   2.431  17.787  0.0163 -0.1290  0.2259
 3876TIP3    H135823   4.266   2.373  17.838 -0.1977  0.2361  0.4058
 3876TIP3    H235824   4.374   2.478  17.853 -1.7108  1.8628  0.2409
 3877TIP3   OH235825   4.415   1.930  17.734 -0.0500  0.4577  0.1567
 3877TIP3    H135826   4.465   1.967  17.807  1.7000 -1.1590 -0.1424
 3877TIP3    H235827   4.396   1.841  17.762 -1.2516  0.4938 -0.5021
 3878TIP3   OH235828   6.460   3.620  17.817 -0.4765  0.3541 -0.1536
 3878TIP3    H135829   6.516   3.599  17.743  0.7298 -0.8394  1.0403
 3878TIP3    H235830   6.519   3.625  17.892 -1.9580 -1.2838  1.2237
 3879TIP3   OH235831   2.099   0.267  17.171 -0.1429  0.1087 -0.0649
 3879TIP3    H135832   2.179   0.309  17.139  0.2508  0.2392  1.0177
 3879TIP3    H235833   2.028   0.322  17.140  0.2402  0.3902 -0.4423
 3880TIP3   OH235834   2.262   0.869  17.525 -0.0514 -0.4518 -0.2902
 3880TIP3    H135835   2.334   0.875  17.587  0.2524 -1.0726 -0.5714
 3880TIP3    H235836   2.229   0.959  17.518  1.0849 -0.0418 -0.6214
 3881TIP3   OH235837   3.866   6.529  18.217 -0.3159  0.2638 -0.0664
 3881TIP3    H135838   3.915   6.484  18.149  0.0095  0.3898  0.0845
 3881TIP3    H235839   3.802   6.582  18.170  0.3471  0.8675 -0.3005
 3882TIP3   OH235840   5.828   5.198  18.533 -0.6647  0.2805 -0.2884
 3882TIP3    H135841   5.893   5.267  18.544 -0.4311 -0.1036  0.8688
 3882TIP3    H235842   5.744   5.243  18.536 -0.5041  0.5559  0.1227
 3883TIP3   OH235843   2.674   2.135  17.066 -0.4176  0.1447 -0.5629
 3883TIP3    H135844   2.728   2.067  17.107 -1.9471 -1.4117 -1.0294
 3883TIP3    H235845   2.694   2.128  16.973  0.2967  1.1695 -0.5021
 3884TIP3   OH235846   1.361   0.666  17.473 -0.4465 -0.1411  0.1287
 3884TIP3    H135847   1.427   0.604  17.502 -0.0153 -0.4642 -1.4293
 3884TIP3    H235848   1.375   0.744  17.526  1.0021 -0.3072  0.0212
 3885TIP3   OH235849   7.000   2.169  16.719  0.3597 -0.1672 -0.2569
 3885TIP3    H135850   7.034   2.086  16.686 -0.4116 -0.5601 -0.0834
 3885TIP3    H235851   6.985   2.152  16.812 -1.1732 -0.2992 -0.5097
 3886TIP3   OH235852   3.856   6.218  16.732 -0.5215  0.0214 -0.3751
 3886TIP3    H135853   3.792   6.169  16.783  0.9183 -0.0543  1.4402
 3886TIP3    H235854   3.838   6.310  16.752  1.2147 -0.0454  1.9021
 3887TIP3   OH235855   2.706   0.955  16.517  0.1175 -0.1423 -0.3033
 3887TIP3    H135856   2.619   0.992  16.535 -0.0069 -1.2766  1.7571
 3887TIP3    H235857   2.762   1.031  16.504 -0.9119  0.6511 -0.2316
 3888TIP3   OH235858   7.259   4.731  18.493  0.2870 -0.0270  0.0662
 3888TIP3    H135859   7.192   4.785  18.536 -0.1463 -0.3569 -0.1775
 3888TIP3    H235860   7.211   4.653  18.464  0.4304  0.4317 -1.5041
 3889TIP3   OH235861   1.259   1.510  18.857  0.3867  0.2840 -0.1496
 3889TIP3    H135862   1.223   1.591  18.823  0.8262  0.5953  0.1216
 3889TIP3    H235863   1.315   1.476  18.786  0.4347  0.3689 -0.1512
 3890TIP3   OH235864   5.973   3.201  18.614  0.2505  0.3822 -0.2660
 3890TIP3    H135865   5.908   3.164  18.555  1.2276 -0.3946 -0.9014
 3890TIP3    H235866   6.033   3.128  18.631  0.3159  0.7490  1.2331
 3891TIP3   OH235867   6.162   1.961  18.865  0.1984  0.5549 -0.0565
 3891TIP3    H135868   6.232   1.903  18.833 -0.8327 -0.0479 -1.2906
 3891TIP3    H235869   6.081   1.923  18.831 -0.6299  2.0316  0.1716
 3892TIP3   OH235870   4.363   3.040  17.537  0.2306  0.2662 -0.3746
 3892TIP3    H135871   4.391   2.995  17.458  1.0983  0.5885 -0.2605
 3892TIP3    H235872   4.427   3.111  17.549  1.0747 -0.7187  1.4563
 3893TIP3   OH235873   0.138   1.335  18.216  0.5921  0.5920  0.0580
 3893TIP3    H135874   0.105   1.325  18.305  0.6613  0.8477  0.1117
 3893TIP3    H235875   0.173   1.424  18.213 -0.0559  0.8379 -0.4334
 3894TIP3   OH235876   6.259   0.345  15.816  0.0078  0.1086  0.1772
 3894TIP3    H135877   6.229   0.289  15.888 -0.4947 -1.6926 -1.3744
 3894TIP3    H235878   6.337   0.301  15.783 -0.3307  0.3876 -1.0166
 3895TIP3   OH235879   1.871   6.761  18.312  0.7095  0.3139 -0.1374
 3895TIP3    H135880   1.811   6.705  18.262 -0.3798  2.0616 -0.8813
 3895TIP3    H235881   1.936   6.789  18.249  1.0865  0.1197  0.1639
 3896TIP3   OH235882   2.382   4.012  16.863  0.6527  0.2609  0.2348
 3896TIP3    H135883   2.372   3.988  16.771  1.3631  1.8568 -0.2988
 3896TIP3    H235884   2.431   3.939  16.901  0.9757 -0.0973 -0.8226
 3897TIP3   OH235885   3.515   2.841  18.459 -0.2370 -0.1190  0.0899
 3897TIP3    H135886   3.421   2.832  18.441 -0.3342 -1.7251  1.2472
 3897TIP3    H235887   3.535   2.931  18.435 -2.3208  0.6082  0.8706
 3898TIP3   OH235888   3.965   5.897  17.967 -0.5837 -0.0541  0.1480
 3898TIP3    H135889   3.884   5.928  18.008 -0.6979  0.0662 -0.1583
 3898TIP3    H235890   3.966   5.803  17.983 -0.7917 -0.0579  0.1479
 3899TIP3   OH235891   1.057   7.030  18.632  0.1217 -0.1787 -0.2762
 3899TIP3    H135892   0.983   7.068  18.584  0.7374  0.4274 -0.7775
 3899TIP3    H235893   1.088   6.960  18.575 -0.2635 -0.6505  0.0881
 3900TIP3   OH235894   3.666   4.317  17.525 -0.1486  0.2238  0.1559
 3900TIP3    H135895   3.693   4.327  17.616 -2.1565 -0.6157  0.8780
 3900TIP3    H235896   3.611   4.239  17.524 -0.9264  0.7418 -1.5974
 3901TIP3   OH235897   6.593   1.659  17.136 -0.1940  0.1910  0.2392
 3901TIP3    H135898   6.578   1.602  17.061  0.2367 -0.8067  0.8916
 3901TIP3    H235899   6.678   1.633  17.170  0.8858  2.4901 -0.5279
 3902TIP3   OH235900   3.661   3.641  16.486  0.1355 -0.1275 -0.0498
 3902TIP3    H135901   3.692   3.687  16.564 -0.5805  0.8475 -0.3194
 3902TIP3    H235902   3.570   3.618  16.507  0.8980 -2.8238  0.6864
 3903TIP3   OH235903   6.468   5.844  17.364  0.2247  0.1528  0.2562
 3903TIP3    H135904   6.453   5.900  17.288  0.2416  0.1985  0.2852
 3903TIP3    H235905   6.533   5.781  17.335 -0.4808 -0.4390 -0.0709
 3904TIP3   OH235906   3.148   0.126  17.007  0.3166  0.1248  0.2280
 3904TIP3    H135907   3.188   0.211  17.024  0.4373 -0.1613  1.4823
 3904TIP3    H235908   3.166   0.075  17.086 -0.3877 -0.8275 -0.2072
 3905TIP3   OH235909   5.230   5.346  16.096 -0.2255  0.4304 -0.1112
 3905TIP3    H135910   5.186   5.288  16.158 -0.3761  0.8666  0.1951
 3905TIP3    H235911   5.174   5.346  16.019 -0.0503 -0.0934 -0.2457
 3906TIP3   OH235912   5.210   4.170  18.077  0.5454 -0.3504  0.4875
 3906TIP3    H135913   5.143   4.211  18.131  0.7164 -0.4734  0.7905
 3906TIP3    H235914   5.165   4.097  18.034 -0.2178  1.1324 -1.3748
 3907TIP3   OH235915   0.904   2.818  17.146  0.0744 -0.0972 -0.2536
 3907TIP3    H135916   0.936   2.763  17.075  0.0017 -0.7120  0.1888
 3907TIP3    H235917   0.941   2.904  17.127  0.7947 -0.4626 -0.5381
 3908TIP3   OH235918   4.565   6.944  18.135 -0.3580  0.3998 -0.5518
 3908TIP3    H135919   4.624   6.996  18.082  2.2893 -1.0329  0.7611
 3908TIP3    H235920   4.534   6.875  18.076  0.5824  0.2339 -0.8615
 3909TIP3   OH235921   4.345   1.959  16.984  0.2479  0.6052  0.0742
 3909TIP3    H135922   4.263   2.003  16.961  0.5614  0.8067 -0.7128
 3909TIP3    H235923   4.395   2.026  17.031 -0.1687  0.3760  0.8511
 3910TIP3   OH235924   2.344   7.282  17.966 -0.0253 -0.5220  0.0733
 3910TIP3    H135925   2.370   7.363  18.009 -0.2735  0.1973 -1.0889
 3910TIP3    H235926   2.369   7.213  18.028 -1.9380  0.5216  2.1694
 3911TIP3   OH235927   6.461   5.558  16.602  0.4149 -0.0239 -0.1572
 3911TIP3    H135928   6.366   5.562  16.592  0.1758  1.6473  2.0086
 3911TIP3    H235929   6.495   5.603  16.525 -0.4422 -1.4679 -1.4491
 3912TIP3   OH235930   1.119   2.897  18.268  0.2150  0.9183  0.3357
 3912TIP3    H135931   1.030   2.929  18.255  0.6572  2.2841  0.4961
 3912TIP3    H235932   1.121   2.812  18.224 -1.1502  0.8831  0.3005
 3913TIP3   OH235933   5.034   1.469  17.613  0.4388  0.0357 -0.4552
 3913TIP3    H135934   4.969   1.521  17.660  1.5693 -0.4184  1.7319
 3913TIP3    H235935   4.987   1.390  17.587 -0.2763  0.3989 -0.3057
 3914TIP3   OH235936   6.174   4.942  18.022 -0.1866 -0.4146  0.3157
 3914TIP3    H135937   6.240   4.883  18.058 -1.0272 -2.3805 -1.1661
 3914TIP3    H235938   6.221   4.996  17.959  0.1932 -1.0942  0.0117
 3915TIP3   OH235939   6.496   5.479  18.326  0.0557 -0.0792  0.3407
 3915TIP3    H135940   6.410   5.467  18.285 -0.0293  0.2492  0.4201
 3915TIP3    H235941   6.501   5.411  18.393 -0.3966  0.2926  0.7521
 3916TIP3   OH235942   5.648   2.432  18.175  0.4885 -0.9165  0.4543
 3916TIP3    H135943   5.714   2.490  18.213  0.5855 -0.9430  0.3272
 3916TIP3    H235944   5.690   2.395  18.097 -0.4168  0.8005 -0.9499
 3917TIP3   OH235945   4.840   2.888  18.331 -0.0840  0.0314  0.1680
 3917TIP3    H135946   4.818   2.803  18.292 -2.6011  0.8726 -0.4079
 3917TIP3    H235947   4.934   2.883  18.348 -0.0224 -2.5722 -0.5583
 3918TIP3   OH235948   3.857   5.638  16.788 -0.4570  0.3482  0.6153
 3918TIP3    H135949   3.952   5.652  16.784 -0.4520  0.2105  0.1696
 3918TIP3    H235950   3.843   5.589  16.869  0.2068 -2.3559 -0.7816
 3919TIP3   OH235951   0.074   6.031  18.616  0.0803 -0.5259 -0.3446
 3919TIP3    H135952   0.050   5.940  18.630 -0.9936 -0.3834 -1.1158
 3919TIP3    H235953   0.100   6.035  18.524  0.1170 -0.0611 -0.3175
 3920TIP3   OH235954   3.486   2.037  18.032  0.0021 -0.1738  0.2871
 3920TIP3    H135955   3.443   1.993  18.104  1.4611  0.5096  1.6388
 3920TIP3    H235956   3.441   2.122  18.024  0.7328  0.3376  1.3679
 3921TIP3   OH235957   3.545   3.043  17.273  0.1512 -0.2615 -0.2415
 3921TIP3    H135958   3.525   3.098  17.197  0.5419 -0.4329 -0.4723
 3921TIP3    H235959   3.529   2.954  17.244 -1.8417 -0.2215  0.5544
 3922TIP3   OH235960   6.964   3.563  17.170 -0.2855  0.2366 -0.0308
 3922TIP3    H135961   7.020   3.631  17.208 -0.4251  0.8555 -0.9125
 3922TIP3    H235962   6.917   3.526  17.245  0.5741  0.3721  0.5991
 3923TIP3   OH235963   6.105   2.676  19.104 -0.3597 -0.0793  0.1780
 3923TIP3    H135964   6.059   2.704  19.183 -1.3823 -0.9231 -0.0878
 3923TIP3    H235965   6.151   2.596  19.129  2.0141  1.3692  0.7568
 3924TIP3   OH235966   0.108   5.797  18.308 -0.5296 -0.3190 -1.0368
 3924TIP3    H135967   0.012   5.806  18.307 -0.4737  0.5570 -0.3241
 3924TIP3    H235968   0.127   5.737  18.237 -1.5317  0.4771 -2.0268
 3925TIP3   OH235969   6.204   1.122  17.192 -0.2915  0.2480  0.2798
 3925TIP3    H135970   6.277   1.062  17.208  0.7189  1.3038 -0.2291
 3925TIP3    H235971   6.156   1.124  17.276  0.1092 -0.6270  0.5497
 3926TIP3   OH235972   3.313   3.608  17.125  0.6234 -0.4083  0.4967
 3926TIP3    H135973   3.380   3.670  17.154  1.1336  0.8733 -3.0326
 3926TIP3    H235974   3.233   3.637  17.169  1.5316  0.5895  1.5639
 3927TIP3   OH235975   4.631   0.894  17.047 -0.0830 -0.2735  0.3867
 3927TIP3    H135976   4.659   0.838  16.975 -0.4117  0.8873 -0.6792
 3927TIP3    H235977   4.697   0.964  17.050 -1.0384  0.6726  0.0111
 3928TIP3   OH235978   0.889   6.686  18.982 -0.3411  0.3353  0.0720
 3928TIP3    H135979   0.929   6.608  18.945  0.1358  0.6260 -0.0368
 3928TIP3    H235980   0.961   6.733  19.023 -0.6420  0.6609  0.2357
 3929TIP3   OH235981   4.940   4.088  18.859  0.2306 -0.1744  0.5881
 3929TIP3    H135982   4.914   4.088  18.767  0.5954  0.2250  0.4830
 3929TIP3    H235983   4.865   4.051  18.905 -0.2921  0.4059  0.2203
 3930TIP3   OH235984   7.130   0.340  17.527 -0.4722 -0.3202 -0.2146
 3930TIP3    H135985   7.135   0.245  17.531 -0.1917 -0.2575  1.2901
 3930TIP3    H235986   7.204   0.365  17.470 -2.1220 -1.0860 -2.9083
 3931TIP3   OH235987   5.190   1.047  17.953 -0.3752 -0.5673  0.0140
 3931TIP3    H135988   5.170   1.114  18.018  0.8756 -0.4002  0.2391
 3931TIP3    H235989   5.151   1.081  17.872  0.9057  0.8415 -0.0563
 3932TIP3   OH235990   3.313   3.349  17.148 -0.5052  0.0334 -0.5288
 3932TIP3    H135991   3.306   3.438  17.114  0.4205  0.6329  0.7527
 3932TIP3    H235992   3.384   3.353  17.212 -0.0444 -1.7724 -0.8600
 3933TIP3   OH235993   4.901   4.757  17.221 -0.1952 -0.3024  0.8371
 3933TIP3    H135994   4.931   4.669  17.244  1.6769  0.3941  1.2579
 3933TIP3    H235995   4.897   4.804  17.304 -1.4808 -0.0395  0.6553
 3934TIP3   OH235996   5.546   2.123  17.994  0.0457 -0.5814 -0.2504
 3934TIP3    H135997   5.570   2.074  17.914  0.8981  0.7424 -0.8398
 3934TIP3    H235998   5.476   2.071  18.034  0.3545 -1.8480 -1.2812
 3935TIP3   OH235999   2.468   3.008  18.565 -0.4012  0.0852 -0.4415
 3935TIP3    H136000   2.379   3.016  18.531  0.4111  4.0713 -2.1426
 3935TIP3    H236001   2.466   3.056  18.648  0.0652 -0.3485 -0.1749
 3936TIP3   OH236002   6.734   0.410  16.966 -0.0049  0.4039 -0.4773
 3936TIP3    H136003   6.771   0.473  17.028 -2.1214  2.1631 -0.8791
 3936TIP3    H236004   6.639   0.424  16.971 -0.3092  0.0011 -3.4395
 3937TIP3   OH236005   0.857   2.470  17.906 -0.1953  0.1962 -0.2410
 3937TIP3    H136006   0.879   2.516  17.825  0.7767  1.7545  0.8472
 3937TIP3    H236007   0.923   2.401  17.913 -1.8121 -1.6685 -2.0120
 3938TIP3   OH236008   1.907   6.460  16.084  0.3032 -0.5596 -0.2890
 3938TIP3    H136009   1.993   6.470  16.126 -0.1521 -1.9886  1.1080
 3938TIP3    H236010   1.917   6.502  15.999  2.1146  0.0947  0.1856
 3939TIP3   OH236011   5.286   3.559  17.484  0.1093  0.3100  0.4563
 3939TIP3    H136012   5.326   3.566  17.571  0.1056  0.0055  0.4832
 3939TIP3    H236013   5.342   3.497  17.437  1.6702  2.3988 -0.6193
 3940TIP3   OH236014   4.010   4.747  18.275  0.4546 -0.0277 -0.0069
 3940TIP3    H136015   3.971   4.701  18.201  0.1972  1.6070 -0.9439
 3940TIP3    H236016   4.054   4.823  18.236  1.5420  0.1159  1.3801
 3941TIP3   OH236017   1.357   4.978  16.953  0.7228 -0.3449  0.2545
 3941TIP3    H136018   1.290   4.929  16.904  0.7907 -0.2026  0.0158
 3941TIP3    H236019   1.431   4.918  16.959  0.4881 -0.5963  0.7385
 3942TIP3   OH236020   5.605   2.121  16.981 -0.5468  0.3768  0.4231
 3942TIP3    H136021   5.527   2.089  17.027 -0.5834  0.4094  0.3852
 3942TIP3    H236022   5.570   2.166  16.904 -0.4312 -1.3561 -0.6876
 3943TIP3   OH236023   0.207   1.612  18.156  0.2964 -0.6882  0.1580
 3943TIP3    H136024   0.276   1.676  18.178 -0.7569  0.4192  0.3319
 3943TIP3    H236025   0.213   1.604  18.060 -1.3942  1.9189 -0.2669
 3944TIP3   OH236026   3.570   7.126  18.002 -0.3618 -0.3719 -0.5241
 3944TIP3    H136027   3.600   7.078  18.079  0.6391 -1.0903 -1.3256
 3944TIP3    H236028   3.635   7.105  17.935 -1.6530 -0.4232 -1.7954
 3945TIP3   OH236029   0.218   0.094  17.301 -0.1091 -0.4350 -0.6332
 3945TIP3    H136030   0.207   0.006  17.339 -1.8168  0.6877  1.7458
 3945TIP3    H236031   0.143   0.103  17.242  0.6140 -0.9042 -1.6437
 3946TIP3   OH236032   2.302   4.141  18.360 -0.0973 -0.3667  0.0163
 3946TIP3    H136033   2.395   4.121  18.369 -0.1013 -0.1216  0.6586
 3946TIP3    H236034   2.286   4.208  18.426 -0.6380 -0.0987 -0.3855
 3947TIP3   OH236035   3.629   0.855  17.505 -0.0683 -0.1403 -0.0491
 3947TIP3    H136036   3.595   0.910  17.435  0.7284  1.9227  1.0935
 3947TIP3    H236037   3.718   0.833  17.477  0.6757  1.6487  0.7520
 3948TIP3   OH236038   2.317   0.388  17.098  0.0268 -0.2026 -0.1088
 3948TIP3    H136039   2.408   0.415  17.085  0.3904 -2.2709 -2.8276
 3948TIP3    H236040   2.267   0.445  17.039 -0.1665 -0.3730 -0.1107
 3949TIP3   OH236041   7.466   0.489  16.661  0.0939 -1.0610  0.2526
 3949TIP3    H136042   7.549   0.468  16.618  1.0621 -0.0110  1.5444
 3949TIP3    H236043   7.402   0.430  16.620  1.6671 -2.6494 -0.0284
 3950TIP3   OH236044   0.439   4.167  16.688 -0.3953  0.7789 -0.3183
 3950TIP3    H136045   0.475   4.110  16.620 -1.4981  1.9036 -1.9240
 3950TIP3    H236046   0.472   4.254  16.666 -2.3836  1.4883 -0.6329
 3951TIP3   OH236047   3.562   2.555  18.606 -0.2284 -0.3610  0.4551
 3951TIP3    H136048   3.629   2.564  18.539  1.4099  0.6022  2.1337
 3951TIP3    H236049   3.500   2.626  18.589 -0.7826 -1.1471 -0.9919
 3952TIP3   OH236050   2.909   3.879  19.028 -0.6493  0.0504  1.0004
 3952TIP3    H136051   2.998   3.885  18.993 -0.9574  0.0051  0.1909
 3952TIP3    H236052   2.893   3.964  19.069 -0.1771  0.0016  1.2892
 3953TIP3   OH236053   1.647   5.080  17.743 -0.7607 -0.0039 -0.3472
 3953TIP3    H136054   1.729   5.077  17.791 -1.7093 -0.6495  1.3007
 3953TIP3    H236055   1.615   5.170  17.754 -1.6363 -0.4974  1.4595
 3954TIP3   OH236056   6.450   3.750  17.115 -0.2508 -0.2035  0.1980
 3954TIP3    H136057   6.382   3.699  17.159 -0.6672 -0.1456 -0.3726
 3954TIP3    H236058   6.515   3.685  17.088 -1.4633 -0.6522 -1.8063
 3955TIP3   OH236059   7.275   4.156  19.213 -0.3825  0.2715 -0.0791
 3955TIP3    H136060   7.189   4.183  19.245 -0.2265 -0.5955  1.1792
 3955TIP3    H236061   7.270   4.165  19.118 -2.3775 -1.1658 -0.1677
 3956TIP3   OH236062   2.698   4.495  15.829 -0.0947  0.1258  0.2606
 3956TIP3    H136063   2.662   4.581  15.806  2.5200  1.1702 -0.2739
 3956TIP3    H236064   2.793   4.507  15.826  0.3622 -2.6655  0.7339
 3957TIP3   OH236065   4.806   5.308  16.993 -0.1503 -0.1388 -0.0671
 3957TIP3    H136066   4.759   5.227  17.014 -0.3364  0.0051  0.0770
 3957TIP3    H236067   4.885   5.279  16.948 -0.4163 -0.3811 -0.3840
 3958TIP3   OH236068   0.023   6.229  15.904 -0.1153  0.3236 -0.5089
 3958TIP3    H136069  -0.017   6.211  15.819 -0.2772 -0.6317 -0.2379
 3958TIP3    H236070  -0.022   6.171  15.965  1.6680 -0.7958 -0.1853
 3959TIP3   OH236071   4.740   0.282  17.636  0.3320 -0.0646  0.8155
 3959TIP3    H136072   4.734   0.197  17.681  2.1804  0.3604  1.9720
 3959TIP3    H236073   4.809   0.269  17.570 -0.1528  0.2353  0.2440
 3960TIP3   OH236074   5.559   2.983  17.655  0.6480  0.1555 -0.2202
 3960TIP3    H136075   5.585   3.064  17.700  0.1912 -0.7227  1.7215
 3960TIP3    H236076   5.626   2.920  17.680 -0.1231 -0.5953 -0.0084
 3961TIP3   OH236077   6.836   0.889  19.202 -0.7301  0.3215 -0.2363
 3961TIP3    H136078   6.918   0.900  19.250  0.2656  0.9539 -1.9637
 3961TIP3    H236079   6.786   0.969  19.219  0.3076  1.2717 -1.4575
 3962TIP3   OH236080   0.001   3.936  17.535 -0.1703 -0.4732 -0.1812
 3962TIP3    H136081  -0.082   3.941  17.583  0.3216  0.6944  0.5733
 3962TIP3    H236082  -0.001   4.010  17.475  1.3231  1.0251  1.5116
 3963TIP3   OH236083   3.018   4.762  18.471  0.0808  0.0033  0.0853
 3963TIP3    H136084   3.072   4.824  18.421 -1.0831 -0.5072 -1.9234
 3963TIP3    H236085   3.078   4.691  18.492  0.6358  0.2736 -0.5302
 3964TIP3   OH236086   4.150   4.724  17.733 -0.0544 -0.3451 -0.2374
 3964TIP3    H136087   4.055   4.715  17.746 -0.1315 -1.3625 -1.3605
 3964TIP3    H236088   4.158   4.763  17.646  0.5676 -0.7161 -0.3457
 3965TIP3   OH236089   2.135   6.778  17.430 -0.0141 -0.6181  0.4047
 3965TIP3    H136090   2.228   6.781  17.454  0.0108 -0.5081  0.2982
 3965TIP3    H236091   2.133   6.730  17.347 -0.1257 -1.2006  0.7467
 3966TIP3   OH236092   1.761   0.324  16.838 -0.1714 -0.5659  0.0634
 3966TIP3    H136093   1.763   0.238  16.880 -1.0686 -0.4059  0.4704
 3966TIP3    H236094   1.718   0.309  16.754 -1.8360 -0.2660  0.8220
 3967TIP3   OH236095   3.066   5.753  18.368 -0.8757  0.8262  0.0969
 3967TIP3    H136096   3.052   5.781  18.277  0.8538  0.2081 -0.3993
 3967TIP3    H236097   3.056   5.832  18.419 -0.3571  1.4966 -0.8074
 3968TIP3   OH236098   0.774   5.521  17.639  0.1750 -0.4966  0.4449
 3968TIP3    H136099   0.701   5.549  17.694  0.5427 -0.3345  0.8473
 3968TIP3    H236100   0.842   5.587  17.653  0.2871 -0.4776 -0.1649
 3969TIP3   OH236101   4.509   0.342  16.747  0.3848 -0.0388  0.6527
 3969TIP3    H136102   4.534   0.410  16.685  0.3435 -0.3926  0.2396
 3969TIP3    H236103   4.581   0.338  16.809 -0.5059  1.7683  1.8764
 3970TIP3   OH236104   2.625   1.394  18.843 -0.1549 -0.7179 -0.5216
 3970TIP3    H136105   2.636   1.449  18.766  1.0731  0.7024  0.5941
 3970TIP3    H236106   2.649   1.451  18.917  0.0316 -2.4055  0.7884
 3971TIP3   OH236107   0.631   4.997  16.373  0.0357 -0.0286  0.1851
 3971TIP3    H136108   0.557   4.957  16.328  0.2055 -0.6119  0.4033
 3971TIP3    H236109   0.657   5.070  16.317  0.7470 -1.2113 -1.1218
 3972TIP3   OH236110   4.846   5.346  18.599  0.0485 -0.5062  1.0405
 3972TIP3    H136111   4.897   5.278  18.643  1.8590  1.2673  1.8361
 3972TIP3    H236112   4.898   5.425  18.608 -2.7824  1.4409  1.7464
 3973TIP3   OH236113   2.429   6.074  17.962 -0.5674  0.0975 -0.4765
 3973TIP3    H136114   2.433   6.135  17.888 -1.0966 -1.6565 -2.0402
 3973TIP3    H236115   2.336   6.053  17.970 -0.1955 -2.4344 -1.7338
 3974TIP3   OH236116   1.111   4.409  17.898 -0.0653  0.1489 -0.0692
 3974TIP3    H136117   1.178   4.407  17.966 -1.7299  0.3862  1.6332
 3974TIP3    H236118   1.110   4.319  17.864 -0.1055 -0.3220  1.1299
 3975TIP3   OH236119   5.455   5.510  17.799  0.2757  0.2597 -0.2766
 3975TIP3    H136120   5.498   5.527  17.883 -0.0148 -0.2693 -0.0180
 3975TIP3    H236121   5.526   5.478  17.742  0.5567  1.0284 -0.3684
 3976TIP3   OH236122   6.092   1.239  19.003  0.0318 -0.2432 -0.7035
 3976TIP3    H136123   6.060   1.322  19.039  2.0441 -1.0837  3.6770
 3976TIP3    H236124   6.013   1.186  18.993 -0.8329  0.3931  1.9415
 3977TIP3   OH236125   1.336   5.893  16.510  0.0296 -0.4396  0.3913
 3977TIP3    H136126   1.410   5.840  16.480  0.0402 -0.7185  0.9000
 3977TIP3    H236127   1.260   5.836  16.502  0.0426 -0.5461  0.9530
 3978TIP3   OH236128   2.512   7.348  18.250  0.2854 -0.1221 -0.0245
 3978TIP3    H136129   2.450   7.399  18.303  0.6018 -0.1952  0.4144
 3978TIP3    H236130   2.471   7.261  18.242 -0.6609  0.4013 -1.4679
 3979TIP3   OH236131   4.029   5.894  18.468  0.0652 -0.2742  0.3752
 3979TIP3    H136132   3.996   5.898  18.379  1.0708 -0.6485 -0.0327
 3979TIP3    H236133   4.032   5.986  18.497 -1.7191 -0.2619  0.6056
 3980TIP3   OH236134   3.676   3.234  16.989  0.0847  0.4955  0.1331
 3980TIP3    H136135   3.626   3.159  16.956  0.7777  0.1682 -0.2020
 3980TIP3    H236136   3.722   3.201  17.066  0.3187  0.6011  0.0404
 3981TIP3   OH236137   0.380   1.620  16.845 -0.2385 -0.1031 -0.0911
 3981TIP3    H136138   0.416   1.599  16.759 -1.7116 -2.0409 -0.3060
 3981TIP3    H236139   0.333   1.702  16.832  2.5268  1.6140 -0.1755
 3982TIP3   OH236140   3.259   6.840  17.266  0.0992  0.2424  0.2753
 3982TIP3    H136141   3.281   6.928  17.235  1.1496 -0.8814 -2.4486
 3982TIP3    H236142   3.338   6.809  17.310  1.0424 -0.5415 -1.8263
 3983TIP3   OH236143   2.250   6.340  18.482  0.2514  0.2010  0.7811
 3983TIP3    H136144   2.215   6.402  18.418 -0.2310 -0.6633  0.1762
 3983TIP3    H236145   2.207   6.364  18.564  0.4841  1.0054  0.6755
 3984TIP3   OH236146   5.159   2.699  16.931 -0.1331 -0.6995 -0.4986
 3984TIP3    H136147   5.134   2.606  16.927 -2.0324 -0.2881  0.3883
 3984TIP3    H236148   5.167   2.717  17.025  3.1940 -0.6191 -0.6880
 3985TIP3   OH236149   4.895   6.004  16.689 -0.1031 -0.3249 -0.2608
 3985TIP3    H136150   4.890   6.098  16.672  0.5971 -0.0704  0.8666
 3985TIP3    H236151   4.827   5.966  16.633  1.6790  0.5049 -3.1969
 3986TIP3   OH236152   7.010   6.595  18.093 -0.4720 -0.4539  0.5703
 3986TIP3    H136153   6.952   6.529  18.131 -1.5220  0.5803  0.8161
 3986TIP3    H236154   7.003   6.582  17.999  0.4179 -1.5869  0.6417
 3987TIP3   OH236155   3.376   2.694  18.122 -0.1188  0.4309  0.3614
 3987TIP3    H136156   3.431   2.619  18.145  0.0409  0.8284  1.3085
 3987TIP3    H236157   3.311   2.698  18.192 -0.0997  1.2031  0.3418
 3988TIP3   OH236158   3.357   1.709  17.806  0.1473  0.1339 -0.6026
 3988TIP3    H136159   3.447   1.736  17.790  0.8116 -1.7975 -0.4179
 3988TIP3    H236160   3.358   1.667  17.892 -1.3501  1.7197  0.2537
 3989TIP3   OH236161   5.051   4.578  17.841 -0.1636 -0.1412 -0.1289
 3989TIP3    H136162   5.133   4.542  17.806  0.7799  0.2522  1.5172
 3989TIP3    H236163   4.995   4.591  17.765  1.5260  0.1135 -1.3812
 3990TIP3   OH236164   2.509   1.941  17.456  0.5490 -0.3065 -0.0344
 3990TIP3    H136165   2.589   1.990  17.473  1.6731 -2.3524  0.9115
 3990TIP3    H236166   2.537   1.867  17.401 -0.7928 -0.7414 -0.1792
 3991TIP3   OH236167   3.277   0.353  17.980 -0.5842  0.0847 -0.0215
 3991TIP3    H136168   3.261   0.361  17.886  0.2037  0.7075 -0.1055
 3991TIP3    H236169   3.305   0.440  18.007  0.9659 -0.5253  0.4424
 3992TIP3   OH236170   3.755   4.767  18.710 -0.6505 -0.0322  0.1722
 3992TIP3    H136171   3.815   4.706  18.666 -0.1311 -0.2126  1.1079
 3992TIP3    H236172   3.781   4.853  18.678  2.3274  0.2781  2.9109
 3993TIP3   OH236173   0.643   5.647  17.850  0.7433  0.3916 -0.4742
 3993TIP3    H136174   0.600   5.715  17.798 -0.7985  0.2942  0.6029
 3993TIP3    H236175   0.620   5.667  17.941 -0.6841 -2.1094 -0.1743
 3994TIP3   OH236176   4.778   6.537  16.001  0.3605  0.0625 -0.2462
 3994TIP3    H136177   4.792   6.539  15.907  1.6698  1.2244 -0.0585
 3994TIP3    H236178   4.700   6.590  16.015 -0.7118 -1.3281 -0.7820
 3995TIP3   OH236179   5.698   2.914  17.297 -0.1248 -0.0441  0.2063
 3995TIP3    H136180   5.700   2.962  17.379  0.2664  0.5084 -0.1193
 3995TIP3    H236181   5.790   2.906  17.271 -0.1815 -0.9459  0.2361
 3996TIP3   OH236182   6.136   3.458  16.750 -0.9273 -0.2810  0.2741
 3996TIP3    H136183   6.134   3.513  16.829  0.0751 -0.4450  0.4300
 3996TIP3    H236184   6.229   3.447  16.731 -1.1528 -0.1110 -1.0363
 3997TIP3   OH236185   6.660   4.348  17.449 -0.5769 -0.0019  0.0246
 3997TIP3    H136186   6.706   4.269  17.476  0.6745  0.0733 -1.7113
 3997TIP3    H236187   6.574   4.318  17.420  0.0056 -0.7946 -0.9317
 3998TIP3   OH236188   5.978   3.403  17.295 -0.5430 -0.0393  1.0302
 3998TIP3    H136189   6.063   3.367  17.272 -1.8668 -1.5866 -2.2001
 3998TIP3    H236190   5.935   3.332  17.344 -1.7840 -1.6224 -2.0680
 3999TIP3   OH236191   5.765   6.419  17.111  0.0736  1.2107 -0.1262
 3999TIP3    H136192   5.787   6.328  17.092 -1.1004  1.3386 -2.5951
 3999TIP3    H236193   5.710   6.415  17.189 -0.4687 -0.3022 -0.5469
 4000TIP3   OH236194   3.654   5.632  16.575 -0.6661 -0.3261  0.5848
 4000TIP3    H136195   3.727   5.618  16.636 -1.9545 -1.3215  1.9667
 4000TIP3    H236196   3.665   5.563  16.510  0.8967  0.9317 -0.5527
 4001TIP3   OH236197   0.664   0.115  17.636 -0.2498  0.8675  0.3255
 4001TIP3    H136198   0.695   0.083  17.721 -0.2731  0.8492  0.3267
 4001TIP3    H236199   0.570   0.096  17.636  0.1080 -1.1732 -0.6221
 4002TIP3   OH236200   2.416   6.909  17.719  0.0057 -0.4758 -0.1133
 4002TIP3    H136201   2.339   6.854  17.735 -2.1097  2.3661  0.1990
 4002TIP3    H236202   2.464   6.908  17.802 -0.7685 -0.6817  0.3429
 4003TIP3   OH236203   0.800   0.133  18.203  0.2960 -0.5627 -0.6094
 4003TIP3    H136204   0.709   0.106  18.196 -0.6369  1.7241  1.4004
 4003TIP3    H236205   0.809   0.204  18.140  0.4059 -0.1382 -0.1190
 4004TIP3   OH236206   7.011   1.105  16.395  0.2478 -0.3007  0.2032
 4004TIP3    H136207   6.923   1.125  16.362  0.5023 -1.2464 -1.1194
 4004TIP3    H236208   6.996   1.043  16.466 -0.2812  1.4975  1.7688
 4005TIP3   OH236209   3.008   6.378  16.297  0.5575  0.2636  0.4657
 4005TIP3    H136210   3.047   6.291  16.311 -1.3730 -0.9020 -0.9648
 4005TIP3    H236211   3.065   6.419  16.231  0.6347 -0.5300  0.0259
 4006TIP3   OH236212   2.273   2.928  16.997 -0.1384  0.2950 -0.4030
 4006TIP3    H136213   2.207   2.898  16.935 -0.6523  1.3322 -0.3681
 4006TIP3    H236214   2.279   3.022  16.983  2.1002  0.1013 -1.1448
 4007TIP3   OH236215   5.075   1.166  17.720  0.0183  0.4068 -0.3353
 4007TIP3    H136216   5.090   1.178  17.626 -0.1521 -0.5487 -0.4907
 4007TIP3    H236217   4.984   1.190  17.733  0.2740  1.3758 -0.2563
 4008TIP3   OH236218   4.442   6.540  18.064 -0.0219  0.2154  0.1126
 4008TIP3    H136219   4.481   6.456  18.041 -0.0876 -0.1682  1.3320
 4008TIP3    H236220   4.380   6.559  17.992  0.2355 -0.6059 -0.3304
 4009TIP3   OH236221   0.302   0.478  18.910 -0.3743 -0.1368 -0.2129
 4009TIP3    H136222   0.349   0.560  18.926  0.1539 -0.6237  0.8706
 4009TIP3    H236223   0.282   0.479  18.817  0.2911  0.8785 -0.3563
 4010TIP3   OH236224   4.544   0.419  17.522  0.1846 -0.9965  0.2463
 4010TIP3    H136225   4.619   0.383  17.569  0.8125 -0.2695 -0.1906
 4010TIP3    H236226   4.581   0.456  17.442 -0.3507  1.1220  0.9267
 4011TIP3   OH236227   3.421   5.695  18.438  0.4910  0.0442  0.1077
 4011TIP3    H136228   3.510   5.730  18.442  0.9125 -1.1148  2.6567
 4011TIP3    H236229   3.365   5.769  18.463  0.8452  0.4243 -0.2126
 4012TIP3   OH236230   0.804   0.331  17.978 -0.1080  0.4006  0.4005
 4012TIP3    H136231   0.893   0.323  17.946  0.3136  0.8889  1.4172
 4012TIP3    H236232   0.751   0.346  17.899  0.6697 -0.0950 -0.2243
 4013TIP3   OH236233   2.311   0.073  17.161 -0.6070  0.2137  0.3483
 4013TIP3    H136234   2.354   0.052  17.078 -1.3868  0.2298 -0.0790
 4013TIP3    H236235   2.272   0.159  17.146 -0.1788  0.5212  0.9741
 4014TIP3   OH236236   0.783   7.142  16.700 -0.5412  0.0304 -0.2289
 4014TIP3    H136237   0.722   7.101  16.761  1.0182 -2.2354 -0.0649
 4014TIP3    H236238   0.728   7.175  16.629 -1.9655 -1.8534 -0.0606
 4015TIP3   OH236239   4.916   3.502  18.260 -0.2768 -0.9209  0.2829
 4015TIP3    H136240   5.011   3.487  18.256  0.0004  0.2795  1.6133
 4015TIP3    H236241   4.901   3.539  18.347 -1.6340  1.0615 -0.7099
 4016TIP3   OH236242   4.707   0.690  16.833 -0.1550 -0.0746  0.1929
 4016TIP3    H136243   4.675   0.659  16.749  0.2216 -0.8374  0.3280
 4016TIP3    H236244   4.696   0.616  16.893  0.5532  0.1071  0.5673
 4017TIP3   OH236245   7.225   2.223  18.772  0.0051  0.6964 -0.3898
 4017TIP3    H136246   7.299   2.270  18.810  0.0072 -0.3613  0.9788
 4017TIP3    H236247   7.155   2.289  18.765  0.1400  1.0152  1.0868
 4018TIP3   OH236248   1.069   1.522  17.574  0.1890 -0.0954  0.0343
 4018TIP3    H136249   0.978   1.494  17.571  0.1222 -0.5731  3.1182
 4018TIP3    H236250   1.065   1.617  17.565 -0.4564 -0.2280 -1.2306
 4019TIP3   OH236251   5.695   7.365  16.934  0.0432 -0.0528  0.1704
 4019TIP3    H136252   5.784   7.388  16.911  0.0662 -1.2591 -1.1424
 4019TIP3    H236253   5.703   7.284  16.984 -0.3365 -0.9444 -1.1341
 4020TIP3   OH236254   0.124   5.200  18.186 -0.2338  0.0744 -0.3450
 4020TIP3    H136255   0.149   5.107  18.178 -0.8371 -0.0480 -0.8362
 4020TIP3    H236256   0.060   5.213  18.117  1.1583  1.3178 -1.4669
 4021TIP3   OH236257   4.265   7.274  16.818  0.4831  0.1523 -0.1096
 4021TIP3    H136258   4.199   7.227  16.767  1.8425 -0.6674 -1.2063
 4021TIP3    H236259   4.347   7.258  16.771  1.4904  1.0358  1.2611
 4022TIP3   OH236260   2.317   6.111  16.831 -0.3433 -0.3151 -0.5821
 4022TIP3    H136261   2.384   6.058  16.874 -0.1438  1.2585  1.2404
 4022TIP3    H236262   2.246   6.051  16.813  0.7303 -1.6147 -0.6375
 4023TIP3   OH236263   6.719   0.684  19.085 -0.3114  0.5738 -0.7874
 4023TIP3    H136264   6.725   0.769  19.128 -0.9926  0.3228 -0.1839
 4023TIP3    H236265   6.788   0.631  19.125 -1.1644  0.2336  0.2547
 4024TIP3   OH236266   3.441   4.720  19.075 -0.0688 -0.4402 -0.2582
 4024TIP3    H136267   3.486   4.635  19.071 -0.1382 -0.5611  1.1234
 4024TIP3    H236268   3.404   4.732  18.987  0.7273 -1.3963 -0.7454
 4025TIP3   OH236269   4.967   2.085  17.270 -0.0949 -0.2241 -0.1884
 4025TIP3    H136270   4.943   2.035  17.348 -0.6788  0.9671  0.4234
 4025TIP3    H236271   4.913   2.165  17.275  0.2511  0.1166 -1.5289
 4026TIP3   OH236272   0.489   4.368  17.868  0.1287 -0.1465  0.1731
 4026TIP3    H136273   0.491   4.279  17.904 -1.7200 -0.4181 -0.3007
 4026TIP3    H236274   0.431   4.416  17.926  0.7471  0.6534  0.1509
 4027TIP3   OH236275   7.178   2.022  18.970 -0.0654  0.5003  0.5459
 4027TIP3    H136276   7.178   2.087  18.899  0.7967  0.9334  0.9320
 4027TIP3    H236277   7.270   2.009  18.990 -0.0926 -2.1542 -0.6897
 4028TIP3   OH236278   4.288   5.640  16.292  0.4535 -0.4454  0.0014
 4028TIP3    H136279   4.266   5.643  16.199 -0.8492  2.7996  0.2667
 4028TIP3    H236280   4.206   5.618  16.336  0.5726  0.0106  0.4647
 4029TIP3   OH236281   1.351   4.467  18.923  0.0679  0.2802 -0.7375
 4029TIP3    H136282   1.384   4.522  18.853 -0.2535  0.4531 -0.7526
 4029TIP3    H236283   1.315   4.528  18.987  1.7007  0.2155  0.2923
 4030TIP3   OH236284   3.718   1.446  17.078  0.1438 -0.0860  0.4054
 4030TIP3    H136285   3.655   1.449  17.150 -0.9163  2.1733 -0.4966
 4030TIP3    H236286   3.679   1.388  17.013 -0.3778  0.2428  0.4205
 4031TIP3   OH236287   4.159   3.237  17.920  0.5246 -0.3920 -0.3470
 4031TIP3    H136288   4.250   3.219  17.899  1.3429  2.1286  0.7166
 4031TIP3    H236289   4.118   3.254  17.835  1.5696  0.4870 -0.7077
 4032TIP3   OH236290   1.301   0.508  16.753  0.1514 -0.0588 -0.1816
 4032TIP3    H136291   1.364   0.477  16.819 -0.4844 -1.6676 -0.3029
 4032TIP3    H236292   1.344   0.585  16.714  1.4172 -0.2768  0.7045
 4033TIP3   OH236293   6.585   0.633  17.943 -0.7408  0.1843  0.3749
 4033TIP3    H136294   6.657   0.681  17.902 -0.2789  0.5138  1.5511
 4033TIP3    H236295   6.622   0.547  17.964 -1.0661 -0.0933 -0.1469
 4034TIP3   OH236296   7.080   6.870  18.008  0.0158  0.1375  0.5254
 4034TIP3    H136297   7.169   6.856  18.042  0.0646  0.2914  0.4633
 4034TIP3    H236298   7.027   6.805  18.053  0.4179 -0.9753 -0.5693
 4035TIP3   OH236299   1.763   0.755  18.382  0.0772  0.2143  0.0054
 4035TIP3    H136300   1.763   0.660  18.375 -2.2080  0.2056 -0.6841
 4035TIP3    H236301   1.799   0.786  18.299 -0.1554 -0.0304 -0.1850
 4036TIP3   OH236302   0.069   0.141  17.578 -0.0795  0.4612 -0.0831
 4036TIP3    H136303   0.118   0.110  17.654  1.1784 -0.7958 -1.3531
 4036TIP3    H236304   0.030   0.062  17.540 -1.1885  1.1482 -0.4328
 4037TIP3   OH236305   4.438   1.210  16.482 -0.3841 -0.2153  0.0636
 4037TIP3    H136306   4.494   1.288  16.481 -0.8028  0.1410  1.3535
 4037TIP3    H236307   4.443   1.175  16.394  1.8806 -0.2034  0.1303
 4038TIP3   OH236308   0.181   1.939  18.835  0.6108 -0.0315  0.1159
 4038TIP3    H136309   0.147   1.938  18.925 -0.8934 -2.4503 -0.3844
 4038TIP3    H236310   0.179   1.847  18.808  0.9548  0.6398 -2.4236
 4039TIP3   OH236311   6.610   3.034  17.225 -0.6036  0.2701 -0.3299
 4039TIP3    H136312   6.635   2.944  17.246 -1.1877  0.1144 -0.2653
 4039TIP3    H236313   6.594   3.033  17.131 -0.1033  0.4334 -0.4158
 4040TIP3   OH236314   2.802   5.849  17.933  0.6113  0.6419 -0.7753
 4040TIP3    H136315   2.867   5.858  18.003 -0.2327  0.3648  0.0647
 4040TIP3    H236316   2.817   5.925  17.876  0.7303  1.3486  0.1858
 4041TIP3   OH236317   6.287   0.084  18.120 -0.2970 -0.3631  0.6764
 4041TIP3    H136318   6.224   0.012  18.117 -0.7270 -0.0325  1.6221
 4041TIP3    H236319   6.265   0.133  18.199 -0.1962  0.9966 -0.1032
 4042TIP3   OH236320   6.492   4.627  18.790  0.1218 -0.3208  0.2961
 4042TIP3    H136321   6.512   4.535  18.807  0.0433 -0.7341 -1.6469
 4042TIP3    H236322   6.397   4.629  18.776  0.3123 -0.2479 -1.1793
 4043TIP3   OH236323   2.100   1.289  17.696  0.0350  0.0391  0.0775
 4043TIP3    H136324   2.022   1.234  17.689  0.3540 -0.6101  1.2982
 4043TIP3    H236325   2.069   1.378  17.681 -0.6854 -0.3496 -0.8130
 4044TIP3   OH236326   5.035   7.431  17.414 -0.5304 -0.2406  0.2557
 4044TIP3    H136327   5.065   7.442  17.504 -2.1714  0.2867  0.7831
 4044TIP3    H236328   4.940   7.418  17.422 -1.3239  3.2568 -1.5225
 4045TIP3   OH236329   1.594   3.331  17.740  0.8141 -0.7761 -0.2740
 4045TIP3    H136330   1.639   3.413  17.721  2.0989 -1.5342 -0.5788
 4045TIP3    H236331   1.644   3.264  17.694 -2.1170 -1.4142 -2.8622
 4046TIP3   OH236332   3.211   1.090  16.914  0.2624  0.1807  0.0635
 4046TIP3    H136333   3.304   1.084  16.935  0.2239 -0.5737  0.0527
 4046TIP3    H236334   3.196   1.018  16.853 -0.8083 -1.3003  1.9274
 4047TIP3   OH236335   3.387   7.140  17.818  0.2622  1.0928 -0.1515
 4047TIP3    H136336   3.380   7.235  17.809  0.6063  1.0303 -1.2046
 4047TIP3    H236337   3.468   7.126  17.868  2.2393  1.2736 -3.1031
 4048TIP3   OH236338   6.821   1.433  17.145  0.4034  0.2082  0.3321
 4048TIP3    H136339   6.875   1.455  17.069 -1.5653  2.7892 -0.4589
 4048TIP3    H236340   6.841   1.501  17.210 -0.2961 -0.0635  0.8557
 4049TIP3   OH236341   4.884   6.208  18.540 -0.4734  0.0545 -0.0578
 4049TIP3    H136342   4.933   6.271  18.593  0.4699 -1.7102  1.2893
 4049TIP3    H236343   4.805   6.190  18.591  0.2298 -1.3204  0.6228
 4050TIP3   OH236344   4.856   5.630  16.844 -0.5054 -0.5228  0.2049
 4050TIP3    H136345   4.928   5.689  16.825  0.0272 -1.6722 -1.6678
 4050TIP3    H236346   4.802   5.632  16.765 -0.8307 -1.9830  0.3598
 4051TIP3   OH236347   3.200   4.789  16.348 -0.3542 -0.2348 -0.0111
 4051TIP3    H136348   3.148   4.744  16.415  1.6471  0.1065  1.9082
 4051TIP3    H236349   3.245   4.720  16.301 -1.8813 -0.4873 -1.1683
 4052TIP3   OH236350   3.932   3.593  18.814  0.3458 -0.2861  0.1403
 4052TIP3    H136351   4.026   3.603  18.828  0.1543  0.4763  0.9450
 4052TIP3    H236352   3.919   3.618  18.722  0.7398  1.0444  0.4224
 4053TIP3   OH236353   2.554   3.246  17.035 -0.1118  0.2244 -0.3085
 4053TIP3    H136354   2.604   3.164  17.030  0.5911  0.4924  1.3323
 4053TIP3    H236355   2.485   3.237  16.970  0.7784 -1.0944 -1.1129
 4054TIP3   OH236356   3.923   0.347  17.054 -0.1489  0.1730 -0.2462
 4054TIP3    H136357   3.984   0.407  17.097  0.8877 -0.1494 -1.1897
 4054TIP3    H236358   3.977   0.270  17.033 -0.6211  0.2730 -1.9779
 4055TIP3   OH236359   2.748   0.886  17.319  0.4317  0.5393  0.2570
 4055TIP3    H136360   2.756   0.923  17.231 -1.5766  0.8993  0.1832
 4055TIP3    H236361   2.745   0.963  17.377  2.3278  0.2960  0.7367
 4056TIP3   OH236362   6.745   0.728  16.623  0.3712  0.1694  0.3784
 4056TIP3    H136363   6.659   0.752  16.656 -0.1612 -0.8416 -0.2566
 4056TIP3    H236364   6.754   0.775  16.541  0.4511  0.3111  0.4668
 4057TIP3   OH236365   3.324   4.291  17.110  0.4990  0.0388 -0.0503
 4057TIP3    H136366   3.396   4.337  17.067  0.8393 -1.0523 -0.7033
 4057TIP3    H236367   3.246   4.321  17.064  0.2392  2.6484  1.8578
 4058TIP3   OH236368   0.836   6.030  18.623 -0.8288 -0.5615  0.0128
 4058TIP3    H136369   0.792   5.951  18.593  1.5969 -0.4407 -4.7872
 4058TIP3    H236370   0.898   5.999  18.690  0.8850 -3.1054 -2.5268
 4059TIP3   OH236371   6.645   4.280  16.650  0.8053  0.7233 -0.0218
 4059TIP3    H136372   6.652   4.185  16.643 -1.3460  0.6560 -3.8119
 4059TIP3    H236373   6.736   4.311  16.643  1.4988 -1.0095  0.8326
 4060TIP3   OH236374   0.398   0.722  18.966  0.3474  0.8647  0.3148
 4060TIP3    H136375   0.445   0.802  18.991 -0.2515  0.7906  1.7430
 4060TIP3    H236376   0.330   0.712  19.032  0.5088 -0.9298  0.2490
 4061TIP3   OH236377   6.266   7.194  18.376  0.2015  0.2726 -0.8248
 4061TIP3    H136378   6.215   7.262  18.421  1.1211  0.3280  0.1797
 4061TIP3    H236379   6.200   7.131  18.346 -0.4762  0.2598  0.5774
 4062TIP3   OH236380   6.556   0.398  18.802  0.4887 -0.1319  0.2486
 4062TIP3    H136381   6.624   0.330  18.810  0.4624 -0.2074 -0.1643
 4062TIP3    H236382   6.604   0.480  18.805  0.4466 -0.1303  1.6284
 4063TIP3   OH236383   3.162   1.918  17.871  0.1527  0.2751 -0.0164
 4063TIP3    H136384   3.123   1.954  17.791  1.2264  0.7317 -0.3485
 4063TIP3    H236385   3.206   1.838  17.843  1.1437  0.8178 -0.0224
 4064TIP3   OH236386   2.666   3.456  18.489  0.0280  0.2269  0.0287
 4064TIP3    H136387   2.647   3.544  18.521 -0.2244  0.7860 -1.5708
 4064TIP3    H236388   2.762   3.452  18.485  0.0255  0.8631 -0.9901
 4065TIP3   OH236389   5.397   0.328  17.775 -0.9420 -0.1300 -0.3204
 4065TIP3    H136390   5.441   0.339  17.691 -0.0360 -0.5704  0.0831
 4065TIP3    H236391   5.435   0.396  17.831 -0.7164 -0.5608  0.0506
 4066TIP3   OH236392   3.730   7.406  17.318 -0.1535  0.0471 -0.0141
 4066TIP3    H136393   3.769   7.320  17.305 -1.5993 -1.1640  2.7550
 4066TIP3    H236394   3.636   7.392  17.306 -0.3459  1.3982 -0.2324
 4067TIP3   OH236395   7.430   6.735  16.790 -0.0587  0.1368 -0.3200
 4067TIP3    H136396   7.359   6.712  16.849  0.8538  0.0858  0.8107
 4067TIP3    H236397   7.479   6.653  16.777  0.1699  0.3063 -0.5522
 4068TIP3   OH236398   3.405   4.740  18.554 -0.3894  0.3019 -0.5135
 4068TIP3    H136399   3.462   4.708  18.484  1.2266 -0.5202  1.0811
 4068TIP3    H236400   3.422   4.834  18.557  1.7064 -0.0467  0.5378
 4069TIP3   OH236401   4.630   5.345  18.991 -0.0763  0.4831  0.9073
 4069TIP3    H136402   4.597   5.314  18.907  1.1663  0.6475  0.3245
 4069TIP3    H236403   4.626   5.269  19.049  1.2170 -0.2910  0.0237
 4070TIP3   OH236404   4.430   2.303  16.442  0.0209  0.5133 -0.2124
 4070TIP3    H136405   4.435   2.245  16.366 -0.3718 -1.2323  1.0243
 4070TIP3    H236406   4.405   2.388  16.406  0.7118 -0.0293 -2.1150
 4071TIP3   OH236407   1.734   0.569  17.803 -0.3612  0.0940  0.1816
 4071TIP3    H136408   1.818   0.597  17.840  0.4222 -0.2350 -1.2546
 4071TIP3    H236409   1.756   0.495  17.747 -1.4992  0.4409 -0.7708
 4072TIP3   OH236410   0.887   3.755  17.528 -0.2504  1.2664 -0.0667
 4072TIP3    H136411   0.815   3.780  17.471 -1.3492  1.1403  1.2280
 4072TIP3    H236412   0.949   3.829  17.522  0.2538  0.7560 -2.2820
 4073TIP3   OH236413   2.015   4.519  18.473 -0.4407 -0.3178 -0.6447
 4073TIP3    H136414   2.027   4.569  18.554 -0.4880  0.3554 -1.0445
 4073TIP3    H236415   2.043   4.579  18.404  0.4093 -1.1850 -1.0729
 4074TIP3   OH236416   7.222   0.119  17.141  0.3443 -0.3045 -0.2896
 4074TIP3    H136417   7.183   0.036  17.114  0.1232 -0.3508  0.1636
 4074TIP3    H236418   7.147   0.178  17.153  0.5856  0.5940 -2.6170
 4075TIP3   OH236419   4.521   6.647  16.851  0.5482  0.1426 -0.0675
 4075TIP3    H136420   4.455   6.717  16.850 -1.1749 -1.3849 -2.1840
 4075TIP3    H236421   4.470   6.566  16.852  2.4230 -1.1104 -0.7139
 4076TIP3   OH236422   4.478   5.224  16.918  0.1966 -0.5405  0.4176
 4076TIP3    H136423   4.440   5.194  16.835  0.2876  1.1700 -0.2846
 4076TIP3    H236424   4.563   5.180  16.923 -0.0449 -1.0842 -0.1186
 4077TIP3   OH236425   0.892   2.811  16.606 -0.3783  0.2081  0.3910
 4077TIP3    H136426   0.935   2.786  16.524 -0.6646 -2.1501  0.9013
 4077TIP3    H236427   0.828   2.878  16.580 -1.2252 -1.2493 -1.5366
 4078TIP3   OH236428   0.061   2.208  17.046 -0.3932  0.0925  0.2442
 4078TIP3    H136429   0.055   2.239  16.956  0.0923 -0.1466  0.1272
 4078TIP3    H236430   0.154   2.192  17.060 -0.3618  0.9053  1.0589
 4079TIP3   OH236431   1.855   4.766  17.807  0.1075  0.4222  0.1114
 4079TIP3    H136432   1.899   4.827  17.747  1.2714  0.8555  1.3533
 4079TIP3    H236433   1.835   4.690  17.753  1.6303  0.5757 -0.7223
 4080TIP3   OH236434   0.560   2.414  17.924  0.1046 -0.0783 -0.5364
 4080TIP3    H136435   0.489   2.473  17.952 -0.6536 -1.0801 -0.2660
 4080TIP3    H236436   0.637   2.471  17.916 -0.3335  0.7485  0.7899
 4081TIP3   OH236437   2.961   6.422  17.332  0.1747 -0.2776  0.2682
 4081TIP3    H136438   3.054   6.434  17.351  0.2765 -1.1714  0.3570
 4081TIP3    H236439   2.957   6.341  17.283 -0.3287  0.8536 -1.6723
 4082TIP3   OH236440   5.910   5.900  16.976 -0.1746 -0.0452 -0.3354
 4082TIP3    H136441   5.882   5.809  16.969 -1.8210  0.2452  1.5376
 4082TIP3    H236442   5.938   5.909  17.068 -1.1476  1.5919 -0.1669
 4083TIP3   OH236443   3.000   5.698  16.522  0.0788 -0.1434  0.0668
 4083TIP3    H136444   2.911   5.689  16.555  0.2956 -0.5278  0.5692
 4083TIP3    H236445   3.026   5.609  16.498  0.5378 -0.1313  0.4994
 4084TIP3   OH236446   2.827   3.335  17.438 -0.4949  0.3355  0.3151
 4084TIP3    H136447   2.918   3.354  17.460  0.0341 -1.8707  0.2671
 4084TIP3    H236448   2.800   3.272  17.505 -1.7089  0.2821 -0.2090
 4085TIP3   OH236449   3.543   2.765  17.223 -0.0140  0.1202 -0.4511
 4085TIP3    H136450   3.630   2.769  17.184  0.3244 -0.3739  0.2391
 4085TIP3    H236451   3.548   2.694  17.287 -1.1014 -0.3377 -0.8361
 4086TIP3   OH236452   5.241   2.723  16.419 -0.4579  0.4333 -0.2898
 4086TIP3    H136453   5.278   2.808  16.442 -0.3242  0.5291 -0.8303
 4086TIP3    H236454   5.188   2.740  16.340 -1.5734  0.2817  0.4024
 4087TIP3   OH236455   0.486   4.550  18.130  0.1601 -0.2624  0.7112
 4087TIP3    H136456   0.555   4.491  18.159 -0.7942 -2.5018 -1.2647
 4087TIP3    H236457   0.405   4.511  18.164 -0.3117  1.3859  1.5680
 4088TIP3   OH236458   4.343   2.654  16.512  0.7485 -0.0122  0.1152
 4088TIP3    H136459   4.361   2.629  16.421 -1.9693 -0.4475 -0.4046
 4088TIP3    H236460   4.404   2.725  16.530  2.3219 -0.8570 -1.5581
 4089TIP3   OH236461   0.091   2.623  16.475 -0.1428  0.0375  0.3500
 4089TIP3    H136462   0.107   2.597  16.384  1.2998 -1.6909  1.0286
 4089TIP3    H236463   0.174   2.605  16.520 -0.0071  3.1551  1.5752
 4090TIP3   OH236464   4.958   3.762  17.055 -0.2298 -0.2804  0.0228
 4090TIP3    H136465   4.918   3.754  16.968  0.5549 -0.4509 -0.3330
 4090TIP3    H236466   5.052   3.769  17.037 -0.2197  3.0610  0.6117
 4091TIP3   OH236467   7.014   0.222  18.102 -0.4560  0.1245  0.1096
 4091TIP3    H136468   7.019   0.231  18.007  0.3173 -0.8102  0.0496
 4091TIP3    H236469   7.035   0.130  18.119  0.7944  0.5774  1.2678
 4092TIP3   OH236470   4.954   0.696  17.840  0.0206 -0.2739 -0.4787
 4092TIP3    H136471   4.948   0.621  17.780  0.8053 -1.0022  0.3279
 4092TIP3    H236472   5.043   0.691  17.875  0.1027  1.0779 -0.4467
 4093TIP3   OH236473   5.612   3.194  16.367 -0.0879 -0.1712 -0.1689
 4093TIP3    H136474   5.666   3.123  16.402  0.3064 -0.5729 -1.5387
 4093TIP3    H236475   5.579   3.161  16.284 -1.3347  0.6046 -0.0164
 4094TIP3   OH236476   2.387   3.686  18.087 -0.1734 -0.1429 -0.4937
 4094TIP3    H136477   2.409   3.641  18.168  0.8068  0.4344 -0.4333
 4094TIP3    H236478   2.291   3.678  18.081 -0.0493 -2.0553 -0.4072
 4095TIP3   OH236479   0.768   3.241  16.648 -0.4470 -0.0385 -0.5210
 4095TIP3    H136480   0.755   3.155  16.609  0.2055 -0.7308  0.7320
 4095TIP3    H236481   0.858   3.264  16.624  0.3454 -0.9506  1.4009
 4096TIP3   OH236482   6.448   0.459  16.983 -0.0343  0.1762 -0.2394
 4096TIP3    H136483   6.377   0.433  17.043 -0.4050  0.3023 -0.6161
 4096TIP3    H236484   6.454   0.386  16.921  2.3878 -1.3994  1.6743
 4097TIP3   OH236485   2.126   4.981  16.617 -0.2122  0.0469 -0.3926
 4097TIP3    H136486   2.118   4.892  16.582 -0.6957 -0.4919  1.0043
 4097TIP3    H236487   2.177   5.028  16.551  0.2405 -1.3231 -1.0707
 4098TIP3   OH236488   6.131   4.086  18.211 -0.1466 -0.1814  0.1151
 4098TIP3    H136489   6.040   4.100  18.236  0.1773  0.0910  1.1971
 4098TIP3    H236490   6.144   4.141  18.134 -0.7480  0.2015  0.2836
 4099TIP3   OH236491   5.377   6.311  15.732 -0.0767  0.7671  0.5247
 4099TIP3    H136492   5.285   6.285  15.727  0.1459 -0.0374  0.5339
 4099TIP3    H236493   5.376   6.394  15.781 -0.8044  0.8240  0.4177
 4100TIP3   OH236494   7.432   2.996  17.750  0.2231  0.8500  0.2636
 4100TIP3    H136495   7.450   2.902  17.757 -3.2804  0.1727  3.5419
 4100TIP3    H236496   7.375   3.004  17.673 -0.8344 -0.0744  0.9123
 4101TIP3   OH236497   6.777   6.415  18.679  0.3589  0.0998 -0.7971
 4101TIP3    H136498   6.849   6.380  18.730  0.0947 -0.8606 -1.0732
 4101TIP3    H236499   6.805   6.504  18.655  0.1200  0.9362  1.7578
 4102TIP3   OH236500   4.672   0.585  17.319 -0.1649  0.0263  0.5303
 4102TIP3    H136501   4.749   0.577  17.263 -0.9196  0.4298 -0.6256
 4102TIP3    H236502   4.648   0.678  17.312  0.2131  0.2774  2.2368
 4103TIP3   OH236503   0.756   3.515  17.769 -0.4022  0.4445  0.4741
 4103TIP3    H136504   0.679   3.481  17.815  0.1534 -0.2921  0.9051
 4103TIP3    H236505   0.722   3.579  17.708 -1.4726 -0.6074 -0.0788
 4104TIP3   OH236506   1.640   2.587  18.047 -0.0399  0.2557  0.6044
 4104TIP3    H136507   1.734   2.597  18.031 -0.0678 -0.8918 -0.4069
 4104TIP3    H236508   1.603   2.674  18.027  0.3211 -0.2793 -3.1345
 4105TIP3   OH236509   4.120   4.327  16.389 -0.4526 -0.0756 -0.3759
 4105TIP3    H136510   4.042   4.380  16.405  0.7789  2.3942 -1.9023
 4105TIP3    H236511   4.146   4.349  16.300  2.3533 -0.2858  0.2888
 4106TIP3   OH236512   5.974   4.916  17.659 -0.1181  0.0755 -0.2374
 4106TIP3    H136513   6.065   4.896  17.679  0.8016  2.8628 -1.1533
 4106TIP3    H236514   5.949   4.981  17.724 -1.6281 -0.9406  0.2449
 4107TIP3   OH236515   3.966   7.462  16.718 -0.0860 -0.4125 -0.9538
 4107TIP3    H136516   4.048   7.453  16.670  0.7416 -0.6455  0.4441
 4107TIP3    H236517   3.985   7.525  16.788 -0.9062 -0.9191 -0.2444
 4108TIP3   OH236518   6.976   5.512  16.403 -0.1647 -0.2471  0.4470
 4108TIP3    H136519   7.038   5.476  16.339  0.3042  0.3020  0.5815
 4108TIP3    H236520   6.912   5.559  16.350  0.2080  0.1859  0.3710
 4109TIP3   OH236521   2.605   1.770  17.270 -0.3151 -0.6108 -0.1709
 4109TIP3    H136522   2.670   1.802  17.208  3.4150  0.7096  3.9344
 4109TIP3    H236523   2.640   1.685  17.299 -1.5097 -0.8107  0.7541
 4110TIP3   OH236524   5.373   4.399  17.498 -0.2610  0.1233 -0.0335
 4110TIP3    H136525   5.334   4.326  17.451 -1.7556  0.0446  1.2498
 4110TIP3    H236526   5.310   4.471  17.488  0.7960  0.9975 -0.5906
 4111TIP3   OH236527   3.893   2.410  18.173  0.3625  0.3663  0.9697
 4111TIP3    H136528   3.814   2.463  18.188 -0.6596 -0.5491 -0.9045
 4111TIP3    H236529   3.860   2.322  18.155  1.7468  0.1484 -0.7228
 4112TIP3   OH236530   0.044   2.889  16.435  1.0630 -0.7377 -0.1491
 4112TIP3    H136531   0.041   2.793  16.441  1.5077 -0.6937  1.0466
 4112TIP3    H236532   0.125   2.913  16.480  0.3980  0.2757  0.5444
 4113TIP3   OH236533   0.489   6.951  17.079  0.6652 -0.3462  0.3185
 4113TIP3    H136534   0.398   6.931  17.103  0.3206 -0.5362 -1.0503
 4113TIP3    H236535   0.524   6.999  17.154 -0.4291 -0.6654  1.0549
 4114TIP3   OH236536   3.782   6.170  18.500 -0.1555  0.2632 -0.3039
 4114TIP3    H136537   3.748   6.242  18.448  1.9517  1.8103  0.3491
 4114TIP3    H236538   3.771   6.093  18.444 -0.8417  1.3584 -1.7295
 4115TIP3   OH236539   6.986   7.454  18.663 -0.0042  0.2019  0.0126
 4115TIP3    H136540   7.063   7.399  18.671  0.3567  0.8071  1.0143
 4115TIP3    H236541   6.912   7.393  18.659  0.4688 -0.3659 -0.0802
 4116TIP3   OH236542   4.827   2.436  17.740  0.7155 -0.5716 -0.2458
 4116TIP3    H136543   4.781   2.358  17.709  0.5290 -0.9942  1.0269
 4116TIP3    H236544   4.756   2.496  17.765  0.8045 -1.2522  1.7923
 4117TIP3   OH236545   5.143   6.426  17.548 -0.1442 -0.2778 -0.1640
 4117TIP3    H136546   5.050   6.410  17.528 -0.3696 -2.3594  2.0605
 4117TIP3    H236547   5.157   6.381  17.631  2.8593  0.1223 -0.3604
 4118TIP3   OH236548   4.271   1.148  18.229 -0.2164  0.2291  0.4493
 4118TIP3    H136549   4.228   1.160  18.145 -0.6889 -0.0902  0.6425
 4118TIP3    H236550   4.338   1.218  18.232  1.3108 -1.0770 -1.1163
 4119TIP3   OH236551   2.800   3.729  16.878  0.2213  0.1270 -0.0787
 4119TIP3    H136552   2.760   3.666  16.818 -1.9377  1.3972 -0.0658
 4119TIP3    H236553   2.751   3.720  16.960 -0.3290  1.9559 -0.1549
 4120TIP3   OH236554   6.364   4.193  17.046 -0.0011 -0.4509 -0.3473
 4120TIP3    H136555   6.384   4.119  16.988  1.5578  1.2747 -2.1613
 4120TIP3    H236556   6.274   4.176  17.075  0.7342 -3.6889  0.4149
 4121TIP3   OH236557   5.663   4.057  17.924  0.0032  0.2132 -0.8515
 4121TIP3    H136558   5.743   4.066  17.872  0.9326 -2.9032 -0.1709
 4121TIP3    H236559   5.613   3.989  17.879 -2.0147  1.6629 -0.8975
 4122TIP3   OH236560   2.266   3.602  16.662 -0.3285 -0.0714  0.0903
 4122TIP3    H136561   2.338   3.659  16.635 -0.7287 -0.4038 -1.8249
 4122TIP3    H236562   2.187   3.650  16.638 -0.6706 -1.3911 -1.6454
 4123TIP3   OH236563   0.425   6.998  18.880  0.2109 -0.3825 -0.2403
 4123TIP3    H136564   0.457   6.914  18.850 -1.2139 -1.4665  1.0951
 4123TIP3    H236565   0.503   7.044  18.914  0.7732 -1.8360  0.5086
 4124TIP3   OH236566   5.052   3.823  16.640 -0.6190 -0.3018 -0.0708
 4124TIP3    H136567   5.013   3.739  16.616  1.4746 -1.1770 -0.6387
 4124TIP3    H236568   5.110   3.803  16.713 -0.6257  0.8048  0.2633
 4125TIP3   OH236569   2.805   6.955  17.427 -0.1750  0.2327 -0.3841
 4125TIP3    H136570   2.741   6.897  17.467  0.5371  0.5938  1.4145
 4125TIP3    H236571   2.876   6.897  17.398 -0.5181  0.0022 -0.7739
 4126TIP3   OH236572   0.732   0.669  18.850 -0.4784 -0.7136  0.1340
 4126TIP3    H136573   0.757   0.719  18.927  1.0522 -1.2215  0.0016
 4126TIP3    H236574   0.689   0.733  18.793 -0.7242 -0.1150  0.9797
 4127TIP3   OH236575   1.002   0.668  18.767 -0.0258 -0.2937  0.4870
 4127TIP3    H136576   1.052   0.750  18.773 -0.9229  0.4325 -1.1605
 4127TIP3    H236577   0.911   0.695  18.777 -0.2905 -1.2117  0.6494
 4128TIP3   OH236578   1.803   6.791  16.858 -0.6232  0.2363 -0.0432
 4128TIP3    H136579   1.812   6.789  16.763 -0.4709 -0.0023 -0.0243
 4128TIP3    H236580   1.893   6.793  16.891 -0.6755  0.3955  0.0952
 4129TIP3   OH236581   6.796   6.143  17.133  0.9717  0.0620  0.3259
 4129TIP3    H136582   6.748   6.095  17.066 -0.6837 -0.7062  1.9698
 4129TIP3    H236583   6.788   6.235  17.108 -1.7417  0.0015  0.6858
 4130TIP3   OH236584   2.575   5.437  18.085 -0.2217 -0.1274  0.0073
 4130TIP3    H136585   2.587   5.432  17.991  2.2372 -2.3214  0.3279
 4130TIP3    H236586   2.642   5.499  18.115 -1.5019  1.1785  0.3186
 4131TIP3   OH236587   7.252   5.724  18.411  0.0652 -0.4716 -0.4262
 4131TIP3    H136588   7.185   5.762  18.468 -0.0503 -1.0301 -0.1795
 4131TIP3    H236589   7.271   5.792  18.347 -1.4352 -0.6360 -1.0834
 4132TIP3   OH236590   3.705   4.770  17.632  0.6533 -0.0493 -0.4170
 4132TIP3    H136591   3.700   4.726  17.717  1.1465  0.2699 -0.2184
 4132TIP3    H236592   3.732   4.859  17.653 -0.5820  0.4441 -0.7890
 4133TIP3   OH236593   3.103   4.775  16.017  0.0841  0.5486 -0.2334
 4133TIP3    H136594   3.198   4.772  16.012  0.0238  0.1273 -1.5178
 4133TIP3    H236595   3.077   4.683  16.015 -0.2635  0.3831  3.6473
 4134TIP3   OH236596   5.916   1.487  17.843  0.8338  1.0163  0.1266
 4134TIP3    H136597   5.930   1.492  17.938 -1.3083  2.9604  0.4361
 4134TIP3    H236598   5.851   1.418  17.832  1.8211  0.0908 -0.0770
 4135TIP3   OH236599   7.276   2.980  17.496 -0.0724 -0.2667  0.0360
 4135TIP3    H136600   7.196   3.001  17.448 -0.4512  0.6174  1.0242
 4135TIP3    H236601   7.346   3.019  17.444 -0.6856  2.9297  1.3934
 4136TIP3   OH236602   6.084   7.100  17.001 -0.2089  0.0521 -0.1392
 4136TIP3    H136603   6.001   7.142  17.023  0.5531 -0.6138  5.7091
 4136TIP3    H236604   6.148   7.171  17.002  0.1939 -0.1581  3.5780
 4137TIP3   OH236605   5.856   7.285  18.377  0.5253 -0.2125  0.5135
 4137TIP3    H136606   5.794   7.218  18.405 -0.5763  1.4560  2.3673
 4137TIP3    H236607   5.804   7.344  18.322  1.7249 -1.3091 -1.9895
 4138TIP3   OH236608   6.536   7.022  16.689 -0.5975 -0.1764 -1.2700
 4138TIP3    H136609   6.518   7.089  16.755 -2.6114  0.1590 -2.1035
 4138TIP3    H236610   6.619   6.983  16.717 -0.2156  1.5301  0.1487
 4139TIP3   OH236611   3.474   1.119  16.857  0.3911  0.2842 -0.1474
 4139TIP3    H136612   3.532   1.194  16.860  1.1434 -0.3123  1.3168
 4139TIP3    H236613   3.521   1.054  16.804 -0.6936  1.1315 -2.2694
 4140TIP3   OH236614   2.895   2.234  16.768  0.0241 -0.2440  0.7354
 4140TIP3    H136615   2.948   2.266  16.695 -0.4573 -1.3856 -0.1406
 4140TIP3    H236616   2.876   2.312  16.820  0.9697  0.4741  0.0353
 4141TIP3   OH236617   7.439   2.570  18.195  0.5755  0.0928 -0.0601
 4141TIP3    H136618   7.432   2.628  18.270  1.2327  0.5338 -0.3256
 4141TIP3    H236619   7.520   2.520  18.211  0.3092 -0.3564 -0.1006
 4142TIP3   OH236620   5.296   1.515  18.562  1.0348  0.1362 -0.1508
 4142TIP3    H136621   5.239   1.582  18.601  0.6687 -0.4172  0.2840
 4142TIP3    H236622   5.380   1.560  18.550  1.3131  0.2127  1.7460
 4143TIP3   OH236623   1.732   0.586  16.873 -0.3495 -0.2299 -0.2712
 4143TIP3    H136624   1.766   0.497  16.864  1.2142  0.4861 -2.1168
 4143TIP3    H236625   1.685   0.602  16.791 -0.9480  0.5129  0.2117
 4144TIP3   OH236626   1.905   1.517  17.795  0.6694 -0.0281  0.1175
 4144TIP3    H136627   1.985   1.555  17.757  1.5515  0.9854  2.6805
 4144TIP3    H236628   1.870   1.461  17.727  3.4619 -0.3438 -1.2197
 4145TIP3   OH236629   4.984   3.088  18.213  0.0329  0.0688  0.0316
 4145TIP3    H136630   5.031   3.161  18.253  2.1576 -1.1988  0.0243
 4145TIP3    H236631   5.043   3.013  18.223 -0.9568 -1.1112 -2.1496
 4146TIP3   OH236632   2.462   4.245  17.645 -0.1337  0.1772 -0.1686
 4146TIP3    H136633   2.408   4.185  17.697  0.4103  0.6737  0.9926
 4146TIP3    H236634   2.546   4.248  17.691  0.5478  0.2249 -1.3784
 4147TIP3   OH236635   3.956   0.490  18.301 -0.4700 -0.0565  0.1201
 4147TIP3    H136636   4.021   0.422  18.318 -1.8061 -1.7655 -1.1853
 4147TIP3    H236637   3.988   0.535  18.223  0.2038  0.5855  0.7438
 4148TIP3   OH236638   2.742   5.645  16.568 -0.1119  0.2048  0.0374
 4148TIP3    H136639   2.703   5.567  16.606  0.1726 -1.3533 -2.6160
 4148TIP3    H236640   2.724   5.638  16.475  0.7164  2.8755 -0.4123
 4149TIP3   OH236641   4.762   0.280  16.942  0.5116 -0.0355  0.0025
 4149TIP3    H136642   4.729   0.200  16.983 -1.8591  1.4255  1.1901
 4149TIP3    H236643   4.772   0.258  16.850 -1.0984 -1.4158  0.1182
 4150TIP3   OH236644   0.040   7.076  16.535 -0.5527  0.0094 -0.2781
 4150TIP3    H136645   0.130   7.042  16.537 -0.4254  0.3928  0.5809
 4150TIP3    H236646   0.020   7.096  16.626 -0.9509  1.4036 -0.6586
 4151TIP3   OH236647   3.836   6.536  17.290  0.1287  0.6334  0.4878
 4151TIP3    H136648   3.802   6.621  17.317  1.3759  0.9238  1.2049
 4151TIP3    H236649   3.782   6.512  17.214 -1.3041  1.3042  1.2371
 4152TIP3   OH236650   3.157   5.151  18.764 -0.2484 -0.1041  0.2487
 4152TIP3    H136651   3.134   5.241  18.741 -0.4173  0.7675  3.3489
 4152TIP3    H236652   3.253   5.152  18.769 -0.2869  0.1673  1.0980
 4153TIP3   OH236653   5.018   0.420  18.414 -0.4788 -0.5140  0.3456
 4153TIP3    H136654   5.109   0.425  18.386 -0.2630  2.5600  1.2118
 4153TIP3    H236655   4.969   0.463  18.344 -1.0229 -0.4626  0.7514
 4154TIP3   OH236656   0.271   0.703  16.560 -1.3147  0.0293  0.4933
 4154TIP3    H136657   0.257   0.613  16.530  0.7084 -0.2548  0.2560
 4154TIP3    H236658   0.212   0.756  16.505 -1.4663 -0.9981 -0.3595
 4155TIP3   OH236659   5.096   7.383  16.847 -0.2897 -0.1488  0.0266
 4155TIP3    H136660   5.097   7.379  16.752 -2.4487 -0.1218 -0.0547
 4155TIP3    H236661   5.065   7.296  16.874  1.7140 -0.6880  0.8329
 4156TIP3   OH236662   3.860   2.485  17.616  0.2906 -0.3758  0.2168
 4156TIP3    H136663   3.952   2.502  17.598  0.1965 -0.7580 -0.6785
 4156TIP3    H236664   3.860   2.407  17.671  0.5559  0.4669  1.4556
 4157TIP3   OH236665   7.120   0.291  19.063  0.6313  0.5484  0.1234
 4157TIP3    H136666   7.196   0.268  19.008  0.2023  1.1196 -0.7347
 4157TIP3    H236667   7.149   0.368  19.112  0.1789  1.6486 -1.2468
 4158TIP3   OH236668   7.428   4.479  17.077 -0.2496  0.3071 -0.0733
 4158TIP3    H136669   7.467   4.522  17.001 -1.1832  0.3379 -0.5493
 4158TIP3    H236670   7.406   4.551  17.136  0.9402  0.2470  0.4612
 4159TIP3   OH236671   6.071   1.507  19.141 -0.0095  0.4876 -0.4953
 4159TIP3    H136672   6.009   1.452  19.188  0.2910  0.5429 -0.0238
 4159TIP3    H236673   6.043   1.597  19.159 -1.5080  0.5158 -2.6260
 4160TIP3   OH236674   5.585   3.750  18.173  0.0204 -0.0567  0.0114
 4160TIP3    H136675   5.567   3.667  18.218 -0.2407 -0.3268 -0.5891
 4160TIP3    H236676   5.499   3.782  18.146  0.0767  0.6298  0.6154
 4161TIP3   OH236677   2.754   6.720  16.622 -0.5065  0.2177  0.1271
 4161TIP3    H136678   2.798   6.749  16.702 -0.1025  1.0124 -0.3750
 4161TIP3    H236679   2.826   6.692  16.565 -0.7444  0.3490 -0.2328
 4162TIP3   OH236680   3.466   3.700  18.852  0.0396  0.2949 -0.1251
 4162TIP3    H136681   3.425   3.731  18.933  0.9730  0.8682  0.1466
 4162TIP3    H236682   3.476   3.606  18.864  1.0789  0.5110  0.8634
 4163TIP3   OH236683   4.643   3.180  17.277 -0.2667  0.0752 -0.4761
 4163TIP3    H136684   4.694   3.214  17.350 -0.2955 -0.7537 -0.0562
 4163TIP3    H236685   4.576   3.246  17.260  1.4045  1.5676 -1.5513
 4164TIP3   OH236686   0.146   6.630  16.274 -0.1775  0.0723  0.8781
 4164TIP3    H136687   0.142   6.707  16.331 -1.6687  0.2778  0.5297
 4164TIP3    H236688   0.223   6.646  16.219  0.7865  0.2685  2.2422
 4165TIP3   OH236689   7.417   5.597  16.028  0.1628  0.0090 -0.0340
 4165TIP3    H136690   7.426   5.689  16.049  0.0037 -0.0584  0.3406
 4165TIP3    H236691   7.381   5.595  15.939  0.3321  0.3028 -0.1086
 4166TIP3   OH236692   2.998   3.710  16.410 -0.2258  0.2282  0.7823
 4166TIP3    H136693   3.021   3.617  16.420 -0.6910  0.2419  2.2518
 4166TIP3    H236694   2.902   3.711  16.413 -0.2241  0.9792  3.7413
 4167TIP3   OH236695   2.080   4.911  18.842 -0.0556  0.3552  0.3838
 4167TIP3    H136696   2.091   5.000  18.877 -1.3551  0.7121 -0.0425
 4167TIP3    H236697   2.121   4.854  18.907 -1.0199  1.1183  1.7010
 4168TIP3   OH236698   1.770   2.128  16.982 -0.7795 -0.2590  0.1795
 4168TIP3    H136699   1.743   2.139  17.073  2.3609  0.2846  1.1420
 4168TIP3    H236700   1.808   2.212  16.957  0.0275 -0.9556 -1.0412
 4169TIP3   OH236701   4.509   1.759  17.009 -0.7637 -0.7771  0.5128
 4169TIP3    H136702   4.598   1.793  17.019  0.1188 -2.8256  0.0715
 4169TIP3    H236703   4.455   1.837  16.998  0.7088  0.6256  2.5069
 4170TIP3   OH236704   6.237   5.449  18.241  0.9603  0.8474  0.4312
 4170TIP3    H136705   6.165   5.420  18.297  1.5738 -0.7751  0.4572
 4170TIP3    H236706   6.209   5.533  18.207 -1.6653 -0.4243 -0.8358
 4171TIP3   OH236707   2.595   6.568  17.737 -0.3569  0.8678  0.3370
 4171TIP3    H136708   2.511   6.563  17.783 -0.9908 -0.4575 -0.8791
 4171TIP3    H236709   2.637   6.483  17.753 -0.7586  0.2273 -1.7440
 4172TIP3   OH236710   5.540   1.238  18.221  0.0770 -0.1715 -0.3689
 4172TIP3    H136711   5.552   1.170  18.288  0.4076  0.3210  0.0813
 4172TIP3    H236712   5.578   1.201  18.142  0.2300 -0.5246 -0.1344
 4173TIP3   OH236713   6.713   3.406  18.717 -0.3531 -0.0094 -0.6984
 4173TIP3    H136714   6.625   3.387  18.749 -0.9932  0.2145 -2.2751
 4173TIP3    H236715   6.701   3.471  18.648  1.3504  2.5904  1.2508
 4174TIP3   OH236716   6.169   6.675  16.926 -0.1545  0.0630 -0.2519
 4174TIP3    H136717   6.112   6.619  16.873  0.9047 -1.8899  0.5681
 4174TIP3    H236718   6.164   6.638  17.014  0.0621  1.7060  0.4851
 4175TIP3   OH236719   0.553   5.959  17.397  0.2305  0.6158  0.2678
 4175TIP3    H136720   0.594   6.036  17.437 -3.1126  1.2891  2.7957
 4175TIP3    H236721   0.540   5.984  17.305  0.3808  2.5412  0.7250
 4176TIP3   OH236722   6.890   3.003  18.889 -0.7793 -0.3059  0.3025
 4176TIP3    H136723   6.874   3.060  18.813 -0.6826 -0.8604 -0.1431
 4176TIP3    H236724   6.808   3.006  18.939 -0.4341  1.0257  0.8367
 4177TIP3   OH236725   3.466   3.639  16.790 -0.0982  0.4731 -0.2604
 4177TIP3    H136726   3.438   3.666  16.703 -2.4908  1.1135  0.6231
 4177TIP3    H236727   3.393   3.663  16.847  0.2756 -2.2564  1.5579
 4178TIP3   OH236728   6.694   2.730  18.918  0.7327 -0.1495 -0.4066
 4178TIP3    H136729   6.604   2.706  18.896  1.4613 -1.9396 -1.7237
 4178TIP3    H236730   6.691   2.825  18.933 -1.3474 -0.1702 -0.4036
 4179TIP3   OH236731   5.616   6.570  16.360  0.3580 -0.1728 -0.2002
 4179TIP3    H136732   5.702   6.596  16.325  0.4024  0.4279  0.3391
 4179TIP3    H236733   5.584   6.505  16.297  0.6808  0.4800 -1.0697
 4180TIP3   OH236734   5.086   2.791  18.285 -0.4416  0.5443  0.5561
 4180TIP3    H136735   5.135   2.763  18.208 -1.9723  0.3644 -0.4112
 4180TIP3    H236736   5.152   2.821  18.346  0.8822 -0.1089 -0.4993
 4181TIP3   OH236737   4.106   5.108  16.963  0.4563  0.9330  0.6154
 4181TIP3    H136738   4.011   5.104  16.952  0.3936  0.9655  1.1013
 4181TIP3    H236739   4.141   5.057  16.890  0.0780  1.1874  0.2542
 4182TIP3   OH236740   4.196   1.446  18.674  0.0965 -0.0769 -0.7604
 4182TIP3    H136741   4.135   1.376  18.700  1.6166 -1.5030 -0.8254
 4182TIP3    H236742   4.148   1.527  18.690 -0.9483 -1.0526  1.5111
 4183TIP3   OH236743   3.252   0.980  17.585 -0.2049 -0.3828 -0.5510
 4183TIP3    H136744   3.303   0.904  17.554  0.7493 -0.4334  1.0494
 4183TIP3    H236745   3.195   0.945  17.653  0.7187  0.4314  0.6734
 4184TIP3   OH236746   2.961   0.196  18.686  0.7071  0.6164  0.1446
 4184TIP3    H136747   3.009   0.216  18.767  1.0237  0.5575 -0.0258
 4184TIP3    H236748   2.906   0.272  18.672  0.8133  0.7245  0.3005
 4185TIP3   OH236749   2.908   0.833  16.902  0.2717  0.0503  0.0861
 4185TIP3    H136750   3.002   0.846  16.891 -0.1396  1.8985 -1.8844
 4185TIP3    H236751   2.876   0.812  16.814 -0.9650 -2.4857  1.0265
 4186TIP3   OH236752   6.398   4.530  17.824 -0.5983 -0.3617  0.1779
 4186TIP3    H136753   6.319   4.579  17.846  0.1554  0.8035  0.3790
 4186TIP3    H236754   6.470   4.584  17.857  0.3848 -0.4470 -1.6851
 4187TIP3   OH236755   6.668   4.912  17.006  0.1882  0.0312  0.1033
 4187TIP3    H136756   6.740   4.952  17.056  0.0471  1.3286 -0.6922
 4187TIP3    H236757   6.602   4.981  17.001  0.3000  0.0316 -2.0839
 4188TIP3   OH236758   0.064   7.173  18.230 -0.2195 -0.2074  0.2464
 4188TIP3    H136759   0.069   7.262  18.265  2.2771 -1.4366  3.5665
 4188TIP3    H236760   0.001   7.129  18.286 -1.3288 -0.6069 -1.2840
 4189TIP3   OH236761   3.338   0.241  18.682  0.1543  0.0985 -0.3242
 4189TIP3    H136762   3.409   0.208  18.627 -0.1400  0.4140 -0.8979
 4189TIP3    H236763   3.281   0.165  18.696  0.7096 -0.2123  0.3241
 4190TIP3   OH236764   3.278   0.329  17.103 -0.0481 -0.1533  0.1542
 4190TIP3    H136765   3.365   0.330  17.144  0.2769 -1.0818 -0.4698
 4190TIP3    H236766   3.219   0.364  17.170  0.4159 -1.9110  1.5672
 4191TIP3   OH236767   6.393   5.254  18.132 -0.2404 -0.0747  0.1734
 4191TIP3    H136768   6.335   5.320  18.170  0.8817  1.0968 -0.0727
 4191TIP3    H236769   6.446   5.224  18.206 -0.3388 -0.2505  0.1715
 4192TIP3   OH236770   0.573   2.018  19.189  0.3796  0.1458  0.2090
 4192TIP3    H136771   0.661   1.982  19.201 -0.0810 -0.5953  1.6674
 4192TIP3    H236772   0.571   2.096  19.243  0.6022  1.0665 -1.0554
 4193TIP3   OH236773   3.594   4.596  16.940 -0.4665  0.1627 -0.3315
 4193TIP3    H136774   3.559   4.544  16.868  0.4595 -0.3202 -0.4502
 4193TIP3    H236775   3.661   4.540  16.980  1.5309  1.7324 -1.3060
 4194TIP3   OH236776   1.667   1.777  16.636 -0.0038  0.1758  0.5838
 4194TIP3    H136777   1.611   1.854  16.639 -1.1887 -0.6440  0.1593
 4194TIP3    H236778   1.675   1.756  16.543 -0.1820 -0.5450  0.7187
 4195TIP3   OH236779   5.450   3.070  17.162 -0.3759  0.2120  0.1553
 4195TIP3    H136780   5.530   3.123  17.167  0.7496 -1.2811 -0.9732
 4195TIP3    H236781   5.467   2.995  17.219 -1.3999  0.3638  0.6859
 4196TIP3   OH236782   0.892   0.682  17.724 -0.2272 -0.4326 -0.2989
 4196TIP3    H136783   0.917   0.609  17.669 -0.3208 -0.3793 -0.4126
 4196TIP3    H236784   0.796   0.681  17.725 -0.4155  1.7243 -3.0953
 4197TIP3   OH236785   3.060   5.460  16.440 -0.1048 -0.5595  0.6103
 4197TIP3    H136786   3.073   5.376  16.484 -1.0757  0.1233  2.2871
 4197TIP3    H236787   2.986   5.445  16.381  0.3301 -1.1226  0.1980
 4198TIP3   OH236788   0.994   2.443  18.998 -0.0520 -0.0138  0.1159
 4198TIP3    H136789   0.978   2.435  18.904 -1.4243  1.2896  0.1964
 4198TIP3    H236790   1.051   2.520  19.006 -1.1157  0.7696  0.4114
 4199TIP3   OH236791   4.917   0.937  18.563 -0.5276 -0.6203  0.1001
 4199TIP3    H136792   4.830   0.933  18.602 -0.4509 -1.3160  0.2223
 4199TIP3    H236793   4.920   0.861  18.504 -0.1824 -0.3176 -0.2849
 4200TIP3   OH236794   3.043   6.795  17.428 -0.0166  0.4990  0.1112
 4200TIP3    H136795   3.073   6.706  17.449 -1.0374  0.7096  3.0043
 4200TIP3    H236796   3.116   6.835  17.382  1.6205 -0.9488  1.3019
 4201TIP3   OH236797   0.114   0.557  17.962 -0.5519 -0.3545  0.4211
 4201TIP3    H136798   0.075   0.494  17.901  0.0250 -2.8961  2.5126
 4201TIP3    H236799   0.208   0.538  17.958 -0.4682 -0.3170  1.7803
 4202TIP3   OH236800   0.021   3.065  19.017  0.1290 -0.4441 -0.1263
 4202TIP3    H136801   0.090   3.082  18.953  0.5216  0.2095  0.4629
 4202TIP3    H236802  -0.009   3.152  19.043 -0.5955 -0.7193 -0.0229
 4203TIP3   OH236803   5.881   1.052  16.756  0.1283 -0.0116  0.1094
 4203TIP3    H136804   5.929   1.100  16.823 -1.2564  0.9730  0.4353
 4203TIP3    H236805   5.826   0.990  16.805 -0.4248  0.2757 -0.1402
 4204TIP3   OH236806   3.172   6.590  17.612  0.3249 -0.2390 -0.0231
 4204TIP3    H136807   3.106   6.583  17.681 -1.2292  0.3506 -1.3705
 4204TIP3    H236808   3.255   6.593  17.658 -0.6516  0.1141  1.8087
 4205TIP3   OH236809   5.664   1.147  17.982  0.0794 -0.2954  0.4919
 4205TIP3    H136810   5.626   1.120  17.898 -0.4571 -0.1975  0.7004
 4205TIP3    H236811   5.745   1.098  17.988 -0.3383 -1.0156  0.3518
 4206TIP3   OH236812   4.047   2.854  17.671  0.1620  0.3293 -0.5507
 4206TIP3    H136813   4.086   2.794  17.734 -1.8399 -0.6342 -0.1297
 4206TIP3    H236814   4.077   2.825  17.586  1.8244  0.8068 -0.1542
 4207TIP3   OH236815   2.793   0.047  18.530  0.1259 -0.1879 -0.5149
 4207TIP3    H136816   2.846   0.118  18.566  0.9341 -0.5447 -0.9705
 4207TIP3    H236817   2.745   0.012  18.605  0.1844  0.4427 -0.1791
 4208TIP3   OH236818   6.495   1.950  16.276  0.0952 -0.5706 -0.0227
 4208TIP3    H136819   6.486   2.044  16.288 -1.6176 -0.6950 -0.0244
 4208TIP3    H236820   6.586   1.937  16.249  0.7900  0.9138  1.4054
 4209TIP3   OH236821   5.441   2.196  18.798 -0.2973  0.2967 -0.5181
 4209TIP3    H136822   5.501   2.271  18.796  1.5130 -1.0048  0.8103
 4209TIP3    H236823   5.359   2.229  18.763  0.5393  2.7905 -0.2954
 4210TIP3   OH236824   2.357   4.621  16.645 -0.2429 -0.1809 -0.0286
 4210TIP3    H136825   2.385   4.545  16.696 -1.8441 -0.4809  0.4676
 4210TIP3    H236826   2.261   4.618  16.649 -0.3793  3.1377  1.8753
 4211TIP3   OH236827   4.865   2.032  18.187 -0.1791  0.2343  0.2684
 4211TIP3    H136828   4.789   2.015  18.243  0.0478  0.8591  0.7849
 4211TIP3    H236829   4.912   2.103  18.232  1.5728 -1.1878  0.8164
 4212TIP3   OH236830   3.596   1.448  17.328  0.4954  0.0659 -0.3162
 4212TIP3    H136831   3.519   1.481  17.374 -1.5422 -0.4561 -3.0832
 4212TIP3    H236832   3.613   1.362  17.368 -0.4370  0.1364  0.2639
 4213TIP3   OH236833   6.704   3.362  17.770 -0.0582 -0.1708  0.3204
 4213TIP3    H136834   6.780   3.323  17.725 -0.2960 -0.9606  0.5869
 4213TIP3    H236835   6.742   3.410  17.843  0.1209 -2.2406  1.6953
 4214TIP3   OH236836   5.935   5.988  17.521 -0.1507  0.5495 -0.0196
 4214TIP3    H136837   6.019   5.948  17.542  0.1880  0.3144 -1.7232
 4214TIP3    H236838   5.930   6.064  17.579  0.9086  0.1877  0.5784
 4215TIP3   OH236839   2.919   5.735  17.318 -0.1883  0.2137 -0.8416
 4215TIP3    H136840   2.843   5.745  17.376  0.1147  0.9953 -0.5702
 4215TIP3    H236841   2.888   5.677  17.249 -1.4873  1.6073 -1.4812
 4216TIP3   OH236842   0.434   4.395  17.180  0.7030 -0.3073  0.2204
 4216TIP3    H136843   0.377   4.427  17.250  0.3897 -1.0812  0.3313
 4216TIP3    H236844   0.375   4.370  17.110  1.0002  0.1798 -0.2150
 4217TIP3   OH236845   6.389   3.340  16.642 -0.1371  0.3198 -0.6608
 4217TIP3    H136846   6.435   3.318  16.560  1.3578 -0.0037  0.2280
 4217TIP3    H236847   6.406   3.265  16.699  0.9004  1.5645  0.7595
 4218TIP3   OH236848   2.548   5.588  17.508  0.2571 -0.0880  0.4256
 4218TIP3    H136849   2.599   5.617  17.584  0.3090 -2.2195  1.2659
 4218TIP3    H236850   2.457   5.594  17.537  0.2409 -0.1835  0.3959
 4219TIP3   OH236851   0.200   4.153  16.793 -0.4366  0.2765 -0.2166
 4219TIP3    H136852   0.282   4.150  16.743  0.7913 -0.9800  1.7068
 4219TIP3    H236853   0.137   4.105  16.739  0.7196 -0.7037 -0.7396
 4220TIP3   OH236854   7.036   7.379  16.597 -0.3445  0.8581 -0.1525
 4220TIP3    H136855   7.085   7.424  16.666 -0.2754  1.1101 -0.3667
 4220TIP3    H236856   7.102   7.354  16.533 -0.2171 -0.5080  0.4614
 4221TIP3   OH236857   4.539   2.872  18.647 -0.3702  0.0755 -0.5970
 4221TIP3    H136858   4.524   2.962  18.618  0.4363  0.6763  0.7441
 4221TIP3    H236859   4.566   2.880  18.739  3.1747 -1.2090 -1.3489
 4222TIP3   OH236860   5.553   1.222  18.863  0.0079  0.4568  0.0813
 4222TIP3    H136861   5.496   1.239  18.788 -0.5995 -0.2209  0.3687
 4222TIP3    H236862   5.512   1.270  18.935  0.3779  0.7976  0.0665
 4223TIP3   OH236863   2.419   6.170  18.342 -0.6405 -0.6517 -0.3453
 4223TIP3    H136864   2.347   6.226  18.371 -1.0025 -0.4242 -1.6034
 4223TIP3    H236865   2.376   6.100  18.291  0.0399 -0.3156 -1.4108
 4224TIP3   OH236866   2.628   3.922  16.346  0.2181 -0.1836 -0.2476
 4224TIP3    H136867   2.565   3.885  16.285  0.1460 -0.4597 -0.0109
 4224TIP3    H236868   2.679   3.847  16.377  0.3088 -0.0376 -0.0352
 4225TIP3   OH236869   5.194   4.170  18.798  0.1415  0.0984 -0.6965
 4225TIP3    H136870   5.211   4.233  18.868 -0.2568  0.3534 -0.8291
 4225TIP3    H236871   5.107   4.135  18.817 -0.0936  0.3873 -1.2292
 4226TIP3   OH236872   2.698   2.405  15.800 -0.1846 -0.6400  0.3846
 4226TIP3    H136873   2.784   2.392  15.840 -0.4447  0.1337  1.2161
 4226TIP3    H236874   2.656   2.319  15.805  0.7790 -1.2140 -0.6695
 4227TIP3   OH236875   6.969   6.776  17.479 -0.1821  0.1254 -0.1594
 4227TIP3    H136876   6.926   6.815  17.555 -1.2893 -0.3409 -0.5282
 4227TIP3    H236877   7.042   6.835  17.460 -1.3355  1.5853 -0.2124
 4228TIP3   OH236878   6.187   4.493  16.449 -0.5947 -0.0806 -0.7346
 4228TIP3    H136879   6.266   4.464  16.404  0.3472 -1.2981  1.5409
 4228TIP3    H236880   6.210   4.580  16.483 -1.0441  0.5140 -1.9028
 4229TIP3   OH236881   3.014   4.024  16.870 -0.8180  0.0013  0.4160
 4229TIP3    H136882   3.095   3.975  16.860 -0.8172  0.1719 -0.4741
 4229TIP3    H236883   2.945   3.962  16.844 -0.7219  0.8512 -2.0418
 4230TIP3   OH236884   4.024   5.473  18.362  0.3021 -0.8165 -0.1631
 4230TIP3    H136885   3.936   5.436  18.363  0.2615 -0.8319  2.1945
 4230TIP3    H236886   4.012   5.563  18.395  1.0996 -0.6270 -0.3699
 4231TIP3   OH236887   2.348   2.489  18.062 -0.2353 -0.2743  0.0331
 4231TIP3    H136888   2.442   2.497  18.042 -0.4231 -2.2181 -1.9734
 4231TIP3    H236889   2.305   2.540  17.993 -0.6865 -0.8586 -0.1200
 4232TIP3   OH236890   0.845   6.734  18.315 -0.0313  0.4161 -0.0675
 4232TIP3    H136891   0.929   6.737  18.361 -0.3210 -1.5027  0.6506
 4232TIP3    H236892   0.865   6.694  18.230 -0.2116  0.0201  0.0769
 4233TIP3   OH236893   0.521   3.457  17.881 -0.7916  0.2072 -0.5778
 4233TIP3    H136894   0.469   3.380  17.858 -2.9788  0.0218  3.9054
 4233TIP3    H236895   0.472   3.531  17.845 -1.7357 -0.2317 -0.2183
 4234TIP3   OH236896   7.424   3.269  16.727 -0.2209 -0.3755 -0.2554
 4234TIP3    H136897   7.508   3.314  16.734  0.1167 -0.6634 -2.1021
 4234TIP3    H236898   7.380   3.286  16.811  2.3688 -1.6522  1.4898
 4235TIP3   OH236899   4.119   4.598  16.946  0.5375  0.6702 -0.7176
 4235TIP3    H136900   4.155   4.650  17.018 -1.9805  0.8362  0.5365
 4235TIP3    H236901   4.164   4.514  16.951  0.1776  0.5512  1.3305
 4236TIP3   OH236902   4.466   6.731  18.695  0.3599 -0.0299 -0.3533
 4236TIP3    H136903   4.525   6.785  18.748  0.5946 -0.1675 -0.4760
 4236TIP3    H236904   4.519   6.657  18.667  0.0257 -0.3461 -0.1579
 4237TIP3   OH236905   2.755   6.502  17.082 -0.0519  0.1393  0.4837
 4237TIP3    H136906   2.813   6.443  17.034  1.6090  0.9801  1.3357
 4237TIP3    H236907   2.676   6.507  17.030  0.8015 -0.7582 -0.9584
 4238TIP3   OH236908   3.071   6.458  17.841  0.2125 -0.2839  0.1172
 4238TIP3    H136909   3.024   6.418  17.913  0.5409  0.7755  0.9528
 4238TIP3    H236910   3.041   6.549  17.840  1.2545  0.0805 -0.1466
 4239TIP3   OH236911   3.750   2.012  16.822 -0.2976 -0.5808 -0.0849
 4239TIP3    H136912   3.694   2.047  16.891  0.1588 -0.3556  0.1759
 4239TIP3    H236913   3.728   1.919  16.817 -0.6893 -0.4941  0.0146
 4240TIP3   OH236914   5.578   2.855  18.675  0.1422  0.0136  0.0239
 4240TIP3    H136915   5.621   2.774  18.648  0.3083  0.9294 -2.8570
 4240TIP3    H236916   5.486   2.832  18.687 -0.0455 -0.4585 -1.9436
 4241TIP3   OH236917   2.217   4.337  16.440 -0.2183  0.1572 -0.1364
 4241TIP3    H136918   2.181   4.421  16.411  0.6016  0.4417 -0.3609
 4241TIP3    H236919   2.296   4.325  16.386 -0.0715 -0.5282  0.2234
 4242TIP3   OH236920   1.019   2.309  16.398  0.2547  0.1918  0.3567
 4242TIP3    H136921   1.021   2.402  16.420 -0.5431  0.7367 -1.6745
 4242TIP3    H236922   0.958   2.303  16.324 -0.3312 -2.0632  0.9415
 4243TIP3   OH236923   2.635   5.009  16.133 -0.4287 -0.0679 -0.2701
 4243TIP3    H136924   2.648   4.956  16.055  1.4987 -0.2461  0.1215
 4243TIP3    H236925   2.721   5.011  16.176 -0.9170  1.7364  0.7555
 4244TIP3   OH236926   2.550   3.405  17.474  0.4865 -0.4802 -0.6208
 4244TIP3    H136927   2.534   3.319  17.435  0.9030 -1.0601  0.4300
 4244TIP3    H236928   2.645   3.408  17.489  0.2875 -0.5496  0.8686
 4245TIP3   OH236929   3.744   3.305  17.345  0.1031 -0.2219 -0.2799
 4245TIP3    H136930   3.713   3.230  17.294 -1.3254 -0.3235  0.6981
 4245TIP3    H236931   3.762   3.373  17.279  2.9576 -1.8434 -1.3441
 4246TIP3   OH236932   2.725   2.892  17.665  0.1524  0.2711  0.1976
 4246TIP3    H136933   2.670   2.864  17.739 -0.4165  1.1267  0.1142
 4246TIP3    H236934   2.671   2.875  17.588  1.0802 -1.4288 -0.1174
 4247TIP3   OH236935   7.226   5.252  17.206 -0.1974  0.0726  0.3692
 4247TIP3    H136936   7.317   5.224  17.196 -1.0601 -2.8574 -0.3652
 4247TIP3    H236937   7.226   5.344  17.179  2.5490  0.2209  0.5780
 4248TIP3   OH236938   1.896   2.361  16.969  0.4132  0.0438  0.8293
 4248TIP3    H136939   1.976   2.317  16.998  0.4435 -0.5413 -0.0883
 4248TIP3    H236940   1.926   2.444  16.933  0.5230  0.1797  1.2364
 4249TIP3   OH236941   4.077   4.998  17.904 -0.4288 -0.1773 -0.2551
 4249TIP3    H136942   4.148   4.950  17.863 -0.0714 -1.1943  1.4654
 4249TIP3    H236943   4.075   5.082  17.858  2.9446  0.5504  0.6377
 4250TIP3   OH236944   5.813   4.753  18.550  0.2319 -0.3491  0.3925
 4250TIP3    H136945   5.811   4.765  18.455  2.2258 -0.4315  0.2973
 4250TIP3    H236946   5.721   4.751  18.576 -0.3456  0.8584 -1.3752
 4251TIP3   OH236947   2.496   7.463  16.662 -0.0538 -0.0166 -0.1807
 4251TIP3    H136948   2.417   7.465  16.608  0.1357  1.5027 -0.4520
 4251TIP3    H236949   2.563   7.504  16.607  0.0975  1.7562  1.2361
 4252TIP3   OH236950   3.407   1.359  17.871  0.3814 -0.3549  0.1354
 4252TIP3    H136951   3.385   1.267  17.854 -1.0587 -0.3840  1.9135
 4252TIP3    H236952   3.503   1.360  17.876  0.5140 -1.4466 -1.3494
 4253TIP3   OH236953   5.048   4.235  16.304 -0.2509  0.1118  0.3511
 4253TIP3    H136954   4.992   4.188  16.242  0.6173  0.6703 -0.9058
 4253TIP3    H236955   5.056   4.175  16.379 -2.7950  0.1908  0.7613
 4254TIP3   OH236956   1.044   5.280  17.995  0.0617  0.2257  0.0570
 4254TIP3    H136957   0.989   5.352  18.026 -0.4940 -0.0201 -0.3542
 4254TIP3    H236958   1.131   5.319  17.986 -0.3947  1.0609 -0.9255
 4255TIP3   OH236959   6.270   4.977  18.443 -0.7679 -0.3667 -0.0288
 4255TIP3    H136960   6.357   4.951  18.475 -0.2327  1.9787  0.5831
 4255TIP3    H236961   6.213   4.967  18.520 -0.9665 -1.3872 -0.2881
 4256TIP3   OH236962   3.467   4.246  18.572  0.1272 -0.0202  0.4451
 4256TIP3    H136963   3.520   4.166  18.571 -1.7188 -1.3271  1.6595
 4256TIP3    H236964   3.502   4.297  18.644  0.6989 -0.1551  0.2685
 4257TIP3   OH236965   6.014   6.607  17.282  1.0362 -0.0980  0.0461
 4257TIP3    H136966   6.039   6.694  17.252  0.4964 -0.3896 -1.3119
 4257TIP3    H236967   6.064   6.547  17.226  0.8615 -0.6673  0.4866
 4258TIP3   OH236968   2.495   6.815  18.384 -0.0817 -1.0218 -0.3545
 4258TIP3    H136969   2.473   6.879  18.317  0.4270 -0.2414  0.2011
 4258TIP3    H236970   2.483   6.862  18.467  2.3205 -0.9183  0.0213
 4259TIP3   OH236971   4.991   5.355  17.323  0.4986  0.2848 -0.6530
 4259TIP3    H136972   4.963   5.437  17.284  0.0611  0.0364 -0.8696
 4259TIP3    H236973   5.062   5.379  17.382  0.4508  0.8008 -0.8054
 4260TIP3   OH236974   1.930   2.806  17.214 -0.5284  0.1644 -0.4907
 4260TIP3    H136975   1.910   2.811  17.120  1.2585  0.5808 -0.8885
 4260TIP3    H236976   1.952   2.714  17.228  0.5608  0.3609 -0.8093
 4261TIP3   OH236977   1.070   0.700  18.451  0.1054  0.5632  0.1638
 4261TIP3    H136978   1.044   0.639  18.520  0.1882  0.9067  0.5029
 4261TIP3    H236979   1.160   0.725  18.475  0.5455 -0.1732 -0.6782
 4262TIP3   OH236980   0.371   2.722  17.564  0.3874 -0.5506  0.1215
 4262TIP3    H136981   0.435   2.683  17.623 -0.4520 -0.1406  1.3404
 4262TIP3    H236982   0.423   2.779  17.507  0.9750  1.2864  2.3215
 4263TIP3   OH236983   5.010   2.649  17.926  0.0861  0.6465 -0.4935
 4263TIP3    H136984   4.924   2.639  17.966  0.1177  0.9169 -0.3509
 4263TIP3    H236985   5.007   2.596  17.847 -0.0064  0.1724 -0.1741
 4264TIP3   OH236986   0.981   0.653  16.786 -0.2483  0.1325 -0.3530
 4264TIP3    H136987   0.898   0.611  16.762  0.1128 -0.8912  0.1317
 4264TIP3    H236988   0.985   0.647  16.881  1.0450 -1.1850 -0.4456
 4265TIP3   OH236989   3.533   1.510  16.231 -0.2777 -0.1367  0.1556
 4265TIP3    H136990   3.441   1.513  16.204 -0.3994  0.5856  0.6147
 4265TIP3    H236991   3.577   1.570  16.171 -0.5975  1.7060  1.6630
 4266TIP3   OH236992   1.509   4.600  16.480 -0.5461  0.2667 -0.7481
 4266TIP3    H136993   1.436   4.538  16.483 -1.0183  0.7952 -1.0300
 4266TIP3    H236994   1.520   4.619  16.387  0.5667 -0.5133 -0.7835
 4267TIP3   OH236995   6.006   5.381  18.405 -0.4013 -0.0399  0.0635
 4267TIP3    H136996   5.954   5.364  18.326 -4.1383  0.0631  2.2505
 4267TIP3    H236997   6.014   5.476  18.409  0.4296 -0.0798 -0.5377
 4268TIP3   OH236998   3.894   7.152  18.632  0.1494 -0.1463  0.0992
 4268TIP3    H136999   3.973   7.204  18.649 -0.4425  1.0574 -0.7179
 4268TIP3    H237000   3.927   7.075  18.585  0.7233  1.0542 -1.5856
 4269TIP3   OH237001   1.775   3.476  17.166  0.0116 -0.0432 -0.0729
 4269TIP3    H137002   1.774   3.475  17.261  2.7523  0.5734  0.0551
 4269TIP3    H237003   1.803   3.387  17.141  0.8803  0.2539 -0.1971
 4270TIP3   OH237004   5.867   1.431  18.789  0.5275 -0.0004  0.1621
 4270TIP3    H137005   5.797   1.496  18.792  0.4607 -0.0932  1.4405
 4270TIP3    H237006   5.832   1.356  18.837  1.1119 -0.4450 -0.0946
 4271TIP3   OH237007   6.885   0.557  16.044  0.2911  0.7930  0.5071
 4271TIP3    H137008   6.848   0.616  15.979 -0.6345  1.0682  1.2725
 4271TIP3    H237009   6.962   0.603  16.077  1.1593  0.3769 -0.8171
 4272TIP3   OH237010   5.276   1.220  17.466 -0.1883 -0.2302 -0.0639
 4272TIP3    H137011   5.334   1.296  17.461 -2.0371  1.2390 -0.3790
 4272TIP3    H237012   5.335   1.144  17.460  1.5914  1.1678 -1.4676
 4273TIP3   OH237013   6.371   2.285  17.951 -0.6971 -0.1869 -0.4455
 4273TIP3    H137014   6.444   2.334  17.912  0.3233  0.2030  1.7817
 4273TIP3    H237015   6.314   2.263  17.877  1.1501  0.3905 -2.1215
 4274TIP3   OH237016   0.946   0.486  16.453  0.2044  0.6308 -0.1724
 4274TIP3    H137017   0.885   0.452  16.388 -0.2502 -0.4455  0.7706
 4274TIP3    H237018   0.937   0.581  16.448 -2.1284  0.4973  0.4451
 4275TIP3   OH237019   2.255   0.892  17.890 -0.4817 -0.6335  0.8065
 4275TIP3    H137020   2.337   0.843  17.879  0.3340  0.8403 -0.1024
 4275TIP3    H237021   2.271   0.949  17.965  0.0529  0.9199 -0.4093
 4276TIP3   OH237022   5.746   2.298  17.956  0.2907  0.3313  0.1446
 4276TIP3    H137023   5.682   2.227  17.957 -2.0679  2.2913  2.1888
 4276TIP3    H237024   5.730   2.344  17.873  0.5339 -0.4290 -0.3264
 4277TIP3   OH237025   0.473   3.755  17.003 -0.2659  0.1525  0.0421
 4277TIP3    H137026   0.421   3.737  17.082  0.4046 -0.2660  0.4026
 4277TIP3    H237027   0.410   3.749  16.931 -1.2893  2.4539  0.6732
 4278TIP3   OH237028   2.676   6.266  18.387 -0.4692  0.4246  0.6744
 4278TIP3    H137029   2.680   6.353  18.347 -2.6996 -0.0351 -0.6692
 4278TIP3    H237030   2.585   6.239  18.379 -0.0444 -1.6430  1.9765
 4279TIP3   OH237031   7.302   2.157  16.560  0.6184 -0.0800 -0.5337
 4279TIP3    H137032   7.322   2.251  16.567 -2.4096  0.6248  0.2746
 4279TIP3    H237033   7.273   2.133  16.648  1.4342 -1.8333 -0.7143
 4280TIP3   OH237034   1.982   0.973  17.879 -0.0107 -0.0804 -0.2283
 4280TIP3    H137035   1.937   0.928  17.808 -0.3572  3.2844 -2.3355
 4280TIP3    H237036   2.070   0.934  17.880 -0.7653 -1.9141 -0.7316
 4281TIP3   OH237037   5.024   2.271  15.969  0.4163 -0.1160  0.1472
 4281TIP3    H137038   5.000   2.349  15.919 -0.0098 -0.0865  0.3894
 4281TIP3    H237039   4.993   2.198  15.914 -1.0502 -0.0601  0.8478
 4282TIP3   OH237040   1.884   6.045  16.766 -0.3092  0.1852 -1.0317
 4282TIP3    H137041   1.842   5.962  16.744 -0.6466 -0.3144  1.2875
 4282TIP3    H237042   1.972   6.021  16.795 -0.1363  0.7283 -1.0901
 4283TIP3   OH237043   4.269   0.424  17.212 -0.2786  0.9570  0.0657
 4283TIP3    H137044   4.244   0.478  17.287 -0.9004  0.5252  0.1751
 4283TIP3    H237045   4.251   0.334  17.239 -1.7561  0.8754 -1.0465
 4284TIP3   OH237046   6.532   1.837  16.876 -0.3238  0.4385 -0.2018
 4284TIP3    H137047   6.451   1.876  16.843  0.5524 -0.0737 -3.3518
 4284TIP3    H237048   6.522   1.743  16.857  0.3233  0.1108  0.9910
 4285TIP3   OH237049   6.695   2.842  18.509  0.2371 -0.1307  0.0080
 4285TIP3    H137050   6.767   2.811  18.564 -0.1816  0.7692  1.1014
 4285TIP3    H237051   6.631   2.770  18.511  0.1394 -0.0234  0.8706
 4286TIP3   OH237052   2.623   6.553  16.850 -0.4256  0.2237 -0.1996
 4286TIP3    H137053   2.655   6.586  16.766 -1.4879 -0.4057 -0.8820
 4286TIP3    H237054   2.562   6.483  16.826 -0.7699  0.0547  1.1031
 4287TIP3   OH237055   2.022   6.184  16.039  0.2696 -0.1708  0.3735
 4287TIP3    H137056   1.970   6.264  16.039  0.6667  0.1102 -0.9651
 4287TIP3    H237057   1.958   6.114  16.055 -0.3824  0.2564 -0.3115
 4288TIP3   OH237058   2.835   1.914  18.596  0.3043 -0.5214  0.4670
 4288TIP3    H137059   2.813   1.905  18.689 -1.3273  0.2343  0.2008
 4288TIP3    H237060   2.790   1.840  18.554  0.4505 -0.4621  0.2050
 4289TIP3   OH237061   4.372   1.772  17.461  0.4356 -0.2582 -0.0089
 4289TIP3    H137062   4.453   1.746  17.505  0.8379  0.5199 -0.2654
 4289TIP3    H237063   4.352   1.858  17.496  0.1578 -0.1035 -0.5379
 4290TIP3   OH237064   5.629   4.496  17.427 -0.1834  0.6546 -0.5655
 4290TIP3    H137065   5.686   4.420  17.418 -1.1002  0.0891 -1.8921
 4290TIP3    H237066   5.544   4.460  17.451 -0.8186  1.1558 -1.9235
 4291TIP3   OH237067   0.768   0.038  17.854  0.0318  0.0582 -0.3588
 4291TIP3    H137068   0.847   0.056  17.905  0.6757  2.1830 -1.9499
 4291TIP3    H237069   0.697   0.045  17.917  0.9483  0.3688  0.6855
 4292TIP3   OH237070   2.774   7.056  18.440  0.2777 -0.3889 -0.0846
 4292TIP3    H137071   2.810   7.112  18.509  0.6585 -0.5355 -0.1563
 4292TIP3    H237072   2.727   7.115  18.383  0.2336 -0.2181  0.1277
 4293TIP3   OH237073   4.577   7.326  17.965 -0.0635  0.0226  0.8366
 4293TIP3    H137074   4.545   7.349  18.052  1.0826 -1.2531  1.6615
 4293TIP3    H237075   4.647   7.262  17.983  0.5983  0.1908 -0.9979
 4294TIP3   OH237076   0.021   1.558  17.062  0.6864  0.0545 -0.0255
 4294TIP3    H137077   0.011   1.575  16.968  0.2644  0.0454  0.0171
 4294TIP3    H237078   0.090   1.492  17.067  0.3879 -0.2913 -0.3606
 4295TIP3   OH237079   2.853   1.248  18.484 -0.2700 -0.0467  0.1469
 4295TIP3    H137080   2.823   1.264  18.394  0.1273 -1.4024 -0.2604
 4295TIP3    H237081   2.926   1.308  18.496  1.5913 -1.8178 -1.5198
 4296TIP3   OH237082   6.291   0.497  18.502 -0.3451 -0.5594 -0.1902
 4296TIP3    H137083   6.203   0.473  18.471 -0.2669 -1.3110  0.1613
 4296TIP3    H237084   6.292   0.471  18.594  0.6038 -1.5519 -0.4643
 4297TIP3   OH237085   2.471   5.138  18.339 -0.5342  0.5744 -0.2336
 4297TIP3    H137086   2.496   5.193  18.413 -2.8144  3.4955 -1.3878
 4297TIP3    H237087   2.418   5.068  18.376 -0.1307  0.9232  1.0301
 4298TIP3   OH237088   4.166   5.985  16.658 -0.3920  0.1801 -0.0744
 4298TIP3    H137089   4.226   5.913  16.642  1.2458  1.6515 -0.8257
 4298TIP3    H237090   4.214   6.044  16.716 -1.4494  0.9870  0.0061
 4299TIP3   OH237091   3.300   3.416  18.540 -0.1946  0.1163  0.2776
 4299TIP3    H137092   3.319   3.504  18.574 -1.4151  1.0206 -1.2220
 4299TIP3    H237093   3.382   3.388  18.498 -0.2276  1.2542 -0.6157
 4300TIP3   OH237094   3.453   5.314  15.937  0.8271  0.1925  0.3482
 4300TIP3    H137095   3.475   5.271  16.019 -1.4948 -1.3382  0.2657
 4300TIP3    H237096   3.486   5.255  15.869  1.6820  0.8599  0.1690
 4301TIP3   OH237097   3.270   2.177  16.581 -0.1922 -0.3356 -0.3140
 4301TIP3    H137098   3.296   2.264  16.609 -0.4061  0.0260 -1.2187
 4301TIP3    H237099   3.329   2.118  16.629  0.9003  0.3635 -0.7702
 4302TIP3   OH237100   2.803   0.698  17.636 -0.0104  0.1627  0.0085
 4302TIP3    H137101   2.795   0.778  17.688  0.0809  0.6108 -0.6650
 4302TIP3    H237102   2.879   0.714  17.579 -0.8638  0.1766 -1.1499
 4303TIP3   OH237103   3.945   7.349  17.788 -0.1313  0.8494  0.4281
 4303TIP3    H137104   4.002   7.326  17.715  1.1103  0.3339  1.5065
 4303TIP3    H237105   3.968   7.440  17.809  0.7797  0.4520  1.2462
 4304TIP3   OH237106   6.515   2.288  16.863  0.0157  0.1999  0.1812
 4304TIP3    H137107   6.581   2.254  16.803 -0.7627  0.2833 -0.7584
 4304TIP3    H237108   6.501   2.378  16.835 -0.7717  0.0620  0.0968
 4305TIP3   OH237109   6.462   5.293  16.636  0.5526 -0.3409 -0.2056
 4305TIP3    H137110   6.384   5.291  16.691  2.1626  1.3758  2.3514
 4305TIP3    H237111   6.478   5.386  16.620  1.3754 -0.7152 -1.8391
 4306TIP3   OH237112   0.784   4.690  18.260  0.1053 -0.2582 -0.2791
 4306TIP3    H137113   0.729   4.642  18.199  1.9129 -1.3505 -1.1279
 4306TIP3    H237114   0.801   4.629  18.331  2.0188 -0.7902 -1.1288
 4307TIP3   OH237115   5.933   5.261  18.123 -0.2572 -0.4800 -0.1599
 4307TIP3    H137116   5.926   5.354  18.146  0.4747 -0.5624  0.4074
 4307TIP3    H237117   5.959   5.261  18.031 -0.4227 -0.1285 -0.2089
 4308TIP3   OH237118   2.796   3.952  18.432  0.1302 -0.0077  0.6706
 4308TIP3    H137119   2.884   3.956  18.396 -0.1055 -0.4825  0.0424
 4308TIP3    H237120   2.756   3.875  18.392 -0.2550 -0.3525  1.6809
 4309TIP3   OH237121   5.560   0.212  16.098 -0.6145  0.3077  0.3413
 4309TIP3    H137122   5.604   0.129  16.119  0.2207  0.4822 -0.6435
 4309TIP3    H237123   5.565   0.263  16.179  0.5263  0.1043  0.4089
 4310TIP3   OH237124   2.291   7.063  18.905  0.4034  0.3328 -0.0296
 4310TIP3    H137125   2.384   7.075  18.926  0.2357  1.0422  0.3380
 4310TIP3    H237126   2.289   6.988  18.846  1.0997 -0.3878  0.8422
 4311TIP3   OH237127   3.977   5.488  17.530 -0.1038  0.4765 -0.4109
 4311TIP3    H137128   3.995   5.536  17.610 -1.5316 -0.5951  0.5936
 4311TIP3    H237129   3.920   5.417  17.556  0.9466 -1.0663 -2.0622
 4312TIP3   OH237130   7.358   0.505  18.518  0.2675 -0.4019  0.4263
 4312TIP3    H137131   7.297   0.469  18.582  1.2098 -0.4537  1.3241
 4312TIP3    H237132   7.360   0.599  18.538  1.1021 -0.5216  0.9666
 4313TIP3   OH237133   5.905   6.009  17.242 -0.2709  0.0129  0.3183
 4313TIP3    H137134   5.909   5.914  17.231 -0.3749  0.0535 -0.0780
 4313TIP3    H237135   5.889   6.021  17.336 -0.9790 -0.3803  0.2609
 4314TIP3   OH237136   3.725   6.394  17.503 -0.0918 -0.4373  0.1314
 4314TIP3    H137137   3.748   6.427  17.417 -1.0244  1.4412  0.5538
 4314TIP3    H237138   3.729   6.299  17.494 -0.7608 -0.3110 -2.1450
 4315TIP3   OH237139   3.629   5.748  16.959 -0.2392  0.3419  0.2398
 4315TIP3    H137140   3.610   5.768  16.868 -1.1200  0.5826  0.4639
 4315TIP3    H237141   3.648   5.654  16.959  0.1574  0.4173 -0.2451
 4316TIP3   OH237142   2.377   4.641  18.373 -0.0508 -0.5184 -0.0966
 4316TIP3    H137143   2.462   4.638  18.417 -0.7704 -0.9673  1.3315
 4316TIP3    H237144   2.315   4.665  18.442 -1.3396 -2.0130 -0.6650
 4317TIP3   OH237145   4.543   5.934  19.202  0.0823 -0.2705  0.2867
 4317TIP3    H137146   4.535   5.998  19.273 -0.6234  0.2738 -0.2673
 4317TIP3    H237147   4.467   5.877  19.213  0.4788 -0.7595  0.5224
 4318TIP3   OH237148   7.050   0.314  17.818  0.1608 -0.1907 -0.0914
 4318TIP3    H137149   7.131   0.274  17.784  0.1914  0.3077 -0.6284
 4318TIP3    H237150   7.050   0.402  17.780  0.6405  0.7330  1.9339
 4319TIP3   OH237151   4.618   7.416  16.801  0.0921 -0.6929  0.5015
 4319TIP3    H137152   4.575   7.338  16.764  0.0297  0.5370 -2.2783
 4319TIP3    H237153   4.683   7.440  16.735 -1.5232  2.9737  0.0068
 4320TIP3   OH237154   3.114   0.619  17.038  0.0514 -0.8625  0.3271
 4320TIP3    H137155   3.195   0.605  16.988 -0.0687 -1.3827  0.2693
 4320TIP3    H237156   3.103   0.537  17.087 -0.3528 -0.7280  0.4554
 4321TIP3   OH237157   1.236   3.111  17.916 -0.2351  0.0074 -0.3064
 4321TIP3    H137158   1.158   3.127  17.970  0.8380  1.3727  0.9429
 4321TIP3    H237159   1.300   3.075  17.977 -0.1011 -1.8538 -1.4862
 4322TIP3   OH237160   0.332   2.196  17.128  0.0158 -0.3640  0.1793
 4322TIP3    H137161   0.359   2.110  17.161  0.1952 -0.1019  0.7394
 4322TIP3    H237162   0.412   2.235  17.093 -0.4039 -1.1329 -1.7441
 4323TIP3   OH237163   5.263   4.728  17.581  0.4772  0.4123 -0.9545
 4323TIP3    H137164   5.258   4.667  17.655 -0.1519  0.1330 -1.2183
 4323TIP3    H237165   5.216   4.806  17.611  0.8229  0.5709 -0.8142
 4324TIP3   OH237166   4.967   1.240  17.469 -0.6396  0.2955  0.0089
 4324TIP3    H137167   4.882   1.199  17.452 -1.2842  1.9258 -0.9134
 4324TIP3    H237168   5.019   1.223  17.390  0.6394 -2.2650  1.2524
 4325TIP3   OH237169   6.227   5.263  16.384  0.0231 -0.3181 -0.3330
 4325TIP3    H137170   6.223   5.270  16.288 -1.0020 -0.4177 -0.3123
 4325TIP3    H237171   6.272   5.343  16.411 -0.3513  0.0866 -0.8630
 4326TIP3   OH237172   3.457   6.433  18.574  0.5231 -0.0464 -0.0081
 4326TIP3    H137173   3.396   6.459  18.643 -0.1700  0.9753 -0.9560
 4326TIP3    H237174   3.519   6.375  18.617 -0.9418 -0.8914  1.0694
 4327TIP3   OH237175   2.611   2.137  16.790  0.1136 -0.1524 -0.0146
 4327TIP3    H137176   2.682   2.144  16.725 -0.8199  0.1600 -1.0285
 4327TIP3    H237177   2.535   2.108  16.739 -0.2077 -1.6926  1.2547
 4328TIP3   OH237178   1.684   6.563  18.261 -1.0826 -0.1121  0.5974
 4328TIP3    H137179   1.643   6.537  18.344 -1.2003  0.8458  0.8488
 4328TIP3    H237180   1.699   6.480  18.215 -1.6432 -0.6081  1.2800
 4329TIP3   OH237181   4.151   5.374  16.930 -0.3582 -0.3407  0.2726
 4329TIP3    H137182   4.120   5.283  16.933 -1.9689  0.1507 -0.3834
 4329TIP3    H237183   4.125   5.410  17.015  1.7864 -0.9085  1.2278
 4330TIP3   OH237184   4.660   3.747  17.945 -0.1194  0.0528  0.1042
 4330TIP3    H137185   4.734   3.766  18.003  0.0049  0.3701 -0.1582
 4330TIP3    H237186   4.586   3.735  18.005 -0.2864  1.7337  0.2804
 4331TIP3   OH237187   5.502   3.579  18.580  0.0499 -0.6914  0.4340
 4331TIP3    H137188   5.412   3.609  18.592 -0.4247 -1.8717  0.0451
 4331TIP3    H237189   5.548   3.607  18.659 -0.6792 -0.1265  0.6587
 4332TIP3   OH237190   0.759   0.446  15.918  0.1182 -0.1098 -0.1872
 4332TIP3    H137191   0.676   0.476  15.880 -0.5588  0.4163  1.6167
 4332TIP3    H237192   0.819   0.441  15.843 -1.6414 -0.9515 -1.5971
 4333TIP3   OH237193   2.083   6.857  19.048  0.3089  0.2930  0.8663
 4333TIP3    H137194   2.076   6.772  19.005 -1.0210  1.6276 -1.8227
 4333TIP3    H237195   2.149   6.904  18.998 -1.9028  2.2152 -0.4871
 4334TIP3   OH237196   5.736   1.443  18.329  0.2444  0.2915  0.0268
 4334TIP3    H137197   5.743   1.357  18.287  0.8440  0.7600 -0.8608
 4334TIP3    H237198   5.764   1.428  18.419  1.0238 -0.3135 -0.3060
 4335TIP3   OH237199   7.426   2.059  16.072  1.1217  0.5458 -0.1526
 4335TIP3    H137200   7.452   1.968  16.086 -1.8288 -0.6986 -1.9144
 4335TIP3    H237201   7.410   2.066  15.978 -0.9682  2.1552  0.2311
 4336TIP3   OH237202   3.494   5.840  16.443 -0.0552  0.2535 -0.0010
 4336TIP3    H137203   3.404   5.862  16.462 -0.4458 -0.3664 -1.0342
 4336TIP3    H237204   3.500   5.843  16.347  1.5880  2.4112  0.0948
 4337TIP3   OH237205   3.154   2.153  16.986 -0.5528 -0.4213  0.0321
 4337TIP3    H137206   3.134   2.088  16.919 -1.1934 -2.9038  2.4253
 4337TIP3    H237207   3.243   2.183  16.966  1.0391 -4.3261  0.3826
 4338TIP3   OH237208   5.504   5.638  15.967 -0.0735  0.1051 -0.0430
 4338TIP3    H137209   5.494   5.560  15.913 -1.4864  0.1197  0.1402
 4338TIP3    H237210   5.590   5.628  16.008 -0.1485 -1.2683 -0.1579
 4339TIP3   OH237211   0.577   5.910  18.336 -0.2526 -0.0649 -0.6021
 4339TIP3    H137212   0.632   5.911  18.414  0.4098 -0.2574 -1.0651
 4339TIP3    H237213   0.488   5.904  18.370  0.1160 -1.8964  0.1173
 4340TIP3   OH237214   6.729   1.174  16.302  0.0893  0.0702  0.0430
 4340TIP3    H137215   6.723   1.268  16.283 -0.7772  0.0486  0.1844
 4340TIP3    H237216   6.652   1.136  16.261  1.0736 -0.7779 -1.0714
 4341TIP3   OH237217   4.967   3.769  16.296 -0.0205  0.6026 -0.4157
 4341TIP3    H137218   4.947   3.682  16.260  0.2757  0.4752 -0.2770
 4341TIP3    H237219   5.047   3.756  16.346  0.1107  0.9931 -0.5226
 4342TIP3   OH237220   2.935   0.303  17.551 -0.5918  0.7611  0.0457
 4342TIP3    H137221   2.896   0.312  17.464  1.6925 -0.7081 -1.2337
 4342TIP3    H237222   2.869   0.259  17.603 -1.2987 -0.1267 -1.5385
 4343TIP3   OH237223   4.980   1.905  16.772 -0.2210 -0.2819 -0.0323
 4343TIP3    H137224   4.994   1.853  16.851  2.5388 -1.3010 -1.0362
 4343TIP3    H237225   4.925   1.850  16.716  1.9368 -1.9184 -0.7183
 4344TIP3   OH237226   1.081   1.262  18.550  0.0377  0.1058  1.0969
 4344TIP3    H137227   1.016   1.258  18.480  1.1871  3.5207 -0.3868
 4344TIP3    H237228   1.051   1.332  18.608  0.9382 -0.2487  2.0472
 4345TIP3   OH237229   1.174   2.630  16.495  0.0890  0.1858  0.1382
 4345TIP3    H137230   1.192   2.698  16.430 -0.7014  0.5045  0.2412
 4345TIP3    H237231   1.081   2.612  16.485  0.4869 -1.6826 -0.6398
 4346TIP3   OH237232   2.883   5.154  17.299  0.2349  0.2098  0.3786
 4346TIP3    H137233   2.793   5.136  17.272 -0.2646  1.4020  1.1749
 4346TIP3    H237234   2.875   5.195  17.385  1.3987  2.3505 -0.4441
 4347TIP3   OH237235   2.771   0.746  16.693  0.4639 -0.6213  0.8674
 4347TIP3    H137236   2.751   0.813  16.627 -1.0722  1.3459  3.1949
 4347TIP3    H237237   2.720   0.670  16.666  1.3332 -0.5512 -1.1934
 4348TIP3   OH237238   0.622   2.089  17.787 -0.1634 -0.1299 -0.6498
 4348TIP3    H137239   0.677   2.018  17.820  0.3192 -0.2872 -1.7787
 4348TIP3    H237240   0.651   2.103  17.697 -0.5385  1.2150 -0.5855
 4349TIP3   OH237241   2.415   3.352  18.598 -0.1212 -0.1788  0.5578
 4349TIP3    H137242   2.490   3.366  18.541  0.6959  1.1570  1.8838
 4349TIP3    H237243   2.379   3.440  18.612 -1.3346 -0.6783  0.7571
 4350TIP3   OH237244   1.245   4.774  16.022  0.0225  0.1866 -0.6496
 4350TIP3    H137245   1.280   4.802  16.106  1.3084 -0.0656 -1.0710
 4350TIP3    H237246   1.230   4.680  16.033  0.4330  0.1033 -0.7662
 4351TIP3   OH237247   3.740   4.951  17.876 -0.1602  0.4754 -0.7812
 4351TIP3    H137248   3.808   4.987  17.818  2.7220  0.0499  2.0599
 4351TIP3    H237249   3.682   5.025  17.893  0.7539  1.4326 -1.6705
 4352TIP3   OH237250   7.207   7.197  17.866  0.5301 -0.2199  0.0600
 4352TIP3    H137251   7.141   7.136  17.900  0.8656  0.3639  1.8678
 4352TIP3    H237252   7.157   7.255  17.808 -0.2609 -0.7172  0.2195
 4353TIP3   OH237253   3.182   5.655  17.454 -0.3121 -0.2589 -0.5916
 4353TIP3    H137254   3.230   5.665  17.372  0.4876 -0.3849 -0.1463
 4353TIP3    H237255   3.091   5.675  17.431 -0.1062 -0.3352 -1.5126
 4354TIP3   OH237256   4.603   5.273  18.734 -0.0162 -0.0008 -0.3410
 4354TIP3    H137257   4.653   5.328  18.673 -1.1482  0.9714 -0.4254
 4354TIP3    H237258   4.514   5.273  18.699 -0.1264 -1.6512 -0.1588
 4355TIP3   OH237259   0.237   0.691  18.377  0.1454 -0.4313 -0.3912
 4355TIP3    H137260   0.177   0.673  18.304  0.3180 -0.2300 -0.5866
 4355TIP3    H237261   0.324   0.680  18.339  0.2852  1.6159 -0.7539
 4356TIP3   OH237262   7.387   0.664  19.187  0.4888 -0.1345  0.1421
 4356TIP3    H137263   7.293   0.674  19.170  0.7214 -0.4129 -1.4856
 4356TIP3    H237264   7.418   0.605  19.118  1.6960 -0.8316  1.2309
 4357TIP3   OH237265   1.969   7.279  16.946  0.6330  0.3289 -0.1531
 4357TIP3    H137266   1.966   7.370  16.917  3.1733  1.7229  3.3215
 4357TIP3    H237267   1.880   7.261  16.976  0.9742  3.7291  3.9780
 4358TIP3   OH237268   6.263   0.250  17.895  0.0609  0.5523 -0.1028
 4358TIP3    H137269   6.295   0.245  17.985  0.9194 -0.2349 -0.4371
 4358TIP3    H237270   6.183   0.199  17.895  1.0213 -1.0050 -0.1727
 4359TIP3   OH237271   3.808   4.775  17.127 -0.2339 -0.0848 -0.0230
 4359TIP3    H137272   3.826   4.860  17.169  2.7258 -0.7144  0.1918
 4359TIP3    H237273   3.825   4.791  17.034 -1.3819 -0.0437 -0.2344
 4360TIP3   OH237274   5.898   4.084  17.772 -0.7669 -0.3559 -0.0964
 4360TIP3    H137275   5.919   4.047  17.686 -0.8259  0.1168 -0.3165
 4360TIP3    H237276   5.893   4.178  17.757  0.0242 -0.1908  0.5893
 4361TIP3   OH237277   3.407   1.482  17.533  0.1208  0.2985  0.0638
 4361TIP3    H137278   3.390   1.388  17.535  1.9242 -0.1519 -1.7248
 4361TIP3    H237279   3.442   1.503  17.619  0.7019 -0.8984  0.1283
 4362TIP3   OH237280   1.570   0.812  15.885  0.2903  0.2604  0.0209
 4362TIP3    H137281   1.629   0.738  15.875 -0.4805 -0.3871  0.1409
 4362TIP3    H237282   1.489   0.773  15.917 -0.6892  0.9298 -1.5344
 4363TIP3   OH237283   4.384   6.067  16.801 -0.1578  0.5235  0.1957
 4363TIP3    H137284   4.390   6.148  16.750 -1.4440  0.2062 -0.5214
 4363TIP3    H237285   4.394   6.094  16.892  0.1293  1.3868 -0.0845
 4364TIP3   OH237286   6.766   4.108  17.507 -0.2867 -0.0410 -0.4424
 4364TIP3    H137287   6.793   4.041  17.444 -0.1379  0.8275 -1.3334
 4364TIP3    H237288   6.750   4.060  17.588 -0.8583 -1.2443 -1.2399
 4365TIP3   OH237289   1.275   4.302  18.528  0.0513 -0.4904  0.1195
 4365TIP3    H137290   1.246   4.346  18.608 -2.5982 -1.1878 -0.3626
 4365TIP3    H237291   1.291   4.372  18.466 -2.3478 -0.0621 -0.0863
 4366TIP3   OH237292   1.847   5.236  17.313 -0.2941  0.3165 -0.0331
 4366TIP3    H137293   1.932   5.206  17.284  0.4370  2.4287 -0.2880
 4366TIP3    H237294   1.850   5.230  17.408  0.2552  0.5946 -0.0282
 4367TIP3   OH237295   4.479   6.287  17.940  0.0469  0.0855 -0.3957
 4367TIP3    H137296   4.496   6.288  17.846 -1.5807 -0.2754 -0.7330
 4367TIP3    H237297   4.383   6.282  17.946  0.1791 -1.2284  1.2590
 4368TIP3   OH237298   6.406   2.589  18.865  0.4036  0.8055 -0.5115
 4368TIP3    H137299   6.317   2.585  18.900  0.4626  1.9746 -0.2111
 4368TIP3    H237300   6.457   2.532  18.922 -0.2677 -0.4514 -1.1050
 4369TIP3   OH237301   3.408   2.396  17.860 -0.4722 -0.1534 -0.5364
 4369TIP3    H137302   3.342   2.413  17.792 -0.5776  0.1735 -0.3565
 4369TIP3    H237303   3.361   2.348  17.928 -0.9972  1.5747  0.3906
 4370TIP3   OH237304   0.355   3.852  17.949  0.3737 -0.7194  0.2369
 4370TIP3    H137305   0.268   3.845  17.908  0.4566 -0.0560 -0.0701
 4370TIP3    H237306   0.351   3.792  18.023 -0.6645 -0.0505  0.7571
 4371TIP3   OH237307   6.347   6.758  18.620 -1.2022  0.0342 -0.1174
 4371TIP3    H137308   6.435   6.745  18.656 -0.9519 -0.5008 -0.8949
 4371TIP3    H237309   6.359   6.755  18.526 -2.0230  0.2376 -0.2347
 4372TIP3   OH237310   1.638   1.961  17.663  0.3584  0.3294 -0.3646
 4372TIP3    H137311   1.658   1.925  17.749 -1.4455  0.9259  0.3477
 4372TIP3    H237312   1.718   1.949  17.613  1.4850  0.0708  1.4254
 4373TIP3   OH237313   5.096   0.242  16.644 -0.6780  0.1723  0.3988
 4373TIP3    H137314   5.149   0.162  16.644 -0.1791  0.4629 -1.7276
 4373TIP3    H237315   5.127   0.291  16.720  2.7536  0.7113 -1.1554
 4374TIP3   OH237316   2.735   5.623  18.294  0.5280 -0.1259 -0.1428
 4374TIP3    H137317   2.688   5.675  18.228  0.1628 -0.6122 -0.2749
 4374TIP3    H237318   2.808   5.584  18.245 -0.0843 -0.9611 -0.4062
 4375TIP3   OH237319   2.689   1.361  17.895  0.0745  0.0220  0.2366
 4375TIP3    H137320   2.719   1.451  17.881  2.3776 -0.6080  0.7248
 4375TIP3    H237321   2.712   1.342  17.986 -1.2450 -0.7929  0.4296
 4376TIP3   OH237322   6.742   4.268  16.001 -0.2522 -0.0531 -0.0444
 4376TIP3    H137323   6.705   4.354  16.021 -0.7800 -0.7436  2.1966
 4376TIP3    H237324   6.667   4.215  15.973 -0.5963 -0.7283  2.0058
 4377TIP3   OH237325   4.456   1.424  18.827 -0.1428  0.3597  0.0240
 4377TIP3    H137326   4.374   1.420  18.778  0.1410 -0.5955 -0.4009
 4377TIP3    H237327   4.478   1.332  18.846  0.7679  0.6007  0.2227
 4378TIP3   OH237328   2.676   2.262  17.306 -0.7412 -0.0820  0.5106
 4378TIP3    H137329   2.660   2.229  17.218 -1.4020 -0.7265  0.8612
 4378TIP3    H237330   2.705   2.352  17.294  1.4881 -0.8662 -0.5126
 4379TIP3   OH237331   7.078   0.584  17.727  0.0373 -0.0847  0.4248
 4379TIP3    H137332   7.120   0.589  17.641 -1.1512  1.1013 -0.1000
 4379TIP3    H237333   7.109   0.661  17.774 -0.5190  0.0866  0.5130
 4380TIP3   OH237334   0.814   1.439  17.534  0.5207  0.2379  0.4545
 4380TIP3    H137335   0.768   1.363  17.499 -0.7712  0.5055  1.4919
 4380TIP3    H237336   0.745   1.502  17.556  1.3638  0.7121  1.9328
 4381TIP3   OH237337   2.412   5.194  16.906 -0.1548 -0.1314 -0.2532
 4381TIP3    H137338   2.483   5.183  16.969  1.5880  0.9931 -1.9078
 4381TIP3    H237339   2.365   5.110  16.908 -0.6099  0.0558  2.9098
 4382TIP3   OH237340   3.421   4.395  16.490  0.2604 -0.2709  0.4104
 4382TIP3    H137341   3.383   4.325  16.437  1.4203 -0.9232  0.4037
 4382TIP3    H237342   3.449   4.351  16.570 -0.3017  0.4698  1.0307
 4383TIP3   OH237343   6.020   5.325  16.538 -0.0352 -0.1470 -0.0435
 4383TIP3    H137344   6.090   5.312  16.475  0.0129 -0.6887  0.1217
 4383TIP3    H237345   5.979   5.239  16.547 -0.1362 -0.0397  0.5532
 4384TIP3   OH237346   7.404   3.044  18.705 -0.2019 -0.2282 -0.1245
 4384TIP3    H137347   7.420   3.129  18.746 -0.7956 -0.1161 -0.1091
 4384TIP3    H237348   7.339   3.002  18.762 -1.4198  0.1356 -1.1912
 4385TIP3   OH237349   2.319   7.467  18.869 -0.6956  0.2745 -0.6199
 4385TIP3    H137350   2.384   7.457  18.938 -0.5713 -0.4409 -0.8310
 4385TIP3    H237351   2.241   7.499  18.914 -0.4559  0.3222 -0.2342
 4386TIP3   OH237352   4.532   0.954  18.025  0.0613  0.2028  0.4119
 4386TIP3    H137353   4.508   0.879  18.080 -0.0624 -0.4231 -0.4729
 4386TIP3    H237354   4.612   0.927  17.981 -0.3201  0.3316 -0.3850
 4387TIP3   OH237355   0.538   6.308  17.613  0.2039  0.0445 -0.5246
 4387TIP3    H137356   0.463   6.314  17.554  0.0098 -0.6895 -0.3657
 4387TIP3    H237357   0.608   6.270  17.559  0.2654  0.1221 -0.4994
 4388TIP3   OH237358   6.821   3.041  17.753 -0.3461 -0.1098  0.1849
 4388TIP3    H137359   6.811   3.023  17.659  0.5680 -0.0974  0.0778
 4388TIP3    H237360   6.855   2.959  17.789  0.1273  0.1592  0.3541
 4389TIP3   OH237361   4.611   1.018  16.606 -0.0051  0.1846 -0.2262
 4389TIP3    H137362   4.544   1.059  16.551 -0.0671  1.0128  0.4523
 4389TIP3    H237363   4.563   0.959  16.664  0.0777 -0.8331 -1.1565
 4390TIP3   OH237364   0.802   4.836  17.749  0.2246 -0.2444  0.5670
 4390TIP3    H137365   0.863   4.901  17.785  0.1862 -0.0367  0.2577
 4390TIP3    H237366   0.792   4.861  17.657  0.2482 -0.7171  0.4336
 4391TIP3   OH237367   1.533   1.816  16.089 -0.3815  0.5195  0.2884
 4391TIP3    H137368   1.501   1.746  16.146 -0.2389  1.5046  1.6280
 4391TIP3    H237369   1.609   1.778  16.045 -0.3752 -0.2101  0.9057
 4392TIP3   OH237370   6.049   4.358  18.738 -0.0280 -0.1214  0.0454
 4392TIP3    H137371   5.976   4.337  18.681 -0.6139 -0.7844  1.0033
 4392TIP3    H237372   6.063   4.452  18.726 -2.7877  0.6188  1.7758
 4393TIP3   OH237373   5.868   3.545  16.727  0.3472 -0.1907 -0.7959
 4393TIP3    H137374   5.864   3.578  16.637 -0.8392  1.4030 -0.1985
 4393TIP3    H237375   5.954   3.503  16.734  0.8200  0.4603 -2.3871
 4394TIP3   OH237376   6.059   1.141  17.417  0.0755 -0.2299  0.2379
 4394TIP3    H137377   6.057   1.097  17.503 -2.6641 -0.2483  0.2580
 4394TIP3    H237378   6.063   1.234  17.438 -2.7342 -0.1003  0.5618
 4395TIP3   OH237379   3.479   3.293  18.131 -0.0110 -0.5730 -0.0145
 4395TIP3    H137380   3.445   3.329  18.049 -0.3191 -2.0672 -0.5712
 4395TIP3    H237381   3.435   3.343  18.199  0.0491  0.5125 -0.7547
 4396TIP3   OH237382   4.498   4.277  18.764  0.6406  0.2461 -0.0202
 4396TIP3    H137383   4.479   4.337  18.835 -0.3547  1.5572 -1.3495
 4396TIP3    H237384   4.585   4.303  18.733  0.6298  0.3630  0.0485
 4397TIP3   OH237385   3.588   2.339  17.195  0.3971 -0.1146 -0.0346
 4397TIP3    H137386   3.662   2.400  17.204 -0.1742  0.6937 -0.6136
 4397TIP3    H237387   3.513   2.389  17.227 -0.2130 -0.2363 -1.2238
 4398TIP3   OH237388   0.719   0.412  18.958  0.1692  0.3814 -0.0240
 4398TIP3    H137389   0.713   0.497  18.914 -1.1655  0.1533 -0.3267
 4398TIP3    H237390   0.645   0.412  19.019  0.5883 -0.2818  0.4963
 4399TIP3   OH237391   3.603   2.889  18.913  0.2365 -0.1418 -0.5947
 4399TIP3    H137392   3.682   2.850  18.876  0.3441  0.3526 -0.8865
 4399TIP3    H237393   3.635   2.957  18.972  0.0501 -0.5177 -0.0529
 4400TIP3   OH237394   5.010   3.535  17.400  0.2628  0.2264 -0.0438
 4400TIP3    H137395   5.103   3.537  17.424 -0.0781 -0.5359  1.4275
 4400TIP3    H237396   4.971   3.610  17.445  0.0215  0.0874 -0.0184
 4401TIP3   OH237397   0.741   3.789  18.305  0.0782 -0.4888 -0.9735
 4401TIP3    H137398   0.704   3.877  18.309  0.1334 -0.3706 -2.5457
 4401TIP3    H237399   0.692   3.745  18.235  0.0896 -1.7001 -0.2561
 4402TIP3   OH237400   0.405   6.876  18.540 -0.0160 -0.6152  0.0053
 4402TIP3    H137401   0.456   6.890  18.460 -1.6622  0.9498 -0.8649
 4402TIP3    H237402   0.319   6.913  18.519  0.1145  1.8413  3.2202
 4403TIP3   OH237403   4.787   5.932  16.159  0.1167  0.5588 -0.0790
 4403TIP3    H137404   4.700   5.966  16.143  0.3939  0.8007 -1.1831
 4403TIP3    H237405   4.833   5.944  16.076  0.7440 -0.9223  0.0193
 4404TIP3   OH237406   3.307   4.153  16.815 -0.0731  0.6535 -0.0478
 4404TIP3    H137407   3.378   4.209  16.784  0.9626  1.5634  3.5021
 4404TIP3    H237408   3.228   4.205  16.800  0.0528  0.2049 -2.7528
 4405TIP3   OH237409   1.321   6.490  17.067 -0.4252 -0.4464  0.2195
 4405TIP3    H137410   1.366   6.547  17.004 -2.1985  2.0797  1.0612
 4405TIP3    H237411   1.321   6.540  17.149 -1.1423 -2.1502  1.3126
 4406TIP3   OH237412   3.957   1.492  17.300 -0.6656  0.3399 -0.1157
 4406TIP3    H137413   4.006   1.434  17.359 -1.1317  2.6423  2.8157
 4406TIP3    H237414   3.886   1.438  17.266 -0.7153 -1.0257  1.9925
 4407TIP3   OH237415   2.478   7.144  18.570  0.6707 -0.3029 -0.2887
 4407TIP3    H137416   2.489   7.226  18.522  1.1938 -0.7237 -0.9097
 4407TIP3    H237417   2.561   7.131  18.615  0.3460 -0.1453  0.3595
 4408TIP3   OH237418   0.032   2.185  17.732 -0.2089  0.8494  0.3565
 4408TIP3    H137419   0.087   2.128  17.785 -0.7771  0.1341  0.1850
 4408TIP3    H237420  -0.050   2.137  17.722 -0.0255  0.8440 -1.4022
 4409TIP3   OH237421   5.820   6.075  16.744  0.2965  0.0019  0.0028
 4409TIP3    H137422   5.792   6.026  16.666  0.4880  1.0798 -0.7657
 4409TIP3    H237423   5.845   6.007  16.807 -0.2475 -0.9013 -0.7228
 4410TIP3   OH237424   3.501   6.443  17.896  0.3542  0.3788  0.3955
 4410TIP3    H137425   3.527   6.485  17.978 -1.3640  1.7220  0.3095
 4410TIP3    H237426   3.427   6.387  17.920 -1.0914  1.8742 -0.4235
 4411TIP3   OH237427   7.314   1.003  16.960  0.0442  0.2017  0.0118
 4411TIP3    H137428   7.259   0.986  16.882 -0.1729  0.0769  0.1896
 4411TIP3    H237429   7.335   1.096  16.955  2.4512 -0.3387 -1.7622
 4412TIP3   OH237430   2.516   5.867  15.905  0.0716  0.0299  0.1686
 4412TIP3    H137431   2.538   5.903  15.990 -1.3841 -0.2469  0.6997
 4412TIP3    H237432   2.551   5.929  15.842 -1.1334  1.6427  1.0262
 4413TIP3   OH237433   5.669   1.531  19.052 -0.0401 -0.3962  0.2399
 4413TIP3    H137434   5.673   1.588  18.976  0.3290  0.8385  1.1628
 4413TIP3    H237435   5.576   1.515  19.066 -0.1191 -0.4115 -0.3014
 4414TIP3   OH237436   1.793   0.783  17.053 -0.0442 -0.1800 -0.1100
 4414TIP3    H137437   1.771   0.743  16.969  0.6960 -0.2327 -0.2857
 4414TIP3    H237438   1.772   0.716  17.118 -0.7961 -0.0708 -0.2319
 4415TIP3   OH237439   4.206   6.567  18.772 -0.5862  0.2655  0.3007
 4415TIP3    H137440   4.261   6.540  18.698  0.8155 -1.3096  1.8315
 4415TIP3    H237441   4.259   6.632  18.818 -1.1067  0.6268  0.3972
 4416TIP3   OH237442   5.380   6.928  17.632 -0.6048 -0.7530  0.3744
 4416TIP3    H137443   5.352   6.851  17.584 -0.7929 -0.3569 -0.1606
 4416TIP3    H237444   5.324   6.999  17.599  0.6606 -0.0556 -0.3315
 4417TIP3   OH237445   2.790   5.804  16.147 -0.0413  0.3046  0.1532
 4417TIP3    H137446   2.723   5.873  16.151 -0.1977  0.1174  0.7812
 4417TIP3    H237447   2.750   5.729  16.192  0.4314  0.0538  0.1568
 4418TIP3   OH237448   5.620   6.144  16.469 -0.5923 -0.2188 -0.1572
 4418TIP3    H137449   5.685   6.077  16.489  1.1981  1.6165  0.5613
 4418TIP3    H237450   5.645   6.176  16.382 -0.0738  0.9206  0.3777
 4419TIP3   OH237451   5.068   5.799  16.176  0.0744  0.0865  0.4688
 4419TIP3    H137452   5.005   5.834  16.239  2.3107  2.1140  1.7751
 4419TIP3    H237453   5.103   5.877  16.133 -0.4657 -1.1758 -2.4663
 4420TIP3   OH237454   4.505   6.352  16.134  0.5295 -0.0602 -0.8846
 4420TIP3    H137455   4.543   6.265  16.150  1.0158  0.3544  0.3322
 4420TIP3    H237456   4.464   6.344  16.048  1.2593 -1.2555 -1.1558
 4421TIP3   OH237457   0.473   1.567  18.484  0.8216 -0.8806 -0.1911
 4421TIP3    H137458   0.496   1.493  18.541 -0.7432 -2.0767 -1.0176
 4421TIP3    H237459   0.388   1.543  18.448  0.8244  0.8015 -1.4247
 4422TIP3   OH237460   5.188   4.168  16.724 -0.3179 -0.0578 -0.1287
 4422TIP3    H137461   5.118   4.228  16.749 -0.5436 -0.4171  0.1102
 4422TIP3    H237462   5.150   4.113  16.655  0.1047  0.5177 -0.8274
 4423TIP3   OH237463   2.016   2.238  18.770 -0.8953  0.1863 -0.7352
 4423TIP3    H137464   2.021   2.298  18.844  1.3127  0.4498 -1.0267
 4423TIP3    H237465   1.982   2.157  18.808 -0.8394  0.6455  0.3409
 4424TIP3   OH237466   4.227   6.649  16.455 -0.8290  0.2817 -0.3529
 4424TIP3    H137467   4.170   6.665  16.380 -1.7123  0.1629  0.2784
 4424TIP3    H237468   4.206   6.719  16.517 -1.0639 -0.3682  0.3192
 4425TIP3   OH237469   4.270   4.689  19.106  0.3202 -0.1881 -0.1686
 4425TIP3    H137470   4.214   4.762  19.079 -0.0794 -0.4963 -0.1804
 4425TIP3    H237471   4.290   4.707  19.198  1.2204  0.5664 -0.4990
 4426TIP3   OH237472   0.151   4.982  17.887 -0.1499  0.1076  0.2882
 4426TIP3    H137473   0.164   4.986  17.792 -0.6702 -1.3809  0.1297
 4426TIP3    H237474   0.056   4.988  17.899 -0.2794 -1.8344  0.5384
 4427TIP3   OH237475   7.053   5.959  17.048  0.2971  0.0465 -0.7804
 4427TIP3    H137476   7.113   5.887  17.028 -0.0355 -0.2853 -0.5803
 4427TIP3    H237477   7.059   5.971  17.143 -0.0971 -0.1162 -0.7335
 4428TIP3   OH237478   7.340   4.559  15.901 -0.3993  0.0833 -0.0596
 4428TIP3    H137479   7.339   4.591  15.811  3.9519 -1.2359 -0.8304
 4428TIP3    H237480   7.278   4.486  15.902 -0.0759 -0.2828 -2.2241
 4429TIP3   OH237481   3.232   4.256  16.030  0.2690 -0.0320  0.2870
 4429TIP3    H137482   3.166   4.310  16.074  1.3104 -0.7439  2.8557
 4429TIP3    H237483   3.315   4.282  16.070  1.1865 -1.2650 -0.7476
 4430TIP3   OH237484   4.231   5.507  17.389  0.5181  0.5424  0.4717
 4430TIP3    H137485   4.290   5.515  17.465 -0.9089 -0.8167  1.8099
 4430TIP3    H237486   4.144   5.502  17.428 -0.3656  1.0367 -1.3699
 4431TIP3   OH237487   3.040   3.099  17.836 -0.2473  0.3457 -0.1267
 4431TIP3    H137488   2.988   3.152  17.896  0.4170  0.3816  0.4339
 4431TIP3    H237489   3.119   3.151  17.821  0.1430 -0.2075 -0.0420
 4432TIP3   OH237490   4.374   0.639  17.040 -0.3438  0.4370  0.0459
 4432TIP3    H137491   4.334   0.582  17.106 -1.8903 -1.1127 -2.0760
 4432TIP3    H237492   4.451   0.591  17.010 -1.9751 -1.0139 -2.1700
 4433TIP3   OH237493   6.547   2.763  18.068  0.3687 -0.0372 -0.2334
 4433TIP3    H137494   6.464   2.762  18.116  1.3453  0.6438  1.5793
 4433TIP3    H237495   6.555   2.853  18.036  0.5275 -0.0344 -0.1874
 4434TIP3   OH237496   5.247   5.739  18.314  0.6413 -0.1993 -0.2758
 4434TIP3    H137497   5.164   5.785  18.304  1.3467  2.7840  4.4520
 4434TIP3    H237498   5.223   5.658  18.360  0.1284 -1.1094 -2.0531
 4435TIP3   OH237499   0.209   4.482  17.323 -0.3062  0.5917 -0.1377
 4435TIP3    H137500   0.226   4.574  17.341  2.8787 -0.1075  0.9859
 4435TIP3    H237501   0.140   4.458  17.385  0.1642  1.7970  0.8914
 4436TIP3   OH237502   4.066   4.562  18.920 -0.1867 -0.1661 -0.3129
 4436TIP3    H137503   4.104   4.609  18.995 -0.2845 -2.6116  1.3871
 4436TIP3    H237504   3.981   4.603  18.907  1.3041  2.8066 -1.6418
 4437TIP3   OH237505   2.069   2.946  18.045  0.3854 -0.2032 -0.5795
 4437TIP3    H137506   2.157   2.910  18.042  0.5653  0.1121  0.6258
 4437TIP3    H237507   2.020   2.886  18.101  0.3028  0.5924  0.2107
 4438TIP3   OH237508   2.220   4.698  18.595 -0.3207  0.1242 -0.0709
 4438TIP3    H137509   2.139   4.732  18.633 -1.7946 -1.9249 -1.1529
 4438TIP3    H237510   2.245   4.626  18.652 -0.6096 -0.7428 -0.9987
 4439TIP3   OH237511   6.496   6.262  17.090  0.3425  0.2853  0.3318
 4439TIP3    H137512   6.404   6.290  17.086 -0.0795 -0.7376  1.8283
 4439TIP3    H237513   6.544   6.342  17.112 -0.5454  0.3822  2.1827
 4440TIP3   OH237514   5.827   1.024  19.107  0.3449 -0.1058  0.2654
 4440TIP3    H137515   5.834   1.069  19.023  3.1677 -1.9230 -0.6087
 4440TIP3    H237516   5.737   0.990  19.108 -0.2227  1.1890 -1.2886
 4441TIP3   OH237517   2.768   7.254  18.237 -0.1744  0.1981 -0.1126
 4441TIP3    H137518   2.836   7.318  18.259 -0.3792  0.3700  0.0294
 4441TIP3    H237519   2.685   7.301  18.251 -0.3216  0.0004 -0.3099
 4442TIP3   OH237520   3.309   4.550  16.766  0.4961  0.0452  0.4206
 4442TIP3    H137521   3.371   4.481  16.743  1.0344  0.7791 -0.3657
 4442TIP3    H237522   3.273   4.522  16.851  1.2546 -0.8125  0.4787
 4443TIP3   OH237523   5.721   3.106  17.888  0.2078  0.1088  0.3675
 4443TIP3    H137524   5.793   3.070  17.836 -0.9416 -2.0527  0.1252
 4443TIP3    H237525   5.688   3.031  17.938 -1.7531  1.0539  0.5946
 4444TIP3   OH237526   6.121   5.945  16.399  0.0628 -0.3917  0.1626
 4444TIP3    H137527   6.207   5.922  16.434  0.1029  0.8775  0.9789
 4444TIP3    H237528   6.063   5.876  16.431  0.8740 -1.6387 -0.9658
 4445TIP3   OH237529   1.737   4.215  17.879 -0.1044 -0.1798  0.5510
 4445TIP3    H137530   1.707   4.295  17.834  0.1913  0.3987  1.3554
 4445TIP3    H237531   1.747   4.242  17.971  1.0116 -0.8683  0.6412
 4446TIP3   OH237532   7.189   5.532  18.082 -0.0209  0.7785 -0.3760
 4446TIP3    H137533   7.184   5.578  18.167  1.9031  1.4841 -0.6018
 4446TIP3    H237534   7.097   5.523  18.055 -0.7820 -0.4703  2.2835
 4447TIP3   OH237535   2.734   7.042  16.058 -0.0900 -0.1784 -0.6729
 4447TIP3    H137536   2.820   7.084  16.062 -0.2510  0.2972 -1.7781
 4447TIP3    H237537   2.672   7.114  16.074 -0.3263 -0.2000 -1.4437
 4448TIP3   OH237538   5.815   6.155  17.052  0.2755  0.4907 -0.2024
 4448TIP3    H137539   5.846   6.104  17.126  0.3154  1.1964  0.2743
 4448TIP3    H237540   5.849   6.109  16.975 -0.5145 -0.7465  0.1674
 4449TIP3   OH237541   4.109   0.367  17.708  0.0461 -0.2597  0.0864
 4449TIP3    H137542   4.174   0.299  17.725  0.3990 -0.3105 -1.3099
 4449TIP3    H237543   4.056   0.332  17.636 -0.2772  0.6068 -0.1085
 4450TIP3   OH237544   4.154   0.240  18.298  0.2359  0.8584  0.4890
 4450TIP3    H137545   4.195   0.315  18.256  0.0237  1.6468  1.6517
 4450TIP3    H237546   4.201   0.164  18.262  1.4571  1.6246  0.3979
 4451TIP3   OH237547   7.418   7.159  17.649  0.7795 -0.1703 -0.1282
 4451TIP3    H137548   7.378   7.167  17.736 -0.1868 -1.5679 -0.4278
 4451TIP3    H237549   7.374   7.225  17.596  0.0384 -0.5786 -0.0282
 4452TIP3   OH237550   4.896   0.537  17.557 -0.1471  0.1716 -0.2963
 4452TIP3    H137551   4.825   0.566  17.500 -0.3788  0.6478  0.2208
 4452TIP3    H237552   4.976   0.561  17.510 -0.3004  2.9454  0.6515
 4453TIP3   OH237553   6.686   0.184  17.532 -0.1629 -0.5030 -0.2888
 4453TIP3    H137554   6.621   0.124  17.568 -1.1867  1.5118  1.4322
 4453TIP3    H237555   6.665   0.187  17.438 -2.0839 -0.5185  0.0851
 4454TIP3   OH237556   5.728   7.150  16.584  0.3042 -0.1290 -0.2547
 4454TIP3    H137557   5.809   7.190  16.552  0.4277  0.1925  0.4364
 4454TIP3    H237558   5.754   7.108  16.666 -0.6891  2.0608  1.2963
 4455TIP3   OH237559   5.141   1.270  18.136 -0.3824  0.1278 -0.3359
 4455TIP3    H137560   5.211   1.325  18.171 -0.7737 -0.4119  1.3838
 4455TIP3    H237561   5.061   1.306  18.174 -0.9006 -0.1616 -1.1237
 4456TIP3   OH237562   5.675   0.393  17.690 -0.0510  0.2019  0.3676
 4456TIP3    H137563   5.683   0.468  17.749  0.6528  0.8075 -0.4967
 4456TIP3    H237564   5.651   0.430  17.606  0.0643 -0.5682 -0.0143
 4457TIP3   OH237565   5.477   4.521  17.166 -0.4710 -0.4340  0.0492
 4457TIP3    H137566   5.383   4.503  17.170 -1.2873  2.5592 -1.8417
 4457TIP3    H237567   5.486   4.607  17.208  1.1985 -0.0553 -1.0092
 4458TIP3   OH237568   7.043   2.445  16.751  0.3067  0.2772  0.0431
 4458TIP3    H137569   7.047   2.489  16.666  2.4875 -0.6679 -0.4362
 4458TIP3    H237570   7.023   2.354  16.729  1.0636 -0.0076  0.5060
 4459TIP3   OH237571   6.767   4.142  18.654 -0.4942  0.0763 -0.2997
 4459TIP3    H137572   6.716   4.219  18.628  0.0415  1.4547  2.3180
 4459TIP3    H237573   6.726   4.114  18.736  1.2056 -0.5195  0.3752
 4460TIP3   OH237574   3.734   7.128  17.794 -0.0396  0.4664  0.0629
 4460TIP3    H137575   3.781   7.212  17.797  1.6040 -0.4293  0.2167
 4460TIP3    H237576   3.802   7.062  17.800 -1.1173 -0.9361 -1.9792
 4461TIP3   OH237577   0.391   2.706  18.185  0.0583 -0.0550  0.3210
 4461TIP3    H137578   0.440   2.727  18.265  1.0657 -0.3031 -0.2034
 4461TIP3    H237579   0.376   2.791  18.144 -0.0425  0.0343  0.5388
 4462TIP3   OH237580   0.379   2.805  18.825  0.0885  0.0749 -0.1348
 4462TIP3    H137581   0.342   2.892  18.805  1.5247  0.4939 -1.1087
 4462TIP3    H237582   0.352   2.750  18.751  0.4777  0.0986 -0.2955
 4463TIP3   OH237583   2.210   0.581  16.927 -0.1034  0.1423 -0.1106
 4463TIP3    H137584   2.193   0.609  17.017  0.1625 -1.3389  0.4231
 4463TIP3    H237585   2.271   0.647  16.893  0.4856  0.2492  1.0944
 4464TIP3   OH237586   3.759   4.325  18.917  0.3333  0.7125 -0.4640
 4464TIP3    H137587   3.785   4.237  18.944 -1.2637 -0.1415 -1.5268
 4464TIP3    H237588   3.789   4.332  18.826  0.8330  1.4513 -0.2519
 4465TIP3   OH237589   0.653   4.225  17.221  0.5023 -0.0072 -0.1910
 4465TIP3    H137590   0.579   4.285  17.219  0.4546  0.1391  2.4114
 4465TIP3    H237591   0.641   4.169  17.144 -3.8549 -1.7367  1.4532
 4466TIP3   OH237592   3.827   5.191  18.792 -0.1091 -0.1485  0.3284
 4466TIP3    H137593   3.804   5.273  18.747  1.1329 -0.2115 -0.4663
 4466TIP3    H237594   3.797   5.122  18.733 -2.2081 -0.3312  1.5233
 4467TIP3   OH237595   6.136   4.737  16.577  0.5699  0.3014  0.0256
 4467TIP3    H137596   6.041   4.741  16.567  0.5219 -0.8049 -0.1276
 4467TIP3    H237597   6.165   4.828  16.571 -0.7474  1.0594  3.0190
 4468TIP3   OH237598   5.124   3.056  16.532  0.2804  0.3028 -0.3567
 4468TIP3    H137599   5.125   2.984  16.595 -0.0190  0.0831 -0.5995
 4468TIP3    H237600   5.103   3.014  16.449  0.1935  0.6600 -0.5167
 4469TIP3   OH237601   0.531   3.182  18.073 -0.1725  0.1185 -0.2203
 4469TIP3    H137602   0.608   3.139  18.037 -1.1720 -0.5539 -1.6603
 4469TIP3    H237603   0.510   3.251  18.010 -0.6907  0.3625  0.2104
 4470TIP3   OH237604   2.385   1.815  15.963 -0.2378 -0.8728  0.2967
 4470TIP3    H137605   2.402   1.805  15.869  1.5168  0.4829  0.4169
 4470TIP3    H237606   2.457   1.769  16.006 -1.9629 -3.0230  1.0796
 4471TIP3   OH237607   4.394   7.205  18.594  0.8110 -0.1232  0.0798
 4471TIP3    H137608   4.337   7.129  18.604 -2.6757  2.0040 -1.4608
 4471TIP3    H237609   4.450   7.184  18.519 -1.2752 -0.6191 -1.4296
 4472TIP3   OH237610   6.936   5.147  18.559 -0.6549  0.5864  0.5814
 4472TIP3    H137611   6.904   5.220  18.613  0.2618  0.2127  1.6661
 4472TIP3    H237612   6.918   5.069  18.612 -0.8828  0.0865 -0.2178
 4473TIP3   OH237613   5.510   1.003  16.590  0.1119 -0.2629 -0.4077
 4473TIP3    H137614   5.539   0.928  16.538 -0.7192 -0.7045 -0.2499
 4473TIP3    H237615   5.564   1.076  16.559 -0.5202 -0.4499 -2.0806
 4474TIP3   OH237616   4.690   1.035  16.207 -0.4751  0.0640  0.5368
 4474TIP3    H137617   4.701   0.958  16.263  1.1560  1.4197  2.2020
 4474TIP3    H237618   4.758   1.096  16.236 -0.6868  1.5390 -1.7936
 4475TIP3   OH237619   4.095   7.270  17.533  0.2940 -0.1531 -0.0808
 4475TIP3    H137620   4.121   7.190  17.579  1.2157 -0.2772 -0.8037
 4475TIP3    H237621   4.170   7.328  17.541  0.3707 -0.0826 -1.2008
 4476TIP3   OH237622   2.572   2.582  15.626  0.0434  0.7812 -0.1830
 4476TIP3    H137623   2.614   2.519  15.685  0.5228  0.2288 -1.0928
 4476TIP3    H237624   2.559   2.534  15.544  0.6957  1.9404 -0.9961
 4477TIP3   OH237625   5.889   1.556  18.119  0.8207  0.0009  0.0274
 4477TIP3    H137626   5.874   1.524  18.208 -0.7150 -0.7739 -0.4834
 4477TIP3    H237627   5.910   1.649  18.130  0.4424 -0.0403  1.1766
 4478TIP3   OH237628   2.617   1.858  18.832  0.5252  0.0758  0.1845
 4478TIP3    H137629   2.694   1.878  18.886 -0.7750  1.1372  1.7606
 4478TIP3    H237630   2.584   1.944  18.804 -0.2497 -0.3393 -0.2086
 4479TIP3   OH237631   6.925   2.209  19.063  0.6345 -0.1379  0.4382
 4479TIP3    H137632   7.003   2.164  19.033  0.8946 -0.1617  1.1217
 4479TIP3    H237633   6.858   2.189  18.997  1.3566  0.3772 -0.4735
 4480TIP3   OH237634   3.923   6.913  17.828 -0.0557 -0.4767  0.2372
 4480TIP3    H137635   3.968   6.858  17.893  0.0865  1.0799  1.5296
 4480TIP3    H237636   3.847   6.861  17.801 -0.4926 -0.9237  2.1760
 4481TIP3   OH237637   3.433   4.986  16.517  1.2520 -0.3004  0.5114
 4481TIP3    H137638   3.415   5.030  16.600  1.0955 -0.0249  0.3347
 4481TIP3    H237639   3.348   4.953  16.488  1.5087 -1.5086  1.0771
 4482TIP3   OH237640   1.693   3.430  18.151  0.1359  0.5598 -0.2449
 4482TIP3    H137641   1.601   3.429  18.125  0.1539  1.3923 -0.3706
 4482TIP3    H237642   1.692   3.402  18.243 -0.0910 -0.7821 -0.6382
 4483TIP3   OH237643   0.157   6.925  17.850  0.4643 -0.0639 -0.0856
 4483TIP3    H137644   0.079   6.974  17.874 -0.7170 -1.8361 -0.1474
 4483TIP3    H237645   0.209   6.921  17.930 -0.3098 -0.3008  0.4104
 4484TIP3   OH237646   3.940   0.687  17.028  0.1071 -0.0704  0.4008
 4484TIP3    H137647   3.868   0.717  17.083  1.5301  1.3121  1.5825
 4484TIP3    H237648   3.985   0.766  17.001  0.2376 -0.8090 -1.7169
 4485TIP3   OH237649   6.394   5.055  17.916  0.4264 -0.1903  0.6314
 4485TIP3    H137650   6.383   5.129  17.975  2.3230  2.2019 -1.7697
 4485TIP3    H237651   6.481   5.021  17.935  0.5225 -0.2514  0.1039
 4486TIP3   OH237652   0.944   3.491  17.534  0.3162  0.5937  0.1032
 4486TIP3    H137653   1.039   3.482  17.539  0.2823 -0.1800 -0.4404
 4486TIP3    H237654   0.930   3.585  17.524  1.0288  0.7157  0.1581
 4487TIP3   OH237655   4.660   3.714  17.212  0.0874 -0.1845  0.3050
 4487TIP3    H137656   4.569   3.733  17.232 -0.5438  1.0959 -3.0346
 4487TIP3    H237657   4.708   3.793  17.239 -0.7956  1.6808 -2.9893
 4488TIP3   OH237658   4.781   5.754  17.131  0.0241  0.2059 -0.1282
 4488TIP3    H137659   4.844   5.804  17.182 -0.2731 -0.3343  0.7837
 4488TIP3    H237660   4.755   5.814  17.061  0.3545  1.0041  0.4135
 4489TIP3   OH237661   7.079   3.617  16.913  0.1429  0.5936 -0.4084
 4489TIP3    H137662   7.047   3.602  17.002  0.9454 -3.1529 -0.6051
 4489TIP3    H237663   7.154   3.675  16.924  0.9767 -0.7570  1.5453
 4490TIP3   OH237664   5.001   3.571  16.559  0.3615  0.7915  0.2287
 4490TIP3    H137665   4.905   3.570  16.555  0.3605  1.3289 -0.1033
 4490TIP3    H237666   5.027   3.489  16.518  0.0395  0.5944  0.4145
 4491TIP3   OH237667   7.071   5.413  16.154  0.1535  0.6274  0.0056
 4491TIP3    H137668   7.027   5.462  16.085  0.8960  3.4325  1.3891
 4491TIP3    H237669   7.164   5.415  16.129  0.4589  1.8617  1.1308
 4492TIP3   OH237670   6.609   2.499  18.079  0.0824 -0.2328 -0.6231
 4492TIP3    H137671   6.702   2.495  18.058  0.3422 -0.5869  0.4817
 4492TIP3    H237672   6.590   2.592  18.088  0.9024 -0.1941  1.3344
 4493TIP3   OH237673   5.699   5.788  17.293  0.6212  0.2172 -0.1621
 4493TIP3    H137674   5.702   5.721  17.224 -0.4765  0.0684 -0.0851
 4493TIP3    H237675   5.755   5.754  17.362  0.8640 -0.1486 -0.5305
 4494TIP3   OH237676   1.022   3.086  15.983  0.1039  0.0033 -0.2605
 4494TIP3    H137677   0.958   3.151  16.013 -0.1618  0.0441 -0.8968
 4494TIP3    H237678   1.057   3.123  15.902  0.6993 -0.1766 -0.0854
 4495TIP3   OH237679   0.799   0.421  17.043 -0.3585 -0.4955 -0.3189
 4495TIP3    H137680   0.827   0.510  17.064  1.0798 -0.9977  0.0662
 4495TIP3    H237681   0.880   0.370  17.044 -1.0312 -1.6453 -1.4317
 4496TIP3   OH237682   5.421   5.390  16.752 -0.0842  0.6846 -0.0774
 4496TIP3    H137683   5.383   5.398  16.665  0.2331 -1.4463 -0.4721
 4496TIP3    H237684   5.348   5.403  16.812 -1.0932 -1.3951 -0.7773
 4497TIP3   OH237685   4.719   6.747  16.521  1.0058  0.1406 -0.0983
 4497TIP3    H137686   4.645   6.808  16.513  0.5780 -0.4688 -0.8847
 4497TIP3    H237687   4.758   6.745  16.434  1.0898 -0.6252 -0.0444
 4498TIP3   OH237688   3.186   5.057  16.284  0.1202  0.4479  0.3052
 4498TIP3    H137689   3.266   5.076  16.236 -1.9499  0.0417 -3.7001
 4498TIP3    H237690   3.194   4.965  16.309  0.5799  0.1482 -0.8698
 4499TIP3   OH237691   1.950   6.247  18.472 -0.4207  0.0777 -0.2749
 4499TIP3    H137692   1.931   6.337  18.498 -2.2789 -0.3065 -0.1904
 4499TIP3    H237693   2.029   6.255  18.418  1.7904  1.2630  2.8331
 4500TIP3   OH237694   5.528   7.142  15.892 -0.2021 -0.1921 -0.0232
 4500TIP3    H137695   5.498   7.061  15.850  0.3067  0.1244 -0.9962
 4500TIP3    H237696   5.564   7.112  15.976 -0.2866 -0.9409 -0.2443
 4501TIP3   OH237697   1.554   3.182  17.015  0.2388 -0.4027 -0.3809
 4501TIP3    H137698   1.604   3.105  16.987 -0.9924 -0.2893 -3.2453
 4501TIP3    H237699   1.603   3.256  16.980 -1.3477 -0.2503 -2.4690
 4502TIP3   OH237700   2.771   6.793  18.271 -0.7031  0.1916  0.3790
 4502TIP3    H137701   2.753   6.844  18.192  1.2205  0.3204 -0.0213
 4502TIP3    H237702   2.702   6.818  18.332 -0.3644  2.5972 -0.1407
 4503TIP3   OH237703   1.619   5.842  18.502  0.4754 -0.1050 -0.0556
 4503TIP3    H137704   1.622   5.937  18.514 -0.9633 -0.1675  1.0677
 4503TIP3    H237705   1.542   5.827  18.447 -1.6798 -0.7831  2.8595
 4504TIP3   OH237706   0.053   1.932  16.843  0.6411  0.4689  0.1114
 4504TIP3    H137707   0.114   1.889  16.783 -1.4772  0.3922 -2.1663
 4504TIP3    H237708   0.106   1.953  16.920  3.1220 -0.9661 -1.0654
 4505TIP3   OH237709   2.158   0.697  17.163  0.0710  0.0357 -0.0129
 4505TIP3    H137710   2.142   0.668  17.252 -1.0513  1.2817  0.2345
 4505TIP3    H237711   2.232   0.756  17.169  3.5876 -3.8489 -0.7869
 4506TIP3   OH237712   5.835   1.302  17.617 -0.3569  0.0089  0.4948
 4506TIP3    H137713   5.803   1.212  17.628  1.8934 -0.7256  1.8375
 4506TIP3    H237714   5.758   1.352  17.592 -1.5897 -2.3917 -0.8935
 4507TIP3   OH237715   2.372   6.129  16.557 -0.5396  0.8100 -0.5520
 4507TIP3    H137716   2.385   6.127  16.652 -0.1644 -1.4328 -0.6121
 4507TIP3    H237717   2.406   6.215  16.530 -0.4461  1.3962  1.2918
 4508TIP3   OH237718   5.603   3.370  17.659 -0.0830  0.5548  0.5479
 4508TIP3    H137719   5.619   3.465  17.660 -0.7260  0.6624  1.2363
 4508TIP3    H237720   5.600   3.345  17.751  2.7493 -0.6250  0.4416
 4509TIP3   OH237721   6.138   2.651  17.707 -0.1960 -0.7340  0.0095
 4509TIP3    H137722   6.105   2.689  17.788  1.9025 -1.2907  1.1834
 4509TIP3    H237723   6.119   2.557  17.715 -0.0358 -0.7821 -0.1616
 4510TIP3   OH237724   5.549   6.204  15.917 -0.5507  0.6004  0.0152
 4510TIP3    H137725   5.474   6.250  15.880  0.3667 -0.1813 -3.1545
 4510TIP3    H237726   5.625   6.250  15.881  0.5038  0.3975  1.8671
 4511TIP3   OH237727   5.365   4.494  16.861 -0.2517  0.3050 -0.4871
 4511TIP3    H137728   5.432   4.461  16.921  0.3877  1.0545 -0.7754
 4511TIP3    H237729   5.291   4.515  16.918  0.1645  0.5390 -0.0256
 4512TIP3   OH237730   0.903   4.849  17.073  0.2443  0.0574  0.3002
 4512TIP3    H137731   0.846   4.779  17.042 -0.7001  1.1502 -0.5225
 4512TIP3    H237732   0.900   4.915  17.004  1.6727  0.6195  0.7277
 4513TIP3   OH237733   0.399   7.264  16.389  0.3612  0.1412  0.0633
 4513TIP3    H137734   0.373   7.239  16.478  0.8723 -0.8402 -0.0566
 4513TIP3    H237735   0.318   7.256  16.338  0.4613 -1.1419  0.0639
 4514TIP3   OH237736   7.010   6.165  18.017 -0.3731  0.4629  0.1991
 4514TIP3    H137737   7.016   6.136  17.926 -0.6894  1.2118 -0.0673
 4514TIP3    H237738   6.922   6.140  18.045 -0.6423  1.1499 -0.0280
 4515TIP3   OH237739   6.083   1.983  16.694 -0.0868  0.0440 -0.0295
 4515TIP3    H137740   6.148   1.967  16.625 -1.4188 -0.8170 -1.1472
 4515TIP3    H237741   6.063   2.076  16.688 -0.1619 -0.0159 -0.8038
 4516TIP3   OH237742   4.292   1.167  18.529 -0.1515  0.0949 -0.3507
 4516TIP3    H137743   4.284   1.203  18.441  2.5688 -1.3675 -1.3235
 4516TIP3    H237744   4.226   1.097  18.532 -1.5906  1.4073 -0.4695
 4517TIP3   OH237745   4.679   4.839  17.874  0.1259 -0.1575  0.6094
 4517TIP3    H137746   4.609   4.885  17.921  0.4322  1.4102 -0.3823
 4517TIP3    H237747   4.683   4.883  17.789  1.6568 -0.8615  0.2861
 4518TIP3   OH237748   5.070   1.147  18.721 -0.0127 -0.0070 -0.2028
 4518TIP3    H137749   5.050   1.171  18.631  0.6295 -0.9686 -0.6204
 4518TIP3    H237750   5.000   1.087  18.746 -0.4610  0.6399  0.1160
 4519TIP3   OH237751   2.267   0.029  16.525  0.5771  0.0046  0.4393
 4519TIP3    H137752   2.267  -0.003  16.435  0.0731  0.8763  0.1209
 4519TIP3    H237753   2.182   0.003  16.559  0.1356  1.0488  0.1561
 4520TIP3   OH237754   4.193   2.746  17.888  0.0086  0.5672  0.3503
 4520TIP3    H137755   4.276   2.710  17.917  0.1861 -0.8160 -1.6935
 4520TIP3    H237756   4.129   2.676  17.902  0.0454 -0.0436 -2.0931
 4521TIP3   OH237757   2.262   3.316  18.044  0.1877 -0.0377 -0.5526
 4521TIP3    H137758   2.242   3.401  18.083  1.1939 -0.5013  1.1020
 4521TIP3    H237759   2.204   3.310  17.968  1.6673  3.0524 -2.0770
 4522TIP3   OH237760   5.461   5.502  18.101  0.0828 -0.4530  0.1644
 4522TIP3    H137761   5.417   5.577  18.061 -1.9542 -2.8029 -2.5217
 4522TIP3    H237762   5.390   5.440  18.120  1.7854 -2.5033  0.2992
 4523TIP3   OH237763   5.481   6.735  18.302 -0.3281  0.3449 -0.1271
 4523TIP3    H137764   5.399   6.685  18.302 -0.3021  0.2515  1.4115
 4523TIP3    H237765   5.536   6.692  18.368  0.5771  1.0179 -0.4146
 4524TIP3   OH237766   2.962   1.963  16.791 -0.0890  0.3849  0.0717
 4524TIP3    H137767   2.877   1.928  16.819  0.6919 -0.6622  1.2914
 4524TIP3    H237768   2.951   2.058  16.792 -1.0591  0.2800  0.8859
 4525TIP3   OH237769   6.244   4.666  16.813  0.2686  0.0235 -0.5277
 4525TIP3    H137770   6.194   4.684  16.733 -0.1139  1.1496 -0.0495
 4525TIP3    H237771   6.316   4.611  16.783  1.2030  1.9310 -2.0050
 4526TIP3   OH237772   2.374   0.910  18.579 -0.4941 -0.3351  0.1388
 4526TIP3    H137773   2.290   0.956  18.584 -0.9664 -1.2409  0.8792
 4526TIP3    H237774   2.431   0.970  18.532 -0.6069  1.7673  2.4319
 4527TIP3   OH237775   5.464   5.674  16.808 -0.1293  0.0371 -0.4791
 4527TIP3    H137776   5.451   5.580  16.793 -1.2809 -0.0784  1.0789
 4527TIP3    H237777   5.418   5.716  16.735 -2.3891 -0.5773  0.4984
 4528TIP3   OH237778   6.397   5.273  17.589  0.4052  0.1059  0.7780
 4528TIP3    H137779   6.416   5.186  17.552  1.9171  0.1381  1.3963
 4528TIP3    H237780   6.372   5.256  17.680  0.4606  0.2984  0.8292
 4529TIP3   OH237781   3.871   1.843  17.524 -0.4100  0.3136 -0.1237
 4529TIP3    H137782   3.876   1.758  17.569 -0.2699  0.1703 -0.4048
 4529TIP3    H237783   3.949   1.890  17.553 -0.7990  0.5863  0.5063
 4530TIP3   OH237784   0.728   4.054  17.783 -0.4485  0.0198  0.7153
 4530TIP3    H137785   0.740   4.106  17.704  1.4359 -0.7680  0.4278
 4530TIP3    H237786   0.685   3.973  17.753 -0.2505 -0.0392  0.5893
 4531TIP3   OH237787   3.328   1.383  18.191  0.3376  0.2247  0.3965
 4531TIP3    H137788   3.414   1.342  18.193  0.4626  0.4497 -0.1830
 4531TIP3    H237789   3.309   1.403  18.283  0.1206 -1.4190  0.7328
 4532TIP3   OH237790   7.332   3.781  17.990 -0.0151  0.1785 -0.5925
 4532TIP3    H137791   7.247   3.745  18.014 -0.5443  1.4069 -0.5455
 4532TIP3    H237792   7.395   3.725  18.035 -0.7542 -1.1145 -1.1041
 4533TIP3   OH237793   5.209   1.146  16.023 -0.2426 -0.2742 -0.4823
 4533TIP3    H137794   5.302   1.123  16.016  0.1089 -0.3098  2.7460
 4533TIP3    H237795   5.164   1.084  15.966  1.4598 -2.6545  0.5821
 4534TIP3   OH237796   0.435   3.113  16.240  0.4910 -0.7711 -0.5147
 4534TIP3    H137797   0.517   3.067  16.222  2.5980  2.0450  1.0995
 4534TIP3    H237798   0.438   3.190  16.183 -0.2089  0.1889  0.7024
 4535TIP3   OH237799   4.795   6.717  17.419 -0.3422  0.1919  0.3072
 4535TIP3    H137800   4.714   6.745  17.461 -0.4425 -0.1215  0.3233
 4535TIP3    H237801   4.791   6.755  17.331  0.5469  2.1097  1.0243
 4536TIP3   OH237802   6.834   1.612  18.662 -0.1675  0.1086 -0.3675
 4536TIP3    H137803   6.906   1.628  18.600 -1.0878 -2.7897 -2.3941
 4536TIP3    H237804   6.758   1.651  18.619 -0.3727  0.4213  0.2750
 4537TIP3   OH237805   1.079   6.788  18.457 -0.4281 -0.0568  0.3410
 4537TIP3    H137806   1.172   6.770  18.446 -0.3282  0.6580 -0.0493
 4537TIP3    H237807   1.044   6.711  18.502  0.5129  0.0342  1.2465
 4538TIP3   OH237808   0.530   2.464  17.618 -0.1390  0.2518  0.2060
 4538TIP3    H137809   0.439   2.456  17.590 -0.1091  1.7379 -0.3596
 4538TIP3    H237810   0.572   2.518  17.551  0.9113  0.4462  0.9926
 4539TIP3   OH237811   5.233   3.486  18.776  0.1660  0.9538  0.1110
 4539TIP3    H137812   5.308   3.505  18.832  0.2304  0.7689  0.0882
 4539TIP3    H237813   5.247   3.540  18.698  0.5116  0.5775 -0.0896
 4540TIP3   OH237814   7.265   1.436  17.335 -0.0431  0.4360 -0.4923
 4540TIP3    H137815   7.278   1.531  17.337  0.9619  0.3155 -0.5227
 4540TIP3    H237816   7.184   1.422  17.383 -0.2300  1.3165 -0.5346
 4541TIP3   OH237817   0.618   7.049  17.653 -0.0612  0.1786 -0.0094
 4541TIP3    H137818   0.530   7.023  17.681  0.3829 -0.2071  1.1272
 4541TIP3    H237819   0.630   7.137  17.688 -0.4001  0.6914 -1.1456
 4542TIP3   OH237820   5.773   5.191  16.827 -0.2812  0.2787  0.1088
 4542TIP3    H137821   5.796   5.178  16.735 -1.0751 -0.6068  0.0206
 4542TIP3    H237822   5.832   5.134  16.875 -2.5535 -2.5336 -0.1631
 4543TIP3   OH237823   4.601   6.435  17.383  0.4282 -0.0161  0.3355
 4543TIP3    H137824   4.568   6.525  17.390 -0.5815 -0.4225  0.9254
 4543TIP3    H237825   4.570   6.405  17.297 -1.9000 -0.8174  1.3832
 4544TIP3   OH237826   2.715   2.133  17.537 -0.0370 -0.0792 -0.4810
 4544TIP3    H137827   2.714   2.182  17.454  0.3945  2.6859  1.0366
 4544TIP3    H237828   2.802   2.093  17.540 -0.1989 -0.5604 -1.5105
 4545TIP3   OH237829   3.656   6.360  18.344 -0.4680  0.0905 -0.5251
 4545TIP3    H137830   3.714   6.414  18.290  0.2830  0.0119  0.1809
 4545TIP3    H237831   3.569   6.394  18.327 -0.1323  0.7500 -0.9917
 4546TIP3   OH237832   4.908   1.420  19.055 -0.0663 -0.5501  0.3224
 4546TIP3    H137833   4.955   1.355  19.002  0.4546 -0.7932  1.0729
 4546TIP3    H237834   4.831   1.442  19.002 -0.7674 -2.4894  0.4340
 4547TIP3   OH237835   1.559   0.071  18.137  0.4358  0.4010  0.2838
 4547TIP3    H137836   1.609   0.020  18.074 -0.3361  1.3953 -1.1847
 4547TIP3    H237837   1.467   0.052  18.117  0.1561  1.6023  0.3230
 4548TIP3   OH237838   0.927   1.752  17.465  0.6307  0.1326  0.1605
 4548TIP3    H137839   0.951   1.697  17.390 -1.6016  0.7081 -1.0545
 4548TIP3    H237840   0.845   1.716  17.496  1.8167 -0.5003  2.8472
 4549TIP3   OH237841   6.101   5.596  16.894 -0.0148  0.2233  0.3578
 4549TIP3    H137842   6.151   5.666  16.937 -0.6008  1.2033 -0.4874
 4549TIP3    H237843   6.109   5.521  16.952 -0.8225  1.4927  2.1826
 4550TIP3   OH237844   1.654   7.362  18.726  0.2843  0.1757  0.1063
 4550TIP3    H137845   1.579   7.398  18.679  0.0453  0.6042  0.8003
 4550TIP3    H237846   1.624   7.355  18.817  1.0188  0.1779  0.3560
 4551TIP3   OH237847   2.451   0.204  17.349  0.4773 -0.0908  0.6152
 4551TIP3    H137848   2.406   0.144  17.291  1.4689 -1.6714  1.4236
 4551TIP3    H237849   2.381   0.256  17.389 -0.2700  0.4762 -1.3224
 4552TIP3   OH237850   0.079   5.614  18.114 -0.1696  0.4776  0.1846
 4552TIP3    H137851   0.025   5.596  18.038 -0.4911  0.5944  0.3848
 4552TIP3    H237852   0.163   5.573  18.094 -0.6674 -0.6508  0.3410
 4553TIP3   OH237853   4.561   2.824  16.450  0.0984  0.4118 -0.0040
 4553TIP3    H137854   4.551   2.816  16.355  1.5736  0.8762 -0.2256
 4553TIP3    H237855   4.656   2.816  16.465 -0.2429 -1.4293  1.6106
 4554TIP3   OH237856   3.118   3.174  18.191 -0.5748 -0.1035 -0.4962
 4554TIP3    H137857   3.198   3.126  18.214 -0.2853  0.8790  0.6285
 4554TIP3    H237858   3.047   3.118  18.222 -0.3807 -1.1353 -1.7844
 4555TIP3   OH237859   5.675   6.654  15.859  0.5649  0.3967 -0.1170
 4555TIP3    H137860   5.770   6.643  15.864  0.6374  0.8491 -0.5165
 4555TIP3    H237861   5.641   6.589  15.921  1.0573 -0.9467 -1.2063
 4556TIP3   OH237862   1.998   6.639  18.910 -0.2389  0.0564 -1.0318
 4556TIP3    H137863   1.904   6.655  18.918 -0.3263  0.4544 -2.4550
 4556TIP3    H237864   2.006   6.544  18.903 -0.5472  0.0297 -1.0235
 4557TIP3   OH237865   5.220   1.630  17.450 -0.4749 -0.8864  0.0141
 4557TIP3    H137866   5.227   1.716  17.492  0.1908 -0.9515  0.0560
 4557TIP3    H237867   5.137   1.595  17.481 -1.5879  0.4372 -1.3359
 4558TIP3   OH237868   1.474   7.125  18.895  0.3177  0.2011 -0.2185
 4558TIP3    H137869   1.545   7.112  18.957 -1.0938 -1.7862  1.0721
 4558TIP3    H237870   1.474   7.046  18.841 -0.3914  0.5653 -0.7764
 4559TIP3   OH237871   5.264   5.638  17.007 -0.5628  0.1258  0.5085
 4559TIP3    H137872   5.293   5.673  16.923 -2.1924 -1.6471 -0.8809
 4559TIP3    H237873   5.342   5.598  17.045  0.0349  0.2774 -0.5157
 4560TIP3   OH237874   4.665   4.392  17.314 -0.4931 -0.3747  0.0845
 4560TIP3    H137875   4.650   4.435  17.398  0.2406  1.7790 -0.8153
 4560TIP3    H237876   4.606   4.437  17.253 -1.5289 -2.3731 -0.4613
 4561TIP3   OH237877   3.188   6.358  17.134  0.8361  0.2923  0.3011
 4561TIP3    H137878   3.147   6.443  17.116 -0.4137 -0.0668  1.3232
 4561TIP3    H237879   3.218   6.364  17.224  2.4100  0.2744 -0.1961
 4562TIP3   OH237880   5.287   3.882  16.782 -0.7572 -0.6284 -0.1489
 4562TIP3    H137881   5.373   3.855  16.750 -0.6968 -1.0717  0.3672
 4562TIP3    H237882   5.284   3.977  16.765  0.5389 -0.2606  1.3729
 4563TIP3   OH237883   1.059   3.809  16.414  0.7571 -0.0955 -0.3733
 4563TIP3    H137884   1.109   3.850  16.485 -0.9996  0.6447  0.4895
 4563TIP3    H237885   1.076   3.864  16.338  2.1936 -0.5606 -0.4279
 4564TIP3   OH237886   1.361   5.820  18.382 -0.0635 -0.2540  0.2650
 4564TIP3    H137887   1.349   5.764  18.305  0.8005  1.2075 -1.0002
 4564TIP3    H237888   1.319   5.773  18.453 -2.7999 -0.7209 -1.4966
 4565TIP3   OH237889   5.789   7.128  17.354  0.1566  0.5416  0.3614
 4565TIP3    H137890   5.827   7.104  17.439 -0.8153  0.0494  0.6778
 4565TIP3    H237891   5.741   7.050  17.327  1.8601  0.0554 -1.5072
 4566TIP3   OH237892   5.223   7.474  16.590 -0.8349  0.0120  0.3788
 4566TIP3    H137893   5.143   7.439  16.552  1.0364 -2.9458 -1.2478
 4566TIP3    H237894   5.251   7.542  16.528 -1.5624  0.3652  0.4305
 4567TIP3   OH237895   5.085   5.424  16.814  0.9901  0.1960 -0.2308
 4567TIP3    H137896   5.041   5.354  16.766  0.7039  0.3225 -0.1605
 4567TIP3    H237897   5.015   5.487  16.832  1.2074  0.4070 -0.1299
 4568TIP3   OH237898   5.668   3.106  18.612 -0.8329  0.2917 -0.2282
 4568TIP3    H137899   5.580   3.143  18.606 -1.1072 -0.2273  0.4697
 4568TIP3    H237900   5.657   3.025  18.662  0.2504  0.9939  1.2323
 4569TIP3   OH237901   5.350   2.344  16.819  0.1010  0.4440 -0.2130
 4569TIP3    H137902   5.407   2.330  16.744 -0.9214  1.7363 -1.2843
 4569TIP3    H237903   5.360   2.437  16.840  1.4468 -0.1414  2.2230
 4570TIP3   OH237904   0.281   2.705  19.127 -0.0098 -0.0354  0.1850
 4570TIP3    H137905   0.272   2.800  19.133 -3.2436  0.2214 -3.7227
 4570TIP3    H237906   0.373   2.691  19.107  0.7047  2.1699  1.5570
 4571TIP3   OH237907   5.000   6.113  16.961  0.2662 -0.3733  0.0540
 4571TIP3    H137908   5.083   6.143  16.923 -0.2979  0.4278 -0.5857
 4571TIP3    H237909   4.965   6.052  16.896  0.0147 -0.1518 -0.0225
 4572TIP3   OH237910   4.964   4.700  16.300  0.5109 -0.0482  0.7441
 4572TIP3    H137911   5.024   4.649  16.246  0.0119  0.4662 -0.3394
 4572TIP3    H237912   4.885   4.646  16.304 -0.7506  1.3624 -2.0552
 4573TIP3   OH237913   4.388   5.135  15.710 -0.0558 -0.1952  0.3382
 4573TIP3    H137914   4.293   5.133  15.703 -0.0519 -0.4120  0.3652
 4573TIP3    H237915   4.406   5.210  15.768 -0.1318  0.8828 -0.9760
 4574TIP3   OH237916   3.145   6.914  17.653 -0.3180 -0.0895  0.1369
 4574TIP3    H137917   3.119   6.854  17.583  2.0470 -0.2730 -0.6788
 4574TIP3    H237918   3.138   7.001  17.615  0.0283 -0.1230 -0.0055
 4575TIP3   OH237919   6.717   6.512  17.345  0.3779 -0.0712 -0.2447
 4575TIP3    H137920   6.704   6.560  17.427  0.0236 -0.2202 -0.2138
 4575TIP3    H237921   6.798   6.548  17.309 -0.8921  1.9526 -1.2159
 4576TIP3   OH237922   4.962   0.878  17.380  0.2622 -0.1852  0.3018
 4576TIP3    H137923   4.968   0.809  17.314  0.6797  1.2962 -1.2740
 4576TIP3    H237924   5.012   0.951  17.343 -3.7060  2.5863 -0.2315
 4577TIP3   OH237925   3.094   6.820  18.135  0.0343 -0.1337  0.0183
 4577TIP3    H137926   3.138   6.837  18.052 -0.0774  1.2088  0.1999
 4577TIP3    H237927   3.057   6.905  18.160 -1.0544 -0.8097  0.7945
 4578TIP3   OH237928   4.265   2.719  16.895 -0.5972 -0.3245 -0.4446
 4578TIP3    H137929   4.316   2.654  16.846 -2.2082 -0.1434 -2.5245
 4578TIP3    H237930   4.331   2.782  16.926  0.6085 -0.8437 -1.8013
 4579TIP3   OH237931   1.647   1.204  17.940  0.1627 -0.2571 -0.0145
 4579TIP3    H137932   1.649   1.272  18.008  0.7942  0.5705 -0.8339
 4579TIP3    H237933   1.729   1.216  17.892 -0.6465 -0.2833 -1.4487
 4580TIP3   OH237934   4.252   2.297  16.208  0.0205  0.4853 -0.2661
 4580TIP3    H137935   4.290   2.385  16.212 -0.6204  0.7696 -0.2350
 4580TIP3    H237936   4.327   2.238  16.202  0.6740  0.7663  3.1026
 4581TIP3   OH237937   7.331   2.321  16.034 -0.3096 -0.2089 -0.1214
 4581TIP3    H137938   7.381   2.245  16.062 -1.0605 -0.8467 -0.4571
 4581TIP3    H237939   7.392   2.372  15.981  0.0682 -0.8075 -0.2704
 4582TIP3   OH237940   3.985   4.675  17.374 -0.3671  0.4871  0.0637
 4582TIP3    H137941   3.944   4.730  17.307 -0.7677 -0.5455 -0.5689
 4582TIP3    H237942   4.026   4.736  17.434 -0.8329  1.4716 -0.6013
 4583TIP3   OH237943   2.599   3.411  18.889 -0.1360 -0.0519  0.2371
 4583TIP3    H137944   2.539   3.475  18.851 -0.9972 -0.8849  0.1551
 4583TIP3    H237945   2.670   3.464  18.926  0.9898  0.8165 -2.8295
 4584TIP3   OH237946   0.232   3.636  18.698 -0.1730  0.5741  0.6104
 4584TIP3    H137947   0.290   3.680  18.635 -1.1994  1.5293  0.3045
 4584TIP3    H237948   0.243   3.686  18.779  0.1536  0.1515  0.8324
 4585TIP3   OH237949   1.951   0.239  18.193 -0.1647  0.0404  0.0563
 4585TIP3    H137950   1.998   0.320  18.213 -1.5760  1.5556 -2.2779
 4585TIP3    H237951   1.992   0.207  18.113  0.9951 -2.1745  1.4304
 4586TIP3   OH237952   3.417   1.958  16.678 -0.1147 -0.4422 -0.0011
 4586TIP3    H137953   3.506   1.922  16.682  0.2147  0.3215 -0.2326
 4586TIP3    H237954   3.373   1.920  16.754  1.6627  2.4386  2.7439
 4587TIP3   OH237955   6.282   1.424  16.341 -0.0523  0.2516  0.0969
 4587TIP3    H137956   6.188   1.442  16.344 -0.0344  0.4320 -0.3765
 4587TIP3    H237957   6.288   1.337  16.301 -0.0326  0.1275  0.3719
 4588TIP3   OH237958   1.521   2.329  17.182  0.0231 -0.0858 -0.4405
 4588TIP3    H137959   1.542   2.411  17.226  2.7380 -0.7375 -0.3739
 4588TIP3    H237960   1.527   2.349  17.089  1.1808 -0.2973 -0.4211
 4589TIP3   OH237961   0.849   1.603  18.949  0.1570  0.4767 -0.0647
 4589TIP3    H137962   0.760   1.611  18.913  0.1257  0.2583 -0.0362
 4589TIP3    H237963   0.863   1.686  18.995  0.3552  0.9225 -0.9174
 4590TIP3   OH237964   1.496   0.982  18.266 -0.1701 -0.1162 -0.0449
 4590TIP3    H137965   1.500   0.886  18.275  0.7396 -0.1046 -0.2349
 4590TIP3    H237966   1.414   1.006  18.309  0.4542 -0.8031  1.6545
 4591TIP3   OH237967   0.205   7.303  17.179 -0.0676 -0.0874 -0.6456
 4591TIP3    H137968   0.292   7.266  17.199  0.0419 -0.2065 -1.3289
 4591TIP3    H237969   0.173   7.334  17.264  1.1744  1.1254 -0.5867
 4592TIP3   OH237970   3.568   1.747  16.729 -0.1143  0.1379 -0.3746
 4592TIP3    H137971   3.584   1.679  16.663  1.0646 -1.5506  1.5484
 4592TIP3    H237972   3.624   1.723  16.802  0.8668  3.6157  0.1632
 4593TIP3   OH237973   1.273   5.899  17.300  0.1784  0.0815  0.2763
 4593TIP3    H137974   1.354   5.912  17.350  1.1308  1.0349 -1.4248
 4593TIP3    H237975   1.302   5.884  17.210 -1.4973 -1.2567 -0.0962
 4594TIP3   OH237976   5.910   4.389  17.375 -0.1831  0.6539  0.1874
 4594TIP3    H137977   5.925   4.413  17.466 -0.8288  1.7099  0.0401
 4594TIP3    H237978   5.941   4.464  17.324  0.1466  0.0915 -0.4601
 4595TIP3   OH237979   2.472   4.436  17.203  0.2710 -0.4842 -0.3364
 4595TIP3    H137980   2.481   4.453  17.297  2.3630 -1.0478 -0.3738
 4595TIP3    H237981   2.509   4.513  17.161  0.7234 -0.8719 -0.6614
 4596TIP3   OH237982   6.843   5.917  17.328  0.1671 -0.0537 -0.2105
 4596TIP3    H137983   6.799   5.842  17.288  0.5526 -1.0354  1.1306
 4596TIP3    H237984   6.827   5.989  17.267 -1.1928 -0.9439 -0.9742
 4597TIP3   OH237985   4.566   6.497  16.550 -0.3595  0.1256 -0.1009
 4597TIP3    H137986   4.550   6.527  16.461  1.3036  0.3746 -0.3581
 4597TIP3    H237987   4.576   6.578  16.601 -0.0535 -0.0064  0.0512
 4598TIP3   OH237988   6.404   4.158  18.336  0.1553 -0.1887  0.3043
 4598TIP3    H137989   6.345   4.105  18.284  1.3827 -0.1702 -1.1905
 4598TIP3    H237990   6.348   4.226  18.374 -0.9308 -0.7623 -0.2156
 4599TIP3   OH237991   3.761   1.329  16.061 -0.3006  0.7717  0.1470
 4599TIP3    H137992   3.727   1.328  15.971 -1.8208 -0.7911  0.6745
 4599TIP3    H237993   3.849   1.366  16.054 -0.9586  2.1124 -1.7551
 4600TIP3   OH237994   6.411   6.010  17.154  0.2898  0.1817  0.3729
 4600TIP3    H137995   6.365   6.046  17.230  0.7346 -1.7892  1.6504
 4600TIP3    H237996   6.457   6.085  17.116 -1.5551  1.6117  0.8209
 4601TIP3   OH237997   0.302   4.105  17.197  0.0828  0.0169  0.6931
 4601TIP3    H137998   0.213   4.139  17.206 -0.2993 -1.3634  2.5341
 4601TIP3    H237999   0.358   4.182  17.209 -0.8145  0.5746  1.4591
 4602TIP3   OH238000   6.836   1.863  18.049 -0.2553  0.9970  0.3377
 4602TIP3    H138001   6.772   1.908  17.993 -0.8983  0.2048  0.4172
 4602TIP3    H238002   6.909   1.925  18.056 -0.7729  1.6920 -0.2095
 4603TIP3   OH238003   3.337   5.666  17.216 -0.0002 -0.4338  0.5174
 4603TIP3    H138004   3.362   5.601  17.151  0.0200  0.1854 -0.1133
 4603TIP3    H238005   3.342   5.750  17.169  0.5091  0.0799  1.4531
 4604TIP3   OH238006   4.392   1.577  15.855  0.5309  0.8785  0.1039
 4604TIP3    H138007   4.441   1.501  15.888  1.6074 -0.0515 -3.1777
 4604TIP3    H238008   4.325   1.593  15.921  2.1161 -1.0395  2.3613
 4605TIP3   OH238009   4.091   0.973  18.571  0.1220 -0.3715  0.0501
 4605TIP3    H138010   4.008   0.987  18.526  0.8429  1.6785 -0.7869
 4605TIP3    H238011   4.068   0.982  18.664 -0.9335 -2.0249 -0.0192
 4606TIP3   OH238012   4.742   1.272  18.227 -0.1812 -0.3313 -0.1517
 4606TIP3    H138013   4.703   1.284  18.140  0.9190  1.5544 -0.4310
 4606TIP3    H238014   4.752   1.177  18.235 -1.4031 -0.6230 -1.5793
 4607TIP3   OH238015   0.704   0.409  18.306  1.2494 -0.2781  0.3700
 4607TIP3    H138016   0.733   0.317  18.306 -1.8020 -1.3689 -1.0284
 4607TIP3    H238017   0.657   0.419  18.389  0.2045 -0.4996 -0.1844
 4608TIP3   OH238018   0.136   6.950  18.525 -0.0208  0.1193 -0.2608
 4608TIP3    H138019   0.078   6.943  18.449 -1.6638 -0.5809  0.9893
 4608TIP3    H238020   0.104   7.026  18.573  0.8142  0.3852 -0.1162
 4609TIP3   OH238021   5.416   1.870  18.738 -0.0554 -0.3209  0.1168
 4609TIP3    H138022   5.432   1.897  18.828  0.6093 -0.0390 -0.0813
 4609TIP3    H238023   5.478   1.921  18.685  2.2273 -3.0750 -0.1545
 4610TIP3   OH238024   6.900   1.328  18.601  0.4754 -0.1470 -0.3293
 4610TIP3    H138025   6.874   1.394  18.666 -0.4150 -0.9360  0.1371
 4610TIP3    H238026   6.871   1.365  18.518  2.0050  1.0726 -0.3785
 4611TIP3   OH238027   2.549   3.907  18.039 -0.3334 -0.1107 -0.0047
 4611TIP3    H138028   2.467   3.951  18.063  0.4306  0.5055  1.6376
 4611TIP3    H238029   2.534   3.815  18.062 -0.2214  0.1830  1.3446
 4612TIP3   OH238030   1.201   2.935  16.517 -0.2049 -0.1089 -0.0854
 4612TIP3    H138031   1.237   2.998  16.456 -0.2002 -0.8035 -0.8137
 4612TIP3    H238032   1.113   2.917  16.484  0.8383 -2.7493 -1.6856
 4613TIP3   OH238033   2.576   7.023  18.869 -0.1041 -0.2401 -0.3074
 4613TIP3    H138034   2.651   7.083  18.880 -0.6560  0.6194 -1.0868
 4613TIP3    H238035   2.612   6.949  18.820  0.3731 -0.1060 -0.1679
 4614TIP3   OH238036   4.403   6.687  17.657 -0.5431  0.6528  0.1583
 4614TIP3    H138037   4.398   6.618  17.590  3.0051  0.1697  0.1793
 4614TIP3    H238038   4.407   6.768  17.606  0.4409  0.4113 -0.1786
 4615TIP3   OH238039   1.902   0.930  18.161 -0.3235 -0.0589 -0.4249
 4615TIP3    H138040   1.977   0.957  18.215 -0.9141  0.3813  0.1856
 4615TIP3    H238041   1.935   0.935  18.072  0.5137 -0.2975 -0.1436
 4616TIP3   OH238042   6.225   2.239  16.440 -0.4466 -0.2681 -0.2908
 4616TIP3    H138043   6.221   2.147  16.466  0.1620 -0.6282 -1.4220
 4616TIP3    H238044   6.308   2.247  16.393  0.2042  1.1907  0.9990
 4617TIP3   OH238045   6.632   4.151  17.080  0.6485 -0.2191 -0.3256
 4617TIP3    H138046   6.537   4.138  17.084  0.7727 -1.5829 -1.3008
 4617TIP3    H238047   6.642   4.226  17.020  0.1885  0.0479 -0.0792
 4618TIP3   OH238048   4.369   3.788  17.264  0.0898  0.1425 -0.0935
 4618TIP3    H138049   4.333   3.710  17.221  1.3668 -0.2777 -0.4548
 4618TIP3    H238050   4.336   3.783  17.354  1.7607 -1.9746  0.5076
 4619TIP3   OH238051   6.341   6.231  18.493 -0.2632  0.3413 -0.5560
 4619TIP3    H138052   6.396   6.298  18.455 -0.2965  0.3608 -0.5704
 4619TIP3    H238053   6.251   6.262  18.478 -0.2880  0.1046 -0.9104
 4620TIP3   OH238054   2.910   4.697  17.008  0.1975  0.1779 -0.3148
 4620TIP3    H138055   2.828   4.652  16.990  1.2081 -1.2154 -1.7198
 4620TIP3    H238056   2.887   4.763  17.073 -1.3434 -2.4585  2.0604
 4621TIP3   OH238057   2.262   5.613  17.546 -0.2340 -0.2949  0.0818
 4621TIP3    H138058   2.178   5.644  17.511  0.0151  0.5816  0.2191
 4621TIP3    H238059   2.243   5.526  17.582 -0.2418 -1.7806 -3.2199
 4622TIP3   OH238060   0.197   7.132  16.861 -0.3928  0.4972 -0.3128
 4622TIP3    H138061   0.183   7.048  16.904 -2.8093  0.3941 -1.1836
 4622TIP3    H238062   0.214   7.193  16.933 -2.1299 -0.0847  0.6569
 4623TIP3   OH238063   1.628   4.331  18.998  0.5238 -0.3085 -0.6825
 4623TIP3    H138064   1.646   4.280  19.077  1.7944  2.9000  1.3319
 4623TIP3    H238065   1.542   4.371  19.014  1.1806  1.0657 -0.4420
 4624TIP3   OH238066   4.497   6.917  16.565 -0.1472 -0.1841 -0.3598
 4624TIP3    H138067   4.474   6.881  16.650  1.6902  0.0031  0.2769
 4624TIP3    H238068   4.415   6.946  16.527 -1.1068 -1.0458  0.9816
 4625TIP3   OH238069   2.471   2.658  18.521  0.0517 -0.8915  0.0905
 4625TIP3    H138070   2.509   2.746  18.526  0.7838 -1.1954  0.0714
 4625TIP3    H238071   2.409   2.654  18.594  0.0899 -0.3975  0.1574
 4626TIP3   OH238072   1.549   2.241  16.675 -0.3890 -0.3395  0.7061
 4626TIP3    H138073   1.566   2.300  16.748  1.0371  0.8668 -0.5173
 4626TIP3    H238074   1.468   2.274  16.636  0.8837  1.5101 -0.5353
 4627TIP3   OH238075   6.006   3.976  17.546 -0.3974 -0.2105  0.0608
 4627TIP3    H138076   5.989   3.888  17.510  0.4996 -0.5289  0.3621
 4627TIP3    H238077   6.068   4.014  17.484 -0.1514 -0.1128  0.3644
 4628TIP3   OH238078   5.356   3.347  18.274  0.3859 -0.2553  0.4565
 4628TIP3    H138079   5.306   3.302  18.343 -1.2566  1.5811  0.5702
 4628TIP3    H238080   5.294   3.411  18.238  2.5880  2.0289  0.4461
 4629TIP3   OH238081   3.695   0.582  18.312 -0.0938 -0.2057 -0.4320
 4629TIP3    H138082   3.788   0.561  18.325 -0.1262 -0.9818 -1.3912
 4629TIP3    H238083   3.649   0.501  18.332 -0.5856  0.1826  0.0618
 4630TIP3   OH238084   0.761   6.374  18.158 -0.0424 -0.0205  0.4094
 4630TIP3    H138085   0.801   6.396  18.241  0.9324 -1.2810  0.3093
 4630TIP3    H238086   0.679   6.331  18.182 -0.0818  0.2095  0.6930
 4631TIP3   OH238087   6.965   5.039  17.239 -0.3820 -0.3550 -0.3173
 4631TIP3    H138088   7.057   5.044  17.266 -0.9404 -2.6355  2.4097
 4631TIP3    H238089   6.949   4.946  17.225 -2.2287  0.0219 -0.9303
 4632TIP3   OH238090   6.405   6.502  17.316  0.2761  0.2676 -0.0588
 4632TIP3    H138091   6.426   6.567  17.382 -2.1130  0.8661  0.2310
 4632TIP3    H238092   6.368   6.428  17.365  1.9445 -0.8874 -0.4714
 4633TIP3   OH238093   7.457   1.286  17.664  0.2432  0.7879 -0.4785
 4633TIP3    H138094   7.486   1.317  17.578 -0.0289 -1.0664 -1.3056
 4633TIP3    H238095   7.397   1.354  17.696  0.3883  1.5349 -1.7438
 4634TIP3   OH238096   2.510   2.869  15.585 -0.4374 -0.2459 -0.3420
 4634TIP3    H138097   2.534   2.797  15.644  0.8155  0.6616  0.3243
 4634TIP3    H238098   2.479   2.826  15.506  1.3624 -1.5559 -0.4009
 4635TIP3   OH238099   5.808   4.827  18.282 -0.4680  0.0036 -0.2085
 4635TIP3    H138100   5.777   4.916  18.262 -0.6081 -0.2224 -1.0368
 4635TIP3    H238101   5.903   4.832  18.270 -0.4320  0.1375  0.1285
 4636TIP3   OH238102   3.633   0.995  16.620 -0.3442 -0.2335 -0.0411
 4636TIP3    H138103   3.624   1.052  16.544  1.9508 -0.2103 -0.3524
 4636TIP3    H238104   3.677   0.916  16.587 -1.2187 -1.1444  0.8686
 4637TIP3   OH238105   2.510   5.835  16.636  0.4961  0.2373 -0.1420
 4637TIP3    H138106   2.454   5.757  16.638  0.0215  0.5811  0.4704
 4637TIP3    H238107   2.540   5.840  16.546 -1.4992  0.7546 -0.8405
 4638TIP3   OH238108   5.314   0.190  17.220 -0.2426  0.2325 -0.2629
 4638TIP3    H138109   5.230   0.221  17.184  0.1637 -0.7072 -2.1299
 4638TIP3    H238110   5.355   0.269  17.255 -1.5165  0.8674 -0.1156
 4639TIP3   OH238111   4.797   1.389  17.225  0.1356  0.2208 -0.5585
 4639TIP3    H138112   4.785   1.472  17.272 -0.9205  0.7140 -1.6181
 4639TIP3    H238113   4.709   1.366  17.195  0.6311 -0.5202 -1.5223
 4640TIP3   OH238114   2.030   7.186  18.200 -0.2856  0.1952 -0.4653
 4640TIP3    H138115   2.076   7.163  18.119 -1.6788 -0.0502 -1.2197
 4640TIP3    H238116   2.039   7.281  18.206  0.4224  0.1359 -0.5329
 4641TIP3   OH238117   3.668   1.693  16.078  0.0421  0.2604 -0.1094
 4641TIP3    H138118   3.656   1.773  16.027 -0.1575  0.0822 -0.3498
 4641TIP3    H238119   3.763   1.679  16.079  0.0919  0.6318  0.1430
 4642TIP3   OH238120   5.765   1.840  18.612 -0.1149  0.1701 -0.2653
 4642TIP3    H138121   5.837   1.872  18.558  0.1140  0.6648  0.3201
 4642TIP3    H238122   5.689   1.891  18.584  0.2475  1.2790  0.6632
 4643TIP3   OH238123   1.085   3.773  18.132  0.0144 -0.7089 -0.3064
 4643TIP3    H138124   1.153   3.725  18.084 -0.7966 -1.6636 -0.5309
 4643TIP3    H238125   1.014   3.784  18.069 -0.8143 -1.4266  0.4735
 4644TIP3   OH238126   7.033   7.072  16.802  0.1432 -0.4183 -0.8535
 4644TIP3    H138127   7.053   6.988  16.760 -0.7571 -0.3241 -1.4827
 4644TIP3    H238128   7.118   7.117  16.807  0.8529 -1.8300  0.5725
 4645TIP3   OH238129   1.160   7.315  17.915  0.8214 -0.6124 -0.8055
 4645TIP3    H138130   1.151   7.268  17.832  0.2364 -3.7514  0.8693
 4645TIP3    H238131   1.162   7.246  17.982 -0.2343  1.7877  1.9380
 4646TIP3   OH238132   5.870   2.016  19.183 -0.3568  0.0946 -0.6913
 4646TIP3    H138133   5.806   2.062  19.129  0.0047  0.8697 -0.4756
 4646TIP3    H238134   5.835   2.023  19.272  0.1883  0.8411 -0.5198
 4647TIP3   OH238135   0.806   1.923  16.953  0.1290 -0.6330 -0.7212
 4647TIP3    H138136   0.830   1.994  16.893  0.2823 -0.2636 -0.2287
 4647TIP3    H238137   0.711   1.928  16.960  0.1114 -0.6700 -0.9215
 4648TIP3   OH238138   1.629   0.995  17.626  0.2686 -0.5273  0.5813
 4648TIP3    H138139   1.559   1.058  17.643  0.6105  0.8164 -2.3551
 4648TIP3    H238140   1.592   0.911  17.654 -2.1424  0.2792  0.0964
 4649TIP3   OH238141   1.526   4.480  18.434 -0.0889 -0.1523 -0.3923
 4649TIP3    H138142   1.506   4.503  18.344 -1.1761 -1.6109 -0.5607
 4649TIP3    H238143   1.551   4.387  18.431 -0.4656 -0.3195  0.8399
 4650TIP3   OH238144   0.109   1.371  17.356 -0.2477  0.1758 -0.1811
 4650TIP3    H138145   0.128   1.294  17.303  1.3295  0.8425 -0.6759
 4650TIP3    H238146   0.037   1.414  17.311  0.8499  0.5579 -1.6644
 4651TIP3   OH238147   0.854   0.014  16.634 -0.2824 -0.2275 -0.3434
 4651TIP3    H138148   0.934  -0.027  16.600 -0.2180 -0.8415  0.5295
 4651TIP3    H238149   0.805   0.038  16.556 -0.7962 -2.8616 -0.9139
 4652TIP3   OH238150   3.258   5.944  17.581  0.0275  0.2990  0.6408
 4652TIP3    H138151   3.333   5.920  17.527  1.2328 -0.9422  2.7057
 4652TIP3    H238152   3.196   5.984  17.520  1.9416  0.4800 -1.3207
 4653TIP3   OH238153   6.625   1.089  16.539 -0.0583 -1.0384 -0.1305
 4653TIP3    H138154   6.534   1.108  16.517  0.3121  0.7438 -0.2749
 4653TIP3    H238155   6.661   1.048  16.461 -0.5416 -1.0655 -0.3386
 4654TIP3   OH238156   4.047   2.330  16.426 -0.5553  0.5188  0.5418
 4654TIP3    H138157   4.101   2.361  16.499  1.7811 -0.9362 -0.4560
 4654TIP3    H238158   4.082   2.375  16.349 -1.2083  0.0201 -0.0640
 4655TIP3   OH238159   6.721   0.592  18.502 -0.4138 -0.4260  0.3542
 4655TIP3    H138160   6.746   0.584  18.594 -1.5224 -0.9870  0.6181
 4655TIP3    H238161   6.656   0.662  18.501 -1.0040 -0.9695  0.1250
 4656TIP3   OH238162   6.512   2.022  16.572 -0.2272 -0.4090  0.0805
 4656TIP3    H138163   6.518   2.019  16.477  0.2984 -0.4614  0.1155
 4656TIP3    H238164   6.595   2.060  16.601 -1.0373  1.1861  0.4270
 4657TIP3   OH238165   2.320   5.322  18.871  0.0654 -0.2580 -0.4328
 4657TIP3    H138166   2.328   5.271  18.790  0.0762  1.1266 -1.3541
 4657TIP3    H238167   2.359   5.407  18.849 -0.3585  0.3015  0.8906
 4658TIP3   OH238168   2.393   2.776  17.417 -0.3668  0.1682  0.6831
 4658TIP3    H138169   2.409   2.720  17.342 -0.5803  1.8249 -0.6550
 4658TIP3    H238170   2.467   2.836  17.419 -1.2642  1.3263  0.6393
 4659TIP3   OH238171   3.513   5.343  16.228 -0.8720  0.3556 -0.6362
 4659TIP3    H138172   3.480   5.398  16.300 -0.8029  0.5817 -0.7777
 4659TIP3    H238173   3.461   5.263  16.234 -0.5477  0.1773 -0.0369
 4660TIP3   OH238174   2.826   2.475  18.539 -0.4177 -0.0399 -0.2344
 4660TIP3    H138175   2.879   2.425  18.601 -0.6810  0.2826  0.2603
 4660TIP3    H238176   2.752   2.417  18.519 -0.0742 -0.3445 -0.6448
 4661TIP3   OH238177   2.708   1.434  17.599  0.4238  0.4326 -0.3333
 4661TIP3    H138178   2.625   1.395  17.573  0.6874  0.7033 -1.6739
 4661TIP3    H238179   2.699   1.452  17.693 -0.9508  0.2890 -0.4294
 4662TIP3   OH238180   1.444   0.509  17.841 -0.3029  0.3587  0.0592
 4662TIP3    H138181   1.416   0.455  17.768  1.2510  0.2380 -0.4781
 4662TIP3    H238182   1.540   0.508  17.837 -0.0918 -0.4729  2.6634
 4663TIP3   OH238183   5.684   0.724  18.991  0.3680 -0.0394 -0.0642
 4663TIP3    H138184   5.624   0.656  18.961  0.2310 -0.2044  0.5649
 4663TIP3    H238185   5.628   0.802  19.002  0.8277  0.7538 -2.5829
 4664TIP3   OH238186   5.574   0.724  18.411  0.1614  0.0236 -0.4767
 4664TIP3    H138187   5.480   0.715  18.428 -0.7454  1.0034 -4.0738
 4664TIP3    H238188   5.606   0.634  18.406 -0.5145 -0.3217  0.9236
 4665TIP3   OH238189   6.059   3.649  17.934 -0.1111 -0.0815  0.0709
 4665TIP3    H138190   5.979   3.671  17.981  0.2668  1.3206  0.0983
 4665TIP3    H238191   6.086   3.565  17.971 -1.0356 -0.0959  0.7483
 4666TIP3   OH238192   4.393   6.679  18.307 -0.1115 -0.0284 -0.4943
 4666TIP3    H138193   4.470   6.721  18.345 -0.0335 -0.0251 -0.6551
 4666TIP3    H238194   4.419   6.658  18.217 -0.3795  0.1830 -0.6198
 4667TIP3   OH238195   7.151   1.370  18.496  0.4565  0.2486  0.2635
 4667TIP3    H138196   7.078   1.376  18.558  1.3045 -0.0364  1.3266
 4667TIP3    H238197   7.158   1.277  18.475 -1.7096  0.6087 -2.6602
 4668TIP3   OH238198   4.707   3.200  18.930  0.0241  0.1000 -0.3762
 4668TIP3    H138199   4.751   3.276  18.969 -0.2224  0.1438 -0.1805
 4668TIP3    H238200   4.735   3.126  18.985 -0.9876  0.2820  0.4195
 4669TIP3   OH238201   6.062   6.873  17.951 -0.1084 -0.1145  0.3105
 4669TIP3    H138202   6.115   6.876  17.872  1.6208 -1.1637  1.3832
 4669TIP3    H238203   5.981   6.829  17.924 -0.2284  0.9805 -1.2090
 4670TIP3   OH238204   6.244   3.414  17.484 -0.4690 -0.6617  0.6144
 4670TIP3    H138205   6.218   3.486  17.542  1.6640 -0.7172  1.7367
 4670TIP3    H238206   6.333   3.392  17.512 -0.4916 -2.7020 -0.7490
 4671TIP3   OH238207   1.021   5.062  18.745  0.1977 -0.2784  0.1276
 4671TIP3    H138208   1.079   5.100  18.679  0.4567 -0.5965  0.1670
 4671TIP3    H238209   1.079   5.007  18.798 -0.2574 -1.0867 -0.2068
 4672TIP3   OH238210   3.894   4.587  17.727  0.4852  0.2881  0.0144
 4672TIP3    H138211   3.818   4.565  17.780  0.0174 -1.9354 -1.4706
 4672TIP3    H238212   3.860   4.596  17.638  1.9632 -1.0845 -0.7349
 4673TIP3   OH238213   1.064   7.201  16.733 -0.0944  0.0790  0.4580
 4673TIP3    H138214   0.971   7.179  16.728 -0.5220  0.7155  3.6196
 4673TIP3    H238215   1.108   7.116  16.744 -0.1580 -0.2756 -1.5900
 4674TIP3   OH238216   4.684   5.751  18.558  0.2098 -0.5161  0.4903
 4674TIP3    H138217   4.662   5.839  18.588  1.1378 -0.5114  1.1981
 4674TIP3    H238218   4.737   5.714  18.629 -1.9169 -2.4453  1.2242
 4675TIP3   OH238219   6.616   6.769  18.500  0.9099  0.1919  0.0122
 4675TIP3    H138220   6.663   6.761  18.417 -2.1884 -0.3909 -1.8871
 4675TIP3    H238221   6.579   6.858  18.497 -1.1754 -0.6287 -0.4891
 4676TIP3   OH238222   2.752   0.351  18.628 -0.2151 -0.4175 -0.4119
 4676TIP3    H138223   2.666   0.326  18.660 -0.7781  0.6053 -1.0544
 4676TIP3    H238224   2.771   0.435  18.671  0.8771 -1.0547  0.4150
 4677TIP3   OH238225   3.293   4.795  16.931 -0.3145  0.2344 -0.3432
 4677TIP3    H138226   3.280   4.735  17.004 -0.3264  1.6403  0.8536
 4677TIP3    H238227   3.291   4.739  16.853  0.9276 -1.4819  0.7896
 4678TIP3   OH238228   3.013   0.604  15.587  0.6244  0.3634 -0.2356
 4678TIP3    H138229   2.942   0.557  15.543 -0.2431  2.5308 -1.2529
 4678TIP3    H238230   3.002   0.583  15.680  0.2631 -1.3596 -0.6218
 4679TIP3   OH238231   4.814   5.545  19.056  0.7601 -0.4321 -0.1549
 4679TIP3    H138232   4.748   5.478  19.034  0.1489 -0.2662  1.0501
 4679TIP3    H238233   4.772   5.628  19.031  1.1325 -0.4218 -0.7665
 4680TIP3   OH238234   0.634   1.527  18.783 -0.2592 -0.2152  0.2106
 4680TIP3    H138235   0.617   1.433  18.775  0.0653 -0.2340 -0.3577
 4680TIP3    H238236   0.548   1.566  18.798 -0.5211 -0.5190 -0.4572
 4681TIP3   OH238237   7.393   7.075  16.781  0.1470 -1.1998  0.6335
 4681TIP3    H138238   7.352   6.989  16.771  1.1545 -1.5863 -0.3679
 4681TIP3    H238239   7.452   7.065  16.856 -0.4721 -1.0828  1.1400
 4682TIP3   OH238240   0.384   4.833  18.277 -0.1408  0.0187  0.2554
 4682TIP3    H138241   0.457   4.866  18.223  0.8734  0.5949  1.9058
 4682TIP3    H238242   0.309   4.885  18.250  0.0776 -0.4425 -1.3400
 4683TIP3   OH238243   4.725   1.826  18.125  0.1817  0.2327  0.5627
 4683TIP3    H138244   4.750   1.734  18.110  1.1698  0.5236  0.3773
 4683TIP3    H238245   4.808   1.871  18.143 -0.1680  1.2817 -0.3384
 4684TIP3   OH238246   6.079   2.457  18.493  0.1861 -0.3841  0.0086
 4684TIP3    H138247   6.054   2.509  18.569  0.7285 -0.8277  0.4904
 4684TIP3    H238248   6.069   2.366  18.521  1.2375 -0.5582 -0.1612
 4685TIP3   OH238249   5.760   2.211  18.781  0.2731  0.1932 -0.0729
 4685TIP3    H138250   5.731   2.202  18.871  1.3756  1.7090  0.4849
 4685TIP3    H238251   5.683   2.190  18.728 -0.6674  0.2448  1.2319
 4686TIP3   OH238252   5.278   5.896  18.772 -0.3015 -0.0296 -0.0773
 4686TIP3    H138253   5.201   5.944  18.801  0.1231  0.6208  0.0100
 4686TIP3    H238254   5.244   5.819  18.727 -1.0041  0.4159 -0.3201
 4687TIP3   OH238255   3.015   7.177  18.006  0.0318 -0.4789 -0.2510
 4687TIP3    H138256   2.969   7.160  18.088 -1.3849 -0.3969 -0.9985
 4687TIP3    H238257   3.108   7.162  18.027 -0.4137 -1.6505  1.0369
 4688TIP3   OH238258   0.719   5.958  17.842 -0.2484  0.4988  0.1181
 4688TIP3    H138259   0.758   5.894  17.782 -1.1165 -0.1229  0.1932
 4688TIP3    H238260   0.625   5.942  17.836 -0.3978  0.9478  1.0649
 4689TIP3   OH238261   4.317   2.290  18.911  0.6185 -0.2526 -0.8121
 4689TIP3    H138262   4.226   2.302  18.938  0.7538  0.2553 -0.5556
 4689TIP3    H238263   4.313   2.239  18.830  0.0984 -0.0799 -0.8939
 4690TIP3   OH238264   1.255   1.291  18.237  0.4376 -0.4803  0.1840
 4690TIP3    H138265   1.198   1.255  18.169 -1.4292 -0.3420  1.5836
 4690TIP3    H238266   1.257   1.223  18.305  2.5951 -0.7919 -0.1345
 4691TIP3   OH238267   2.655   7.007  18.150 -0.0431 -0.1555 -0.4597
 4691TIP3    H138268   2.644   7.007  18.055  1.0171 -0.1787 -0.6004
 4691TIP3    H238269   2.725   7.070  18.165  1.6014 -2.0083  0.0579
 4692TIP3   OH238270   1.053   6.372  18.153 -0.1184 -0.1833  0.4463
 4692TIP3    H138271   1.001   6.408  18.081  1.2668 -2.0701 -1.6318
 4692TIP3    H238272   0.994   6.312  18.198 -1.1337  1.3418  1.2625
 4693TIP3   OH238273   3.379   5.976  18.335 -0.1285  0.0459  0.0699
 4693TIP3    H138274   3.356   6.009  18.248  0.2513  2.3826  0.8063
 4693TIP3    H238275   3.467   6.010  18.351  0.0398 -0.8500  1.1475
 4694TIP3   OH238276   5.183   0.006  16.023 -0.0968  0.0010  0.5086
 4694TIP3    H138277   5.132   0.059  16.083  1.0376  2.1405 -0.3165
 4694TIP3    H238278   5.264  -0.014  16.071  0.6084  1.3157 -0.0836
 4695TIP3   OH238279   1.091   7.154  18.140  0.3547  0.3552  0.4153
 4695TIP3    H138280   1.171   7.131  18.187  0.6127  1.2040  0.4173
 4695TIP3    H238281   1.021   7.116  18.192  0.8075 -1.7240 -0.3777
 4696TIP3   OH238282   2.834   3.435  17.165  0.2151  0.1632  0.2074
 4696TIP3    H138283   2.827   3.427  17.260 -1.4313  1.8939  0.3009
 4696TIP3    H238284   2.906   3.377  17.141 -0.2190 -1.4057  2.3354
 4697TIP3   OH238285   5.810   0.918  18.763  0.2026 -0.0837 -0.2509
 4697TIP3    H138286   5.740   0.852  18.761  0.3732 -0.3245 -3.2338
 4697TIP3    H238287   5.886   0.874  18.726  1.6287  0.5680  1.7460
 4698TIP3   OH238288   0.518   4.206  17.486 -0.1133 -0.2273  0.1660
 4698TIP3    H138289   0.560   4.214  17.401  0.4920  2.7711  0.6302
 4698TIP3    H238290   0.589   4.180  17.546 -0.6101 -2.6932 -0.2055
 4699TIP3   OH238291   0.823   5.926  18.155  0.2996  0.1970 -0.4743
 4699TIP3    H138292   0.771   5.963  18.083  0.3239  0.5747 -0.3019
 4699TIP3    H238293   0.806   5.832  18.151 -0.9649  0.3860  0.0125
 4700TIP3   OH238294   7.119   1.380  16.481 -0.1406  0.1561  0.8195
 4700TIP3    H138295   7.054   1.370  16.411  1.5536 -2.7747 -0.5177
 4700TIP3    H238296   7.185   1.439  16.444 -0.4019  0.4748  0.8626
 4701TIP3   OH238297   4.325   6.146  15.970  0.5870 -0.7219  0.1405
 4701TIP3    H138298   4.262   6.161  15.900  0.6572 -0.7702  0.0670
 4701TIP3    H238299   4.281   6.178  16.049  0.8290  0.1164 -0.0472
 4702TIP3   OH238300   6.750   2.105  16.598  0.3396  0.2301  0.5836
 4702TIP3    H138301   6.749   2.151  16.514 -0.6783  1.0861  1.0457
 4702TIP3    H238302   6.839   2.120  16.631  0.2471  1.2572  0.3942
 4703TIP3   OH238303   5.540   0.487  18.016  0.5073  0.2501  0.3224
 4703TIP3    H138304   5.617   0.540  17.995  1.5564 -1.1843  0.3889
 4703TIP3    H238305   5.566   0.437  18.093 -0.2074 -0.8188 -0.1090
 4704TIP3   OH238306   6.001   1.451  17.464 -0.6839  0.3522 -0.2759
 4704TIP3    H138307   5.930   1.394  17.494 -0.9668  1.2559  0.8271
 4704TIP3    H238308   6.047   1.477  17.544  1.9599 -1.5155 -1.0526
 4705TIP3   OH238309   7.447   6.487  16.126  0.2548  0.2212 -0.0797
 4705TIP3    H138310   7.524   6.456  16.078  0.4861  1.4809 -0.5661
 4705TIP3    H238311   7.475   6.569  16.166 -1.1959  1.4205 -1.3757
 4706TIP3   OH238312   6.360   1.243  17.475  0.1375  0.2160  0.2536
 4706TIP3    H138313   6.337   1.153  17.454  0.1512  0.6336 -1.8068
 4706TIP3    H238314   6.456   1.244  17.472  0.1267  0.8905 -2.9251
 4707TIP3   OH238315   3.110   1.171  18.543  0.5579  0.0389 -0.1604
 4707TIP3    H138316   3.021   1.190  18.517 -0.1093 -2.1682  0.2473
 4707TIP3    H238317   3.140   1.105  18.480  0.8538 -1.3091  1.3210
 4708TIP3   OH238318   5.490   5.772  18.438 -0.6287 -0.0105  0.6431
 4708TIP3    H138319   5.495   5.850  18.492  1.2291  2.1154 -2.3148
 4708TIP3    H238320   5.402   5.773  18.401 -0.8118  0.3093  1.0863
 4709TIP3   OH238321   4.613   0.485  17.058  0.1797 -0.0649  0.1082
 4709TIP3    H138322   4.667   0.413  17.024 -0.5933 -0.3934 -0.4599
 4709TIP3    H238323   4.621   0.478  17.153  1.1051 -0.1222  0.0359
 4710TIP3   OH238324   7.178   6.470  18.595  0.6074 -0.2973 -0.1110
 4710TIP3    H138325   7.156   6.405  18.661  2.8837 -0.9733  0.0929
 4710TIP3    H238326   7.133   6.441  18.516 -1.8852  0.3418  0.9827
 4711TIP3   OH238327   2.253   1.920  18.512 -0.1240  0.8767  0.4942
 4711TIP3    H138328   2.214   1.906  18.426 -1.7032  0.1203  1.2928
 4711TIP3    H238329   2.220   2.005  18.540  1.3041  1.6598 -0.0855
 4712TIP3   OH238330   0.452   1.931  17.100 -0.0365  0.0067 -0.1031
 4712TIP3    H138331   0.436   1.847  17.143 -0.8166  0.4539  0.4967
 4712TIP3    H238332   0.388   1.935  17.029 -1.4978  1.0066  1.1939
 4713TIP3   OH238333   0.401   4.839  16.523 -0.0568 -0.8967 -0.5397
 4713TIP3    H138334   0.445   4.839  16.438  0.1169 -0.5654 -0.4540
 4713TIP3    H238335   0.406   4.748  16.553 -1.9577 -1.4618 -1.7993
 4714TIP3   OH238336   3.259   3.735  16.352 -0.4602 -0.1810 -0.0244
 4714TIP3    H138337   3.247   3.780  16.269 -0.9970 -3.4631 -1.9139
 4714TIP3    H238338   3.172   3.732  16.391 -0.3295  0.7995  0.3541
 4715TIP3   OH238339   4.534   0.109  17.862 -0.0105  0.1643  0.4755
 4715TIP3    H138340   4.618   0.135  17.898  1.2394  0.5465 -2.4313
 4715TIP3    H238341   4.516   0.024  17.901  1.8029  0.0207  1.0744
 4716TIP3   OH238342   6.450   6.541  17.787 -0.6956 -0.9202 -0.3647
 4716TIP3    H138343   6.440   6.469  17.724 -1.1339  0.8783 -2.4597
 4716TIP3    H238344   6.545   6.546  17.801 -0.7513 -3.1241  1.4120
 4717TIP3   OH238345   0.306   4.601  18.896 -0.4750  0.1808  0.3438
 4717TIP3    H138346   0.401   4.591  18.902 -0.4471  0.0945 -0.1997
 4717TIP3    H238347   0.292   4.696  18.894 -0.3841  0.1892  0.1494
 4718TIP3   OH238348   7.212   2.030  18.478 -0.3093  0.8884 -0.1272
 4718TIP3    H138349   7.168   2.048  18.560 -0.7404 -1.5174  0.2299
 4718TIP3    H238350   7.143   2.001  18.419  0.5147 -1.7303  0.0675
 4719TIP3   OH238351   4.877   2.769  18.688  0.5806 -0.0079  0.3107
 4719TIP3    H138352   4.815   2.712  18.643  1.9293 -0.8065 -0.6015
 4719TIP3    H238353   4.858   2.857  18.654  0.2340 -0.3079 -0.2824
 4720TIP3   OH238354   5.967   6.201  17.719 -0.1430  0.1073 -0.8394
 4720TIP3    H138355   5.938   6.229  17.806  0.2188 -0.2849 -0.5894
 4720TIP3    H238356   6.044   6.254  17.701  0.9090 -1.1056 -0.1052
 4721TIP3   OH238357   0.556   0.136  18.726 -0.2398 -0.3988 -0.2580
 4721TIP3    H138358   0.553   0.220  18.679 -1.2190 -0.5681 -0.5167
 4721TIP3    H238359   0.641   0.137  18.770 -0.5461  1.0779  0.3783
 4722TIP3   OH238360   6.509   2.286  18.195 -0.1257 -0.4610 -0.5434
 4722TIP3    H138361   6.546   2.375  18.188 -1.8975  0.3610  0.0568
 4722TIP3    H238362   6.468   2.271  18.109  0.0337 -0.6380 -0.5883
 4723TIP3   OH238363   7.239   2.653  18.830  0.4933  0.9579  0.0556
 4723TIP3    H138364   7.269   2.693  18.749  0.5931 -0.3421 -0.5865
 4723TIP3    H238365   7.161   2.702  18.854  1.6339  2.7157  0.3366
 4724TIP3   OH238366   7.316   5.929  18.251  0.1671 -0.3300 -0.0596
 4724TIP3    H138367   7.326   6.024  18.261 -0.6956 -0.3977  1.7693
 4724TIP3    H238368   7.302   5.916  18.158  3.0701  1.0571 -0.8112
 4725TIP3   OH238369   7.443   6.849  16.374  0.3252  0.0743  0.1196
 4725TIP3    H138370   7.533   6.879  16.383  0.4473 -0.3472  0.3269
 4725TIP3    H238371   7.389   6.925  16.398  0.6268  0.0119  1.0174
 4726TIP3   OH238372   4.377   1.688  17.832  0.0846 -0.4132  0.1091
 4726TIP3    H138373   4.355   1.599  17.805 -1.3644  0.0562 -0.3579
 4726TIP3    H238374   4.451   1.678  17.892  0.0294 -1.9088 -0.0434
 4727TIP3   OH238375   4.219   5.696  18.773 -0.6956  0.3621  0.4453
 4727TIP3    H138376   4.254   5.740  18.850 -1.8454  0.9388  0.6657
 4727TIP3    H238377   4.125   5.716  18.775 -0.8421 -0.1158 -0.7705
 4728TIP3   OH238378   4.335   0.443  18.167  0.1205  0.2561  0.2376
 4728TIP3    H138379   4.427   0.459  18.191  0.4985  0.3678 -1.2290
 4728TIP3    H238380   4.297   0.530  18.161 -0.2474  0.1912  1.3956
 4729TIP3   OH238381   7.354   1.024  17.568  0.0844  0.1228 -0.1891
 4729TIP3    H138382   7.300   1.009  17.490  0.5854 -0.9165 -0.3604
 4729TIP3    H238383   7.436   1.060  17.534  1.0660 -2.1626 -0.3890
 4730TIP3   OH238384   1.456   1.689  18.544  0.2703  0.4521 -0.3849
 4730TIP3    H138385   1.417   1.703  18.458  1.0593 -0.0511 -0.8468
 4730TIP3    H238386   1.550   1.697  18.529  0.4391 -0.0356  0.3523
 4731TIP3   OH238387   1.067   2.558  17.690  0.3060  0.2074  0.2108
 4731TIP3    H138388   1.123   2.487  17.660 -0.2944 -0.6173  0.9963
 4731TIP3    H238389   1.115   2.597  17.763  0.6723  0.6734 -0.2721
 4732TIP3   OH238390   1.972   2.574  17.334 -0.0651  0.1799 -0.4130
 4732TIP3    H138391   1.991   2.484  17.309 -2.4417 -0.0814 -1.5192
 4732TIP3    H238392   1.911   2.568  17.406  0.5372  0.9419  0.1833
 4733TIP3   OH238393   2.187   3.147  18.249 -0.1390 -0.3235  0.2480
 4733TIP3    H138394   2.124   3.099  18.195 -0.9933 -0.1983  1.0981
 4733TIP3    H238395   2.232   3.206  18.188 -0.0169 -1.2409 -0.5702
 4734TIP3   OH238396   2.239   7.306  17.283  0.0018  0.1478 -0.3107
 4734TIP3    H138397   2.269   7.392  17.254  1.6241 -0.3589 -0.2338
 4734TIP3    H238398   2.259   7.247  17.210 -0.0246 -0.3621  0.0887
 4735TIP3   OH238399   2.998   2.938  18.243  0.5170 -0.5847 -0.3750
 4735TIP3    H138400   2.903   2.933  18.246  0.5648 -3.5166 -0.8758
 4735TIP3    H238401   3.022   2.915  18.153  1.7072 -1.6201  0.1645
 4736TIP3   OH238402   2.916   2.609  17.689  0.4067 -0.0734  0.1813
 4736TIP3    H138403   2.924   2.607  17.594  3.5061 -1.6877  0.3518
 4736TIP3    H238404   2.900   2.700  17.710  1.7576  0.6981 -1.8275
 4737TIP3   OH238405   0.691   2.056  17.537 -0.6680  0.2048  0.2464
 4737TIP3    H138406   0.681   2.129  17.476  0.6669  0.8123  0.7141
 4737TIP3    H238407   0.733   1.987  17.485 -0.6317  0.2912  0.1603
 4738TIP3   OH238408   4.211   1.497  16.418 -0.3610 -0.5790 -0.2565
 4738TIP3    H138409   4.284   1.531  16.366 -1.3554 -0.0062 -1.3162
 4738TIP3    H238410   4.210   1.403  16.400 -0.2083 -0.5061 -0.6592
 4739TIP3   OH238411   1.369   2.876  18.984  0.4147 -0.0172 -0.3670
 4739TIP3    H138412   1.383   2.951  19.042  0.3048  0.6348 -1.1497
 4739TIP3    H238413   1.274   2.873  18.972  0.3858 -0.5475 -0.0048
 4740TIP3   OH238414   6.607   3.022  18.960  0.1760 -0.3565 -0.9264
 4740TIP3    H138415   6.580   3.090  18.898  0.0063 -0.9014 -1.4577
 4740TIP3    H238416   6.543   3.028  19.031 -0.5604 -0.7502 -1.5440
 4741TIP3   OH238417   2.214   4.227  16.958  0.3345 -0.0567 -0.1051
 4741TIP3    H138418   2.253   4.140  16.964 -1.0082 -0.7133 -0.3921
 4741TIP3    H238419   2.177   4.231  16.870 -1.0025  0.1606  0.4374
 4742TIP3   OH238420   5.803   3.717  18.029  0.7886 -0.0818 -0.5524
 4742TIP3    H138421   5.786   3.751  17.941  1.0278 -0.0589 -0.5883
 4742TIP3    H238422   5.724   3.740  18.078 -0.2402 -1.8580 -1.2625
 4743TIP3   OH238423   0.063   4.363  17.524 -0.1179 -0.4336  0.1021
 4743TIP3    H138424   0.083   4.389  17.614 -0.5186 -0.9222  0.3384
 4743TIP3    H238425  -0.030   4.383  17.514  0.0471  0.0849 -0.3665
 4744TIP3   OH238426   0.511   5.085  17.489  0.3750  0.3459  0.1790
 4744TIP3    H138427   0.587   5.027  17.489 -0.9640 -1.6266  2.8904
 4744TIP3    H238428   0.545   5.170  17.459  3.0737 -1.0310 -0.9555
 4745TIP3   OH238429   4.785   3.343  17.444  0.0802  0.0345  0.7074
 4745TIP3    H138430   4.862   3.288  17.454 -1.1715 -1.8316  0.4566
 4745TIP3    H238431   4.820   3.432  17.433  2.2418 -0.9126 -0.7004
 4746TIP3   OH238432   5.390   7.472  18.846 -0.5696 -0.1452 -0.3340
 4746TIP3    H138433   5.446   7.532  18.798 -3.1779  1.3207 -1.7667
 4746TIP3    H238434   5.301   7.493  18.817 -2.0079 -1.6570  2.4894
 4747TIP3   OH238435   2.596   5.030  17.355 -0.2970 -0.5508 -0.1067
 4747TIP3    H138436   2.552   4.962  17.304 -2.2411 -0.0307  0.7860
 4747TIP3    H238437   2.555   5.025  17.442  0.2846  1.0298  0.2932
 4748TIP3   OH238438   3.874   2.345  18.709  0.0767 -0.0631  0.6298
 4748TIP3    H138439   3.938   2.357  18.639 -0.5017 -0.3055  0.0494
 4748TIP3    H238440   3.823   2.268  18.682 -1.6330  1.1840  0.1856
 4749TIP3   OH238441   7.285   2.085  16.830  0.3192  0.2801  0.8748
 4749TIP3    H138442   7.217   2.029  16.867 -0.8760  1.1851  0.1261
 4749TIP3    H238443   7.366   2.036  16.844 -0.0601  0.3583  4.2562
 4750TIP3   OH238444   2.970   1.933  16.017  0.2665 -0.2510 -0.6433
 4750TIP3    H138445   2.874   1.923  16.018  0.3050 -0.6341 -0.2084
 4750TIP3    H238446   2.999   1.873  15.949  0.1708  0.1723 -1.0648
 4751TIP3   OH238447   4.784   6.663  16.770  0.4169  0.3110 -0.2221
 4751TIP3    H138448   4.785   6.690  16.678  1.7169  0.8052 -0.0782
 4751TIP3    H238449   4.694   6.635  16.786  0.1258  0.4277 -1.5854
 4752TIP3   OH238450   5.062   1.342  16.567  0.3851 -0.0641 -0.4773
 4752TIP3    H138451   5.099   1.395  16.637  0.0707 -2.1983  1.3888
 4752TIP3    H238452   5.107   1.372  16.488  0.4745  2.6734  0.5042
 4753TIP3   OH238453   0.188   3.335  16.800 -0.3348 -0.0766  0.6614
 4753TIP3    H138454   0.273   3.308  16.765 -0.5315  1.3504 -1.0545
 4753TIP3    H238455   0.200   3.425  16.827 -0.8787 -0.3848  2.0124
 4754TIP3   OH238456   3.258   7.368  18.228 -0.0359 -0.1095  0.9332
 4754TIP3    H138457   3.311   7.340  18.303 -0.0678 -2.0893  0.2820
 4754TIP3    H238458   3.321   7.404  18.166  0.1618  0.2975  1.3659
 4755TIP3   OH238459   0.658   2.942  16.192 -0.2627 -0.1873  0.5118
 4755TIP3    H138460   0.637   2.878  16.123  1.6314  0.0696 -0.3743
 4755TIP3    H238461   0.704   2.891  16.258 -1.4964 -0.3025  1.3106
 4756TIP3   OH238462   4.431   2.128  17.559 -0.0210 -0.5055  0.2716
 4756TIP3    H138463   4.407   2.064  17.626 -1.2045 -0.6107 -0.2215
 4756TIP3    H238464   4.522   2.109  17.538  0.2123 -0.7817  1.5005
 4757TIP3   OH238465   1.653   3.131  16.710 -0.0393 -0.3871 -0.0825
 4757TIP3    H138466   1.657   3.041  16.679  0.2394 -1.0544  1.7670
 4757TIP3    H238467   1.611   3.179  16.638  1.2319 -1.6572 -1.7498
 4758TIP3   OH238468   3.250   5.930  18.588  0.0489 -0.0192 -0.3298
 4758TIP3    H138469   3.178   5.993  18.594 -0.7512 -0.8579 -0.7253
 4758TIP3    H238470   3.288   5.946  18.501  0.0369  0.1187 -0.3102
 4759TIP3   OH238471   5.978   1.043  17.028  0.1966  0.1820  0.2507
 4759TIP3    H138472   5.939   0.962  17.061 -1.2572  0.4968 -0.6146
 4759TIP3    H238473   6.033   1.075  17.100  1.2078 -1.8085  0.4379
 4760TIP3   OH238474   6.661   3.877  17.997  0.1304  0.4483  0.1749
 4760TIP3    H138475   6.721   3.936  18.042  0.7769  0.1953 -0.3415
 4760TIP3    H238476   6.595   3.935  17.958 -2.0007  0.5679  3.5420
 4761TIP3   OH238477   3.141   3.973  16.532 -0.3292  0.0739 -0.4936
 4761TIP3    H138478   3.083   3.983  16.456 -2.4102  0.7559  1.0790
 4761TIP3    H238479   3.144   3.878  16.548 -0.2621 -0.0343 -1.1187
 4762TIP3   OH238480   0.514   2.688  16.837  0.2994 -0.2260 -0.0060
 4762TIP3    H138481   0.487   2.696  16.929  1.2550  0.0228  0.2590
 4762TIP3    H238482   0.459   2.750  16.790  1.1012  1.0358  0.6768
 4763TIP3   OH238483   3.630   1.355  18.468 -0.3587  0.2179 -0.3245
 4763TIP3    H138484   3.630   1.307  18.385  1.4361 -0.2446 -0.0974
 4763TIP3    H238485   3.551   1.325  18.513 -0.5191 -0.7390 -1.2109
 4764TIP3   OH238486   6.026   0.404  17.315  0.2886 -0.0844 -0.3568
 4764TIP3    H138487   6.115   0.389  17.348 -0.4221 -1.9554  0.9214
 4764TIP3    H238488   6.007   0.328  17.261 -0.1798  0.8151 -1.4898
 4765TIP3   OH238489   6.302   0.569  17.964 -0.1928 -0.5044 -0.1020
 4765TIP3    H138490   6.262   0.566  17.877 -1.1263  1.8416  0.1615
 4765TIP3    H238491   6.389   0.606  17.949 -0.1738 -0.5427 -0.0863
 4766TIP3   OH238492   1.500   3.065  17.268 -0.0250  0.6364  0.1415
 4766TIP3    H138493   1.427   3.120  17.295  0.5870  0.7859  1.5726
 4766TIP3    H238494   1.511   3.084  17.175 -2.8217 -0.6060 -0.5659
 4767TIP3   OH238495   4.082   3.023  16.671  0.1259 -0.3277  0.6032
 4767TIP3    H138496   4.132   3.033  16.752  1.6146 -0.0326 -0.3220
 4767TIP3    H238497   4.117   2.943  16.631 -1.3400 -1.0832  0.7197
 4768TIP3   OH238498   3.892   5.500  15.958 -0.3934 -0.3403 -0.0773
 4768TIP3    H138499   3.798   5.483  15.964 -0.4788 -0.6061 -1.6611
 4768TIP3    H238500   3.931   5.415  15.941 -0.2207  0.1290 -2.3855
 4769TIP3   OH238501   3.694   2.143  17.043  0.2916  0.3461  0.4736
 4769TIP3    H138502   3.678   2.233  17.073  0.4628  1.1690 -1.7293
 4769TIP3    H238503   3.789   2.133  17.050  0.5629  1.1901 -1.3410
 4770TIP3   OH238504   2.582   4.117  18.393 -0.1938  0.1884  0.3684
 4770TIP3    H138505   2.570   4.178  18.466  0.4817  0.3304  0.3657
 4770TIP3    H238506   2.666   4.076  18.410 -1.2483 -1.7757  1.0960
 4771TIP3   OH238507   1.856   3.786  18.979 -0.3033  0.1449  0.0758
 4771TIP3    H138508   1.932   3.844  18.982 -0.6395  0.5496  2.2541
 4771TIP3    H238509   1.808   3.805  19.059 -1.1249 -2.2245  0.2335
 4772TIP3   OH238510   5.227   0.464  16.484 -0.1810 -0.3893 -0.1055
 4772TIP3    H138511   5.274   0.536  16.443 -0.7307  0.6265  0.9551
 4772TIP3    H238512   5.257   0.465  16.575 -0.3507 -1.3759 -0.0297
 4773TIP3   OH238513   1.257   3.712  18.811 -0.1933 -0.4518 -0.2517
 4773TIP3    H138514   1.345   3.734  18.782  0.5135  0.0150  2.0646
 4773TIP3    H238515   1.263   3.620  18.838 -0.1871 -0.2090  0.6093
 4774TIP3   OH238516   3.644   1.558  17.739 -0.2299 -0.4193 -0.9692
 4774TIP3    H138517   3.721   1.579  17.686  0.3345  1.3766  0.4720
 4774TIP3    H238518   3.653   1.465  17.758  2.8983  0.1696  1.0815
 4775TIP3   OH238519   6.668   1.178  18.857  0.3342  0.0026 -0.6577
 4775TIP3    H138520   6.640   1.182  18.766 -1.5809  0.6072 -0.0948
 4775TIP3    H238521   6.667   1.269  18.887 -1.8542 -0.3977  0.6956
 4776TIP3   OH238522   5.695   0.836  18.192  0.4907  0.3269 -0.1658
 4776TIP3    H138523   5.646   0.798  18.265  1.1784 -2.1550 -0.8678
 4776TIP3    H238524   5.773   0.874  18.232 -0.1716  0.9240  0.5831
 4777TIP3   OH238525   4.044   0.124  17.870 -0.0755 -0.4115  0.4314
 4777TIP3    H138526   4.135   0.136  17.896 -0.3694  1.1848  0.7787
 4777TIP3    H238527   3.993   0.146  17.947 -0.7954 -0.5682  0.0105
 4778TIP3   OH238528   5.418   7.371  17.610  0.3563  0.6357  0.4597
 4778TIP3    H138529   5.420   7.457  17.568 -0.6904 -0.3198 -1.7571
 4778TIP3    H238530   5.494   7.326  17.575  0.0332  0.1506  0.3682
 4779TIP3   OH238531   1.289   6.308  16.161 -0.7394 -0.4333  0.0220
 4779TIP3    H138532   1.326   6.393  16.138  0.5626 -0.0935  2.8941
 4779TIP3    H238533   1.199   6.328  16.186  0.2571  0.7710  3.2852
 4780TIP3   OH238534   3.565   0.013  16.917  0.2602  0.1372 -0.2883
 4780TIP3    H138535   3.660  -0.000  16.922 -0.0732 -2.8279 -0.1979
 4780TIP3    H238536   3.535   0.007  17.008 -0.0829  0.5123 -0.3747
 4781TIP3   OH238537   5.321   5.943  17.653 -0.0518 -0.2959 -0.2513
 4781TIP3    H138538   5.307   5.996  17.731 -0.7307 -0.1839 -0.4414
 4781TIP3    H238539   5.417   5.940  17.643  0.0158  0.4034  0.0952
 4782TIP3   OH238540   4.459   3.691  18.118 -0.0123 -0.1054 -0.4849
 4782TIP3    H138541   4.474   3.657  18.206 -1.7857  0.5086  0.1036
 4782TIP3    H238542   4.363   3.694  18.109  0.0789 -1.6639 -3.0424
 4783TIP3   OH238543   5.457   1.775  17.184 -0.0202 -0.0658  0.0235
 4783TIP3    H138544   5.496   1.734  17.261  1.2547 -0.0793 -0.6014
 4783TIP3    H238545   5.382   1.823  17.218  0.1249 -0.6162  1.1740
 4784TIP3   OH238546   1.783   7.197  16.418  0.4091  0.5297 -0.3818
 4784TIP3    H138547   1.831   7.136  16.474 -0.7511  0.0933  0.1749
 4784TIP3    H238548   1.850   7.235  16.361  1.0054 -2.6265 -2.0780
 4785TIP3   OH238549   4.320   5.901  17.161  0.1873  0.0959  0.0696
 4785TIP3    H138550   4.314   5.898  17.257  4.6436  0.9330  0.5901
 4785TIP3    H238551   4.324   5.809  17.134 -1.7661 -0.1710  0.5089
 4786TIP3   OH238552   2.945   3.239  16.337  0.0799  0.1188  0.1034
 4786TIP3    H138553   2.960   3.215  16.245  1.9426  1.0001  0.1292
 4786TIP3    H238554   2.973   3.163  16.387 -0.1816 -0.0616 -0.0205
 4787TIP3   OH238555   1.531   5.092  18.489  0.1638 -0.5174 -0.3715
 4787TIP3    H138556   1.487   5.083  18.405 -1.7674  0.2487  0.4907
 4787TIP3    H238557   1.594   5.020  18.492 -0.9287 -1.5770 -1.7481
 4788TIP3   OH238558   6.396   4.761  17.998  0.1294  0.1872 -0.0992
 4788TIP3    H138559   6.381   4.696  18.068  0.3752  1.4845  1.2007
 4788TIP3    H238560   6.475   4.808  18.026 -1.0861  2.2947 -0.0122
 4789TIP3   OH238561   3.528   1.336  16.502 -0.6633  0.0935 -0.6868
 4789TIP3    H138562   3.581   1.382  16.567  0.3389 -0.3527 -1.1687
 4789TIP3    H238563   3.442   1.327  16.543 -0.6403  1.6233 -0.2431
 4790TIP3   OH238564   2.531   2.842  17.026  0.7403 -0.1300  0.3426
 4790TIP3    H138565   2.443   2.878  17.018  1.1494  0.8583  0.2344
 4790TIP3    H238566   2.524   2.778  17.097 -0.6179 -1.8176 -1.1677
 4791TIP3   OH238567   1.976   0.609  17.893  0.0142  0.6556 -0.3839
 4791TIP3    H138568   2.031   0.685  17.914 -0.3892  0.1738  2.9129
 4791TIP3    H238569   2.029   0.533  17.918 -0.8923  0.0403 -0.2957
 4792TIP3   OH238570   3.681   4.085  18.567  0.0008  0.2634 -0.6656
 4792TIP3    H138571   3.760   4.127  18.601  0.1596 -0.2996 -0.3224
 4792TIP3    H238572   3.714   4.024  18.501 -0.0537 -0.6072  0.0864
 4793TIP3   OH238573   1.651   0.242  16.378  0.4618 -0.2006 -0.1205
 4793TIP3    H138574   1.652   0.152  16.344  0.6044  0.1786 -1.1333
 4793TIP3    H238575   1.733   0.280  16.347 -0.5480  0.9383 -1.5101
 4794TIP3   OH238576   1.228   0.354  17.506 -0.3599 -0.0620 -0.5915
 4794TIP3    H138577   1.236   0.329  17.414  0.5311 -3.1701  0.2073
 4794TIP3    H238578   1.318   0.351  17.539 -0.7223  0.5213  0.5013
 4795TIP3   OH238579   0.459   5.456  18.256  0.2549  0.1118 -0.0369
 4795TIP3    H138580   0.494   5.391  18.195 -2.0236 -1.1707 -0.1004
 4795TIP3    H238581   0.389   5.499  18.207 -0.8581 -0.1539  1.2624
 4796TIP3   OH238582   1.996   5.591  17.505  0.4079 -0.3784  0.4700
 4796TIP3    H138583   2.018   5.508  17.548  0.4497 -0.2508  0.6968
 4796TIP3    H238584   1.994   5.655  17.576  0.4727 -0.1645  0.2803
 4797TIP3   OH238585   5.612   0.427  18.452  0.4667 -0.0639  0.0622
 4797TIP3    H138586   5.611   0.338  18.415  0.3823  0.2221 -0.6481
 4797TIP3    H238587   5.684   0.426  18.514 -0.1144 -0.9033  0.7520
 4798TIP3   OH238588   6.684   3.580  17.060 -0.4501  0.0955 -0.0710
 4798TIP3    H138589   6.708   3.541  17.144  0.9396 -0.2842 -0.6102
 4798TIP3    H238590   6.751   3.648  17.045 -0.0072 -0.5793 -1.3594
 4799TIP3   OH238591   2.610   4.236  18.063  0.2998  0.0346  0.3779
 4799TIP3    H138592   2.541   4.188  18.108 -0.2206  1.1549  0.7963
 4799TIP3    H238593   2.679   4.247  18.128 -0.4815  1.7161  0.9848
 4800TIP3   OH238594   3.604   0.534  16.965 -0.2377  0.0722 -0.0193
 4800TIP3    H138595   3.657   0.598  17.012  1.7139 -0.7696 -0.9509
 4800TIP3    H238596   3.610   0.454  17.018 -0.4236 -0.0796 -0.2213
 4801TIP3   OH238597   5.438   4.970  18.786  0.5078 -0.3834  0.3922
 4801TIP3    H138598   5.464   4.989  18.696  0.7658  0.4687  0.6379
 4801TIP3    H238599   5.519   4.973  18.836  0.7219 -3.1032  0.3260
 4802TIP3   OH238600   3.463   2.023  16.196 -0.4161 -0.3112 -0.6767
 4802TIP3    H138601   3.457   2.112  16.232  1.3025 -0.8515  1.1271
 4802TIP3    H238602   3.374   2.003  16.167 -0.9398  1.8250 -0.7495
 4803TIP3   OH238603   4.069   0.137  16.959 -0.1565 -0.0922 -0.0763
 4803TIP3    H138604   4.087   0.071  17.025 -0.9294 -0.9972 -0.7486
 4803TIP3    H238605   4.155   0.176  16.940  0.0010  0.6247  1.8592
 4804TIP3   OH238606   3.141   5.924  17.316 -0.5027 -0.4728 -0.1073
 4804TIP3    H138607   3.065   5.866  17.311 -1.5629  0.9093 -1.0261
 4804TIP3    H238608   3.175   5.928  17.227 -0.1128 -0.1167  0.0506
 4805TIP3   OH238609   5.683   6.077  17.879 -0.0888  0.1822  0.0252
 4805TIP3    H138610   5.657   6.031  17.799  0.3938 -0.5835  0.3043
 4805TIP3    H238611   5.674   6.170  17.856 -1.7966 -0.0303 -0.2949
 4806TIP3   OH238612   7.335   2.683  18.586 -0.6927  0.5991 -0.7219
 4806TIP3    H138613   7.285   2.654  18.509 -0.2315  2.2893 -1.7097
 4806TIP3    H238614   7.418   2.714  18.551  0.4315 -0.5955  0.7304
 4807TIP3   OH238615   0.611   5.224  16.687 -0.6354 -0.3564 -0.1390
 4807TIP3    H138616   0.682   5.254  16.630  0.4538 -1.0362  0.7998
 4807TIP3    H238617   0.552   5.176  16.629  0.0764 -0.4381 -0.8104
 4808TIP3   OH238618   6.098   1.481  16.875  0.1332  0.0998 -0.2888
 4808TIP3    H138619   6.092   1.577  16.875 -0.5136  0.0645 -0.3332
 4808TIP3    H238620   6.015   1.452  16.837 -0.7641 -0.5387  1.9930
 4809TIP3   OH238621   1.915   2.844  18.642  0.7196 -0.5678 -0.0935
 4809TIP3    H138622   1.921   2.749  18.648  0.1392 -0.8796 -2.8443
 4809TIP3    H238623   2.005   2.874  18.633  0.8872 -0.8761  0.5469
 4810TIP3   OH238624   6.945   1.389  16.690  0.0318  0.6686 -0.5595
 4810TIP3    H138625   6.907   1.303  16.669  0.6243  0.0234  0.8882
 4810TIP3    H238626   7.005   1.407  16.617 -1.0391  0.4792 -1.5249
 4811TIP3   OH238627   4.989   4.518  17.348 -0.5105  0.2254  0.3197
 4811TIP3    H138628   4.948   4.432  17.341 -0.2406  0.1660 -0.6535
 4811TIP3    H238629   4.968   4.547  17.437 -2.2679  0.0032  0.0276
 4812TIP3   OH238630   0.808   1.714  18.648 -0.2449  0.0640 -0.1293
 4812TIP3    H138631   0.778   1.796  18.687  1.0611  0.3059  0.4448
 4812TIP3    H238632   0.748   1.648  18.683 -1.0283  0.7019 -0.2234
 4813TIP3   OH238633   6.012   2.780  17.400  0.2977 -0.2032 -0.0176
 4813TIP3    H138634   6.085   2.842  17.397  0.7419 -0.6915  0.4288
 4813TIP3    H238635   6.050   2.701  17.438 -0.4535 -0.4854  0.1594
 4814TIP3   OH238636   2.815   1.771  17.071  0.2032  0.2678 -0.2959
 4814TIP3    H138637   2.870   1.692  17.066  0.3136  0.4111 -2.1906
 4814TIP3    H238638   2.750   1.758  17.002 -1.3589  0.7173  1.0354
 4815TIP3   OH238639   1.143   4.279  17.539  0.1854  0.3184 -0.6189
 4815TIP3    H138640   1.176   4.230  17.463  0.1201  1.4638 -1.4162
 4815TIP3    H238641   1.190   4.362  17.535  0.6212  0.1780  0.9644
 4816TIP3   OH238642   0.593   6.831  17.984  0.5254  0.0508 -0.5158
 4816TIP3    H138643   0.664   6.895  17.987 -0.9963  1.8011  0.0930
 4816TIP3    H238644   0.514   6.884  17.981 -0.7923 -1.8409 -0.7098
 4817TIP3   OH238645   3.316   3.364  16.741 -0.2550  0.2219 -0.0744
 4817TIP3    H138646   3.382   3.430  16.761 -0.3402  0.0053  0.9779
 4817TIP3    H238647   3.310   3.364  16.646 -0.0587  1.5457 -0.1115
 4818TIP3   OH238648   2.611   6.773  16.336 -0.0531 -0.3516 -0.0558
 4818TIP3    H138649   2.530   6.729  16.311 -1.2291  0.6275  1.8405
 4818TIP3    H238650   2.582   6.858  16.369  1.6858 -0.2672  1.3517
 4819TIP3   OH238651   1.153   4.115  16.268 -0.2486  0.1932  0.4895
 4819TIP3    H138652   1.225   4.153  16.217  1.9029 -1.5282  2.0391
 4819TIP3    H238653   1.144   4.174  16.343  0.6096 -0.3512  1.0419
 4820TIP3   OH238654   0.355   7.353  17.692 -0.1091 -0.6063  0.2808
 4820TIP3    H138655   0.352   7.318  17.781 -2.2267 -0.5820  0.2678
 4820TIP3    H238656   0.352   7.448  17.704 -1.0112 -0.6141  0.1988
 4821TIP3   OH238657   5.718   3.876  17.462 -0.2563  0.6430 -0.2912
 4821TIP3    H138658   5.678   3.961  17.480 -0.7109  0.0685  1.7380
 4821TIP3    H238659   5.794   3.896  17.408 -1.2795  2.1323 -1.2438
 4822TIP3   OH238660   5.720   3.914  18.959 -0.8005 -0.1449 -0.0702
 4822TIP3    H138661   5.738   3.921  19.053  1.8601  1.2492 -0.5828
 4822TIP3    H238662   5.781   3.975  18.918 -2.2021 -0.3499 -2.7182
 4823TIP3   OH238663   3.004   7.193  16.152 -0.0683  0.0762 -0.1091
 4823TIP3    H138664   3.050   7.118  16.115  0.1988  0.4893 -0.6340
 4823TIP3    H238665   3.012   7.182  16.247 -1.3663 -1.3738 -0.1349
 4824TIP3   OH238666   5.465   3.083  18.249  0.5270 -0.3585  0.1936
 4824TIP3    H138667   5.558   3.105  18.253  0.7640 -1.4405  2.6377
 4824TIP3    H238668   5.420   3.167  18.246  1.5605  0.2321  0.7052
 4825TIP3   OH238669   3.626   7.443  17.639 -0.5220  0.1664 -0.0584
 4825TIP3    H138670   3.562   7.479  17.701  0.7804  1.2678  0.7125
 4825TIP3    H238671   3.604   7.350  17.633 -2.8629  0.6980 -0.6791
 4826TIP3   OH238672   1.282   2.773  17.190  0.7410 -0.4311 -0.3019
 4826TIP3    H138673   1.257   2.856  17.150 -0.1174 -0.3694  0.3428
 4826TIP3    H238674   1.346   2.797  17.257  1.5444 -0.4481 -1.0469
 4827TIP3   OH238675   2.787   1.025  17.062 -0.1663  0.2084  0.6536
 4827TIP3    H138676   2.872   1.052  17.096 -0.1581 -1.3547  1.9421
 4827TIP3    H238677   2.808   0.962  16.993 -0.2728 -0.4428  1.2094
 4828TIP3   OH238678   2.071   7.359  16.672  0.0416  0.2069 -0.0200
 4828TIP3    H138679   2.022   7.417  16.730 -0.5631  0.8143 -1.1025
 4828TIP3    H238680   2.066   7.274  16.714  0.6148  0.8532  1.4034
 4829TIP3   OH238681   5.002   3.658  17.930 -0.0262  0.8573 -0.1831
 4829TIP3    H138682   4.947   3.598  17.879  0.9897 -0.5295  0.2753
 4829TIP3    H238683   4.943   3.694  17.996 -0.3201 -1.0011  0.6404
 4830TIP3   OH238684   0.320   6.307  17.374  0.3554  0.3043  0.5370
 4830TIP3    H138685   0.282   6.272  17.293 -0.1496 -1.1625  1.3768
 4830TIP3    H238686   0.248   6.309  17.436  1.2824 -1.2456  1.7577
 4831TIP3   OH238687   4.740   4.942  15.972  0.2933 -0.2824 -0.2216
 4831TIP3    H138688   4.687   4.935  15.893  1.5034 -0.2149 -1.0597
 4831TIP3    H238689   4.679   4.973  16.039 -0.1669  2.5094 -1.7866
 4832TIP3   OH238690   4.456   5.601  18.237 -0.5688 -0.0654 -0.2109
 4832TIP3    H138691   4.453   5.605  18.141 -0.4406  1.1450 -0.1780
 4832TIP3    H238692   4.371   5.635  18.265 -0.0414  1.0272  0.1165
 4833TIP3   OH238693   3.351   5.867  17.032  0.4419  0.8979 -0.2459
 4833TIP3    H138694   3.365   5.958  17.005  0.0358  0.9487 -0.2962
 4833TIP3    H238695   3.437   5.827  17.028  0.3819  0.8424 -1.8600
 4834TIP3   OH238696   0.752   6.889  18.837  0.0131  0.6686 -0.3045
 4834TIP3    H138697   0.794   6.971  18.864 -1.6772  1.3676  0.3908
 4834TIP3    H238698   0.787   6.824  18.897  1.8460  0.7057 -1.2545
 4835TIP3   OH238699   6.744   4.773  16.573  0.1453  0.0620  0.2411
 4835TIP3    H138700   6.737   4.682  16.544 -1.3439  0.1000  0.4029
 4835TIP3    H238701   6.726   4.825  16.495  0.6421  0.2202  0.2296
 4836TIP3   OH238702   3.316   3.002  16.720  0.5280  0.2549 -0.2973
 4836TIP3    H138703   3.311   3.042  16.633 -1.9365  0.7741 -0.0095
 4836TIP3    H238704   3.263   3.060  16.776  1.2846 -0.5700  1.3450
 4837TIP3   OH238705   3.656   6.352  17.144 -0.2413  0.2706 -0.6666
 4837TIP3    H138706   3.566   6.380  17.129 -0.4985 -0.7177 -1.0656
 4837TIP3    H238707   3.649   6.257  17.158  0.8637 -0.0116 -1.8718
 4838TIP3   OH238708   0.966   4.625  17.967 -0.4545 -0.6211 -0.0489
 4838TIP3    H138709   0.924   4.572  18.035 -0.8656  0.0229  0.2125
 4838TIP3    H238710   1.033   4.567  17.929  0.4510 -0.7017  1.5582
 4839TIP3   OH238711   2.147   5.994  17.940  0.2477 -0.5189 -0.3862
 4839TIP3    H138712   2.083   5.936  17.981 -0.9856  1.5970  0.8742
 4839TIP3    H238713   2.108   6.019  17.857  0.3082 -0.6813 -0.4646
 4840TIP3   OH238714   6.031   1.283  18.274 -0.1225  0.3068  0.2464
 4840TIP3    H138715   6.074   1.367  18.292  1.4208 -0.5721  0.8426
 4840TIP3    H238716   5.981   1.265  18.353 -1.5089  1.2493 -0.3796
 4841TIP3   OH238717   5.436   2.845  15.974  0.0620  0.3345  0.0991
 4841TIP3    H138718   5.436   2.773  16.037 -0.1632  1.7385  1.7844
 4841TIP3    H238719   5.351   2.887  15.986 -0.3370  0.1250 -1.7874
 4842TIP3   OH238720   5.386   5.012  18.326  0.8988 -0.7532 -0.2889
 4842TIP3    H138721   5.395   5.057  18.243  0.6974 -0.1895 -0.0101
 4842TIP3    H238722   5.291   5.003  18.339  0.8937  0.1442  0.3927
 4843TIP3   OH238723   3.601   6.213  19.209 -0.4805 -0.1872  0.0247
 4843TIP3    H138724   3.525   6.270  19.200 -1.1317 -1.1016 -0.3410
 4843TIP3    H238725   3.676   6.270  19.188 -0.9835  0.8896  1.0478
 4844TIP3   OH238726   4.091   2.980  18.299  0.1660  0.7209 -0.0213
 4844TIP3    H138727   4.179   2.986  18.336  0.0160  0.5030  0.3775
 4844TIP3    H238728   4.103   2.986  18.204  0.5734  1.1011  0.0512
 4845TIP3   OH238729   3.610   0.035  15.990  0.2135  0.3981 -0.5455
 4845TIP3    H138730   3.537   0.063  15.935  0.1602 -0.2329 -0.8102
 4845TIP3    H238731   3.584  -0.052  16.022 -0.1181  1.0908  1.1573
 4846TIP3   OH238732   3.518   0.958  17.289 -0.4721 -0.3380 -0.2887
 4846TIP3    H138733   3.546   1.046  17.263  0.7956 -0.8610 -0.8090
 4846TIP3    H238734   3.502   0.913  17.206  1.9052 -1.5033 -0.2078
 4847TIP3   OH238735   0.213   1.227  16.895  0.0579 -0.0287  0.2762
 4847TIP3    H138736   0.158   1.289  16.848  0.8912 -0.0049 -0.7012
 4847TIP3    H238737   0.174   1.141  16.875  0.8937 -0.1030 -1.2185
 4848TIP3   OH238738   5.302   5.649  17.586  0.1983  0.2211 -0.1079
 4848TIP3    H138739   5.343   5.735  17.592  1.0354 -0.2004  0.3243
 4848TIP3    H238740   5.363   5.589  17.630  0.3157 -0.8308 -1.5960
 4849TIP3   OH238741   0.497   2.079  18.449  0.5095  0.2881  0.3331
 4849TIP3    H138742   0.455   2.025  18.516 -0.0314  1.6230  1.1138
 4849TIP3    H238743   0.562   2.130  18.497  2.2934 -0.9432 -0.6940
 4850TIP3   OH238744   4.821   7.203  16.775  0.1925  0.3454 -0.3343
 4850TIP3    H138745   4.777   7.179  16.856  0.7362  1.9674  0.4886
 4850TIP3    H238746   4.797   7.134  16.713 -0.6424 -0.6545  1.0521
 4851TIP3   OH238747   2.150   6.421  17.747 -0.1225  0.4232 -0.3510
 4851TIP3    H138748   2.055   6.410  17.741  0.0796 -1.0215 -1.2275
 4851TIP3    H238749   2.173   6.385  17.833 -0.2994  0.2820 -0.3637
 4852TIP3   OH238750   3.925   4.030  16.557  0.2943 -0.5181 -0.2914
 4852TIP3    H138751   3.851   4.089  16.537  0.7923  1.0427  2.0840
 4852TIP3    H238752   4.001   4.089  16.562  1.5839 -1.9660 -1.7269
 4853TIP3   OH238753   4.258   6.826  18.134 -0.3335 -0.3104  0.4652
 4853TIP3    H138754   4.269   6.764  18.062 -0.5830  0.4027 -0.2047
 4853TIP3    H238755   4.316   6.794  18.203  0.3181 -0.7076 -0.2493
 4854TIP3   OH238756   0.256   3.834  17.197 -0.1741  0.1682 -0.2527
 4854TIP3    H138757   0.325   3.793  17.248 -0.8819  1.2495  1.6800
 4854TIP3    H238758   0.294   3.916  17.167  0.1750 -0.3750 -1.3345
 4855TIP3   OH238759   5.059   6.542  16.983 -0.6252  1.2525 -0.0275
 4855TIP3    H138760   5.124   6.522  17.051 -1.6246 -0.5483  0.4518
 4855TIP3    H238761   4.976   6.510  17.019 -1.2338  0.5703 -1.9266
 4856TIP3   OH238762   1.937   1.808  16.684 -0.4800  0.0966 -0.5020
 4856TIP3    H138763   1.981   1.785  16.602  0.7371 -1.4524  0.5183
 4856TIP3    H238764   1.844   1.792  16.667 -0.2515 -0.1406 -1.5907
 4857TIP3   OH238765   7.283   5.505  17.067 -0.0062  0.4286  0.0266
 4857TIP3    H138766   7.372   5.500  17.103 -0.1089  0.0221  0.2374
 4857TIP3    H238767   7.293   5.483  16.975  0.0010 -0.4967  0.2377
 4858TIP3   OH238768   6.062   7.478  18.743 -0.1310 -0.7572 -0.6424
 4858TIP3    H138769   6.104   7.460  18.827 -0.9862 -1.3906 -0.3408
 4858TIP3    H238770   6.080   7.570  18.726  0.3810 -0.7253  0.0375
 4859TIP3   OH238771   5.882   5.742  18.636 -0.3429 -0.5454 -0.1608
 4859TIP3    H138772   5.916   5.786  18.715 -0.5244 -0.7480  0.0310
 4859TIP3    H238773   5.958   5.736  18.578  0.3415 -2.2924  0.8443
 4860TIP3   OH238774   3.467   3.396  17.375 -0.4128  0.0372  0.6374
 4860TIP3    H138775   3.433   3.476  17.414  0.9569 -0.1096  2.2718
 4860TIP3    H238776   3.562   3.401  17.389 -0.3156 -1.9634  1.0057
 4861TIP3   OH238777   2.650   7.454  17.939 -0.3461  0.3717  0.0131
 4861TIP3    H138778   2.678   7.438  18.029  2.5568  1.0640 -0.6495
 4861TIP3    H238779   2.703   7.394  17.887  0.9412  2.6141 -1.4510
 4862TIP3   OH238780   2.229   5.179  16.439 -0.2460  0.1392  0.0792
 4862TIP3    H138781   2.311   5.192  16.392 -0.3198  0.5700  0.0655
 4862TIP3    H238782   2.169   5.243  16.402 -0.5333 -0.0390  0.2268
 4863TIP3   OH238783   4.423   4.052  17.274 -0.2524  0.4563  0.2663
 4863TIP3    H138784   4.409   3.957  17.272  2.2746  0.0024 -1.5140
 4863TIP3    H238785   4.463   4.072  17.189 -0.4328  3.0842  0.7164
 4864TIP3   OH238786   6.519   0.321  17.863  0.1237 -0.1716  0.0387
 4864TIP3    H138787   6.425   0.304  17.865  0.0331 -0.2316 -2.1547
 4864TIP3    H238788   6.557   0.240  17.829  0.9448 -0.0792  0.7274
 4865TIP3   OH238789   3.097   3.464  16.389  0.1104  0.0887 -0.0362
 4865TIP3    H138790   3.168   3.420  16.436 -0.9594 -0.3754  1.2028
 4865TIP3    H238791   3.040   3.393  16.360  0.8866  0.3360 -2.3669
 4866TIP3   OH238792   6.722   5.051  17.579  0.6760  0.3647  0.8407
 4866TIP3    H138793   6.770   5.109  17.520  0.2478  0.5149  0.6355
 4866TIP3    H238794   6.631   5.057  17.550  0.6299 -0.4331  0.8045
 4867TIP3   OH238795   6.537   4.534  16.972 -0.9236 -0.4549 -0.2854
 4867TIP3    H138796   6.625   4.500  16.986 -1.9964 -2.7447  1.5586
 4867TIP3    H238797   6.533   4.554  16.879  1.3752 -0.7540 -0.4927
 4868TIP3   OH238798   0.870   2.509  17.003  0.3048 -0.5072  0.5102
 4868TIP3    H138799   0.960   2.526  17.034  0.2292  0.4315  0.2465
 4868TIP3    H238800   0.824   2.477  17.081  0.1734  1.6369  1.3912
 4869TIP3   OH238801   3.241   5.722  16.445 -0.4751  0.1678 -0.6007
 4869TIP3    H138802   3.257   5.815  16.435 -1.5396  0.7376  2.2139
 4869TIP3    H238803   3.150   5.716  16.475  0.3069 -1.5547  1.6826
 4870TIP3   OH238804   4.543   6.577  16.282  0.2379  0.5406  0.4272
 4870TIP3    H138805   4.566   6.535  16.199 -0.4818 -0.0017  0.4877
 4870TIP3    H238806   4.541   6.670  16.261  2.6849  0.6777  0.4907
 4871TIP3   OH238807   0.941   6.602  17.615 -0.0799 -0.5347 -0.5634
 4871TIP3    H138808   0.873   6.650  17.663  0.6563 -0.4503  0.4285
 4871TIP3    H238809   0.967   6.660  17.544  0.7160  0.5128  0.5486
 4872TIP3   OH238810   0.889   4.377  17.556  0.5834 -0.0910 -0.0799
 4872TIP3    H138811   0.868   4.465  17.524 -1.5097 -0.0193  1.2585
 4872TIP3    H238812   0.984   4.371  17.550  1.0536  3.1039  1.8194
 4873TIP3   OH238813   1.512   2.635  16.794 -0.2594 -0.3616  0.3853
 4873TIP3    H138814   1.552   2.691  16.728  0.0859 -0.9286  0.1019
 4873TIP3    H238815   1.420   2.628  16.767 -0.5746  0.9527  1.0447
 4874TIP3   OH238816   2.254   1.234  18.509 -0.1931 -0.7106 -0.1200
 4874TIP3    H138817   2.321   1.216  18.575  0.0521  1.0819  0.1580
 4874TIP3    H238818   2.269   1.324  18.483 -2.5322 -0.2181  0.0100
 4875TIP3   OH238819   5.228   4.145  17.436 -0.3440 -0.2648 -0.5558
 4875TIP3    H138820   5.202   4.178  17.522 -0.2799  1.1887 -1.0684
 4875TIP3    H238821   5.243   4.052  17.450  0.0181  0.0043  1.0919
 4876TIP3   OH238822   1.840   4.678  19.085  0.0582 -0.6621  0.5630
 4876TIP3    H138823   1.921   4.723  19.060 -1.6207  1.4657 -1.6265
 4876TIP3    H238824   1.847   4.592  19.045  0.4724  0.2156 -1.3994
 4877TIP3   OH238825   1.434   7.121  17.598 -0.0079 -0.0987 -0.1782
 4877TIP3    H138826   1.461   7.207  17.629 -0.3404 -0.1693  0.3234
 4877TIP3    H238827   1.339   7.120  17.611 -0.0925 -0.3041 -0.7809
 4878TIP3   OH238828   6.451   5.615  17.072  0.0413 -0.1468 -0.2349
 4878TIP3    H138829   6.503   5.622  16.992 -2.2595 -0.3810 -1.8550
 4878TIP3    H238830   6.390   5.689  17.068 -0.2711 -0.2931  1.1949
 4879TIP3   OH238831   5.325   6.039  18.455 -0.1779 -0.1972 -0.4657
 4879TIP3    H138832   5.279   6.053  18.372 -1.9929  0.0490  0.5454
 4879TIP3    H238833   5.256   6.019  18.518  1.0481  0.7263  1.2444
 4880TIP3   OH238834   2.499   4.327  18.570 -0.2296  0.6424  0.3847
 4880TIP3    H138835   2.410   4.346  18.537  0.1807 -0.5326 -1.5754
 4880TIP3    H238836   2.545   4.410  18.561 -1.3069  1.5027  2.2189
 4881TIP3   OH238837   5.530   5.014  17.285 -0.1903  0.3213  0.1373
 4881TIP3    H138838   5.549   5.063  17.366  1.5095 -0.7619  0.4482
 4881TIP3    H238839   5.513   4.924  17.315 -4.7214  0.7822 -0.2623
 4882TIP3   OH238840   4.933   1.445  18.612  0.5013 -0.2476  0.6079
 4882TIP3    H138841   4.979   1.380  18.558 -1.0062 -0.2871 -0.7257
 4882TIP3    H238842   4.841   1.421  18.605 -0.0120  1.4991  0.8197
 4883TIP3   OH238843   3.852   2.675  18.952  0.3585 -0.3046  0.3184
 4883TIP3    H138844   3.792   2.601  18.937 -0.7716  0.6997 -0.3012
 4883TIP3    H238845   3.936   2.645  18.917 -0.3583 -0.8943 -0.9670
 4884TIP3   OH238846   1.851   0.481  17.497 -0.0646 -0.2918  0.1664
 4884TIP3    H138847   1.907   0.559  17.496 -1.4189  0.7309 -1.1309
 4884TIP3    H238848   1.910   0.408  17.480  0.9630  0.6935 -0.5940
 4885TIP3   OH238849   5.696   0.195  17.972  0.5546  0.0902  0.1104
 4885TIP3    H138850   5.671   0.115  17.927 -0.9916  0.7672 -0.2749
 4885TIP3    H238851   5.642   0.196  18.051  0.6375  0.7190  0.1608
 4886TIP3   OH238852   4.933   7.419  17.965 -0.0901 -0.2853 -0.1058
 4886TIP3    H138853   4.978   7.503  17.978  0.4319 -0.5054 -0.4532
 4886TIP3    H238854   4.846   7.443  17.934 -0.2271  0.1508  0.6088
 4887TIP3   OH238855   3.048   5.828  18.094 -0.3106 -0.1055  0.1111
 4887TIP3    H138856   3.125   5.884  18.082 -0.5859  0.2395 -0.0665
 4887TIP3    H238857   3.079   5.740  18.074 -0.4684  0.2797 -2.0927
 4888TIP3   OH238858   2.313   2.628  16.133  0.0175  0.3145  0.1176
 4888TIP3    H138859   2.244   2.563  16.122 -1.5007  1.9117 -0.3424
 4888TIP3    H238860   2.362   2.626  16.051  0.8635 -1.1439  0.6172
 4889TIP3   OH238861   3.517   4.058  17.541  0.2596 -0.1603  0.2801
 4889TIP3    H138862   3.530   4.024  17.452  0.4625 -1.5501  0.8173
 4889TIP3    H238863   3.472   3.988  17.588  2.6783 -0.6528  2.0583
 4890TIP3   OH238864   0.341   0.923  18.773  0.5877 -0.3515  0.1179
 4890TIP3    H138865   0.310   0.937  18.862  0.6845 -1.0748  0.2679
 4890TIP3    H238866   0.274   0.868  18.732  0.4763  0.0883 -0.2993
 4891TIP3   OH238867   0.174   7.352  16.701  0.6416  0.2473  0.2491
 4891TIP3    H138868   0.267   7.330  16.708  0.9384  1.2501 -0.4375
 4891TIP3    H238869   0.129   7.270  16.724  1.6659  0.0103  1.5448
 4892TIP3   OH238870   1.755   3.546  17.741  0.0323 -0.4953  0.2777
 4892TIP3    H138871   1.759   3.567  17.834 -1.3158 -1.5998  0.6192
 4892TIP3    H238872   1.831   3.488  17.726 -0.3130 -1.1274  0.9314
 4893TIP3   OH238873   2.423   7.028  17.430  0.4264  0.2929 -0.2018
 4893TIP3    H138874   2.481   6.962  17.469 -0.8701 -0.6230  0.2694
 4893TIP3    H238875   2.387   7.074  17.506 -0.2122  0.1789 -0.4336
 4894TIP3   OH238876   1.891   5.308  18.899  0.2733  0.3883  0.0077
 4894TIP3    H138877   1.902   5.376  18.833 -0.4124  0.1419 -0.3646
 4894TIP3    H238878   1.980   5.279  18.918  0.4157 -0.8964 -2.2392
 4895TIP3   OH238879   7.219   2.135  17.721  0.3334  0.4699 -0.5019
 4895TIP3    H138880   7.133   2.104  17.694 -0.1296  0.8305  0.4812
 4895TIP3    H238881   7.204   2.174  17.807  1.6773 -0.4655  0.2010
 4896TIP3   OH238882   4.544   4.851  16.379 -0.2107 -0.0972 -0.2550
 4896TIP3    H138883   4.537   4.933  16.427  1.5073  0.2853 -0.6210
 4896TIP3    H238884   4.494   4.866  16.299 -0.1033  0.5024 -0.2130
 4897TIP3   OH238885   4.420   0.715  17.709 -0.3090  0.1096  0.0874
 4897TIP3    H138886   4.357   0.675  17.649  0.9034 -0.2907 -0.9702
 4897TIP3    H238887   4.505   0.702  17.667  0.2783  2.8190  0.2373
 4898TIP3   OH238888   0.523   2.460  17.330  0.0926 -0.2997  0.1989
 4898TIP3    H138889   0.507   2.367  17.344  0.7818 -0.5822 -0.7725
 4898TIP3    H238890   0.458   2.486  17.264 -0.0570 -0.1085  0.4211
 4899TIP3   OH238891   0.768   0.028  18.852  0.0941  0.0003  0.3537
 4899TIP3    H138892   0.733  -0.046  18.802 -1.4425  0.5473  0.5697
 4899TIP3    H238893   0.863   0.017  18.848 -0.0025 -0.3578 -2.0614
 4900TIP3   OH238894   1.504   7.300  17.300 -0.3768 -0.1309 -0.0801
 4900TIP3    H138895   1.592   7.322  17.330 -0.7207  0.4124  0.5765
 4900TIP3    H238896   1.490   7.210  17.328  0.3097 -0.5386 -1.0136
 4901TIP3   OH238897   4.254   6.675  17.093  0.0967 -0.3808 -0.1722
 4901TIP3    H138898   4.200   6.638  17.023  2.3706 -0.2595 -2.0940
 4901TIP3    H238899   4.248   6.770  17.079  1.3218 -0.3913 -0.8356
 4902TIP3   OH238900   5.436   1.298  16.236 -0.4028 -0.3303  0.5149
 4902TIP3    H138901   5.470   1.260  16.154 -0.2343  1.2517 -0.1849
 4902TIP3    H238902   5.515   1.321  16.285 -0.4007  2.1091 -0.5228
 4903TIP3   OH238903   7.104   3.322  17.973  0.7707 -0.4764 -0.4616
 4903TIP3    H138904   7.191   3.316  18.013  0.3506 -0.2887  0.5092
 4903TIP3    H238905   7.049   3.362  18.040 -0.1245 -0.7979 -0.9818
 4904TIP3   OH238906   0.671   7.248  17.867 -0.1536  0.4215  0.4087
 4904TIP3    H138907   0.731   7.320  17.851  0.3743  0.1374  1.0901
 4904TIP3    H238908   0.605   7.283  17.927  0.1298  0.3240  0.7774
 4905TIP3   OH238909   5.307   6.722  17.479 -0.3984 -0.2950 -0.4342
 4905TIP3    H138910   5.212   6.714  17.487 -0.4553 -0.6099 -1.3731
 4905TIP3    H238911   5.327   6.693  17.390  0.7084 -1.4559  0.1534
 4906TIP3   OH238912   7.162   2.738  16.807  0.6205  0.6149 -0.1269
 4906TIP3    H138913   7.119   2.740  16.892  1.4018  1.6166  0.2536
 4906TIP3    H238914   7.149   2.648  16.776  0.0975  0.3190  0.9193
 4907TIP3   OH238915   5.707   3.683  18.794 -0.4218 -0.6132 -0.0171
 4907TIP3    H138916   5.694   3.759  18.849 -1.0272 -0.7275  0.0104
 4907TIP3    H238917   5.801   3.680  18.778 -0.1017 -1.0859  1.7262
 4908TIP3   OH238918   2.528   0.896  17.659  0.5883  0.0617  0.2424
 4908TIP3    H138919   2.605   0.942  17.627  0.0412  0.1332 -1.0766
 4908TIP3    H238920   2.549   0.872  17.749  2.0857  0.1957 -0.0454
 4909TIP3   OH238921   0.929   3.573  18.260 -0.1583  0.3840 -0.2018
 4909TIP3    H138922   0.852   3.630  18.268  0.2161  0.9446 -0.4693
 4909TIP3    H238923   1.000   3.633  18.236  0.4929 -0.0445  0.6289
 4910TIP3   OH238924   0.917   7.039  17.733  0.1793  0.0096 -0.7062
 4910TIP3    H138925   0.915   6.970  17.799 -1.4763  1.0370  0.4022
 4910TIP3    H238926   0.824   7.057  17.715  0.5897  1.3663 -1.5739
 4911TIP3   OH238927   3.856   2.273  17.822 -0.0233  1.0846  0.3102
 4911TIP3    H138928   3.782   2.277  17.883 -0.2596 -0.5814  0.1857
 4911TIP3    H238929   3.849   2.186  17.782 -0.2892  2.3375 -2.6316
 4912TIP3   OH238930   7.245   7.068  16.485 -0.1917 -0.5267 -0.0550
 4912TIP3    H138931   7.319   7.104  16.534 -0.7325 -0.4980  0.7491
 4912TIP3    H238932   7.227   7.134  16.417 -0.1280 -0.0545  0.3845
 4913TIP3   OH238933   5.723   1.710  18.856  0.1203  0.3588 -0.4157
 4913TIP3    H138934   5.733   1.779  18.791 -0.0178  1.2482  0.4806
 4913TIP3    H238935   5.795   1.726  18.918  0.6361 -0.8542 -0.6715
 4914TIP3   OH238936   6.433   4.512  16.720 -0.3316  0.7779  0.2559
 4914TIP3    H138937   6.495   4.440  16.710 -1.7110 -0.3167 -0.7914
 4914TIP3    H238938   6.457   4.574  16.652  0.8343  1.3234  1.1336
 4915TIP3   OH238939   2.953   0.103  17.888  0.4768  0.1561 -0.3891
 4915TIP3    H138940   2.891   0.109  17.815 -0.2987  0.1364  0.2510
 4915TIP3    H238941   2.897   0.098  17.966  1.2995  0.6963  0.2415
 4916TIP3   OH238942   1.196   3.506  18.399  0.1264 -0.3710  0.6060
 4916TIP3    H138943   1.108   3.499  18.362  0.5027 -1.0138 -0.2232
 4916TIP3    H238944   1.205   3.598  18.425  0.0817  0.3251 -1.6078
 4917TIP3   OH238945   3.394   5.520  19.014 -0.0195  0.1549  0.4799
 4917TIP3    H138946   3.427   5.520  19.104 -1.2947  0.3375  0.9780
 4917TIP3    H238947   3.299   5.507  19.024 -0.0344 -0.9907 -0.9018
 4918TIP3   OH238948   6.093   0.134  17.623  0.9324 -0.4942 -0.3481
 4918TIP3    H138949   6.004   0.153  17.653  0.6147 -0.1389 -1.4506
 4918TIP3    H238950   6.122   0.217  17.584  2.1839 -0.2613  1.0030
 4919TIP3   OH238951   3.372   3.464  17.934 -0.5958 -0.0390 -0.7398
 4919TIP3    H138952   3.333   3.527  17.872  0.3687 -1.1724 -2.6056
 4919TIP3    H238953   3.438   3.515  17.981 -0.4682  0.5764 -1.5543
 4920TIP3   OH238954   2.391   7.089  18.148  0.1819 -0.4000  0.5541
 4920TIP3    H138955   2.343   7.031  18.207  0.8643 -0.2015  1.3309
 4920TIP3    H238956   2.479   7.051  18.144  0.5394  0.3829  0.8055
 4921TIP3   OH238957   0.580   0.532  16.462  0.3228  0.2279  0.0378
 4921TIP3    H138958   0.656   0.493  16.418 -0.3541 -0.1548 -0.8121
 4921TIP3    H238959   0.504   0.494  16.419 -0.4624  3.9321 -2.3686
 4922TIP3   OH238960   6.848   5.019  18.185 -0.0145  0.2999 -0.3296
 4922TIP3    H138961   6.900   5.079  18.132  0.9786  0.5772  0.8985
 4922TIP3    H238962   6.911   4.952  18.213  0.2300  1.6054  2.6834
 4923TIP3   OH238963   1.867   1.500  16.262  1.0067  0.1267 -0.0049
 4923TIP3    H138964   1.903   1.412  16.261  0.4744 -0.1339 -2.4766
 4923TIP3    H238965   1.941   1.557  16.240  0.8348  0.0179 -0.8997
 4924TIP3   OH238966   5.146   0.896  16.895  0.2672  0.1865 -0.1404
 4924TIP3    H138967   5.109   0.946  16.822  1.4961  0.3686 -0.6557
 4924TIP3    H238968   5.219   0.949  16.926 -0.0796 -0.0133  1.0722
 4925TIP3   OH238969   2.657   1.734  16.108  0.0102 -0.3553  0.6789
 4925TIP3    H138970   2.643   1.682  16.029  3.0760  0.2448 -0.4173
 4925TIP3    H238971   2.661   1.824  16.076  2.0159 -0.1644  1.3344
 4926TIP3   OH238972   0.518   2.185  17.344  0.3991 -0.1320  0.2445
 4926TIP3    H138973   0.542   2.096  17.317  0.1635  0.2811 -1.4245
 4926TIP3    H238974   0.452   2.173  17.412 -0.9987 -1.2602 -1.2277
 4927TIP3   OH238975   3.806   3.463  18.030 -0.0326  0.2886 -0.4138
 4927TIP3    H138976   3.776   3.376  18.055  0.2879  0.2324 -0.2219
 4927TIP3    H238977   3.901   3.454  18.019  0.3433  1.0769  1.7070
 4928TIP3   OH238978   3.360   6.490  16.389 -0.5615  0.4820 -0.1078
 4928TIP3    H138979   3.292   6.523  16.330 -0.7209  0.1483 -0.1162
 4928TIP3    H238980   3.359   6.395  16.375  1.7185  0.6659 -2.0654
 4929TIP3   OH238981   3.228   4.952  16.713 -0.6288 -0.2069 -0.7614
 4929TIP3    H138982   3.235   4.918  16.802  1.2010  2.5864  0.2884
 4929TIP3    H238983   3.137   4.977  16.704 -0.6878  0.1350  0.5954
 4930TIP3   OH238984   5.052   5.799  16.777  0.1787 -0.2569  0.0301
 4930TIP3    H138985   5.012   5.868  16.723  0.1920 -0.3223 -0.0647
 4930TIP3    H238986   5.121   5.763  16.721  0.0665 -0.4546  0.0206
 4931TIP3   OH238987   2.946   4.775  16.725 -0.7763 -0.2279 -0.4437
 4931TIP3    H138988   2.951   4.742  16.814  1.0804  1.2259  0.0674
 4931TIP3    H238989   3.020   4.734  16.680 -0.1892  0.9062 -0.5741
 4932TIP3   OH238990   0.721   5.224  17.945  0.0329 -0.1089 -0.2933
 4932TIP3    H138991   0.679   5.175  17.874  1.5285  0.0203 -1.3013
 4932TIP3    H238992   0.655   5.227  18.014 -1.7826  0.4934 -1.9770
 4933TIP3   OH238993   5.809   6.592  16.922 -0.0860 -0.5092  0.2696
 4933TIP3    H138994   5.813   6.530  16.994 -0.7873 -0.8309  0.0357
 4933TIP3    H238995   5.864   6.552  16.854 -0.5197 -0.8655  0.1272
 4934TIP3   OH238996   3.949   4.266  18.093 -0.5850  0.0486 -0.0612
 4934TIP3    H138997   4.041   4.290  18.091 -0.5484 -0.1115 -0.2687
 4934TIP3    H238998   3.937   4.223  18.178 -0.5211  0.2738  0.0643
 4935TIP3   OH238999   3.982   3.487  16.388 -0.5363  0.0940  0.0560
 4935TIP3    H139000   4.047   3.442  16.335 -1.6659 -1.9373  0.3058
 4935TIP3    H239001   3.918   3.522  16.325 -0.1449  0.5737 -0.0818
 4936TIP3   OH239002   5.214   3.655  16.358 -0.2885 -0.7417  0.7719
 4936TIP3    H139003   5.227   3.583  16.296  2.0980 -1.0269  1.5175
 4936TIP3    H239004   5.302   3.676  16.389 -0.8950  2.6248  0.5035
 4937TIP3   OH239005   0.177   2.290  18.619  0.0238  0.1400 -0.0808
 4937TIP3    H139006   0.116   2.222  18.647  0.6893 -0.9646 -1.1975
 4937TIP3    H239007   0.263   2.251  18.631  0.4427  0.9441 -0.3939
 4938TIP3   OH239008   0.270   2.971  16.566 -0.0767  0.0363  0.4363
 4938TIP3    H139009   0.277   3.060  16.532 -0.0653 -0.4287 -0.8291
 4938TIP3    H239010   0.343   2.924  16.525 -2.3973 -1.5424 -2.2411
 4939TIP3   OH239011   6.244   3.190  18.978  0.7702 -0.0388 -0.2675
 4939TIP3    H139012   6.299   3.247  19.032 -0.2575 -0.3260  1.1439
 4939TIP3    H239013   6.160   3.189  19.023 -0.8261  1.3528 -2.9898
 4940TIP3   OH239014   2.594   5.794  17.330  0.2314  0.4334 -0.1883
 4940TIP3    H139015   2.656   5.857  17.368  2.4016 -1.8787  0.3592
 4940TIP3    H239016   2.585   5.726  17.397  0.5575 -1.4512 -1.9515
 4941TIP3   OH239017   0.424   4.972  18.539 -0.3344  0.1306 -0.0451
 4941TIP3    H139018   0.461   4.935  18.619  0.4227  2.3861  0.7488
 4941TIP3    H239019   0.407   4.897  18.482  1.6053 -1.3356  1.2012
 4942TIP3   OH239020   0.314   0.332  18.216  0.3977 -0.0035  0.4455
 4942TIP3    H139021   0.218   0.331  18.218  0.2577 -2.2276 -1.6493
 4942TIP3    H239022   0.341   0.267  18.281  0.5001  0.6285  1.0415
 4943TIP3   OH239023   3.151   5.567  18.073 -0.5070 -0.0702  0.1784
 4943TIP3    H139024   3.221   5.604  18.127  0.3170 -0.3995 -0.6585
 4943TIP3    H239025   3.184   5.571  17.984 -1.9368  0.6330 -0.3554
 4944TIP3   OH239026   0.217   4.321  16.548 -0.3200 -0.8650 -0.2917
 4944TIP3    H139027   0.214   4.269  16.467  0.1722 -1.0031 -0.2264
 4944TIP3    H239028   0.189   4.408  16.521 -0.6570 -1.0379 -0.5088
 4945TIP3   OH239029   2.505   1.998  18.218 -0.3056  0.6033 -0.3212
 4945TIP3    H139030   2.470   1.930  18.161  0.4322 -1.0984  1.1437
 4945TIP3    H239031   2.600   1.990  18.208 -0.1080 -0.3663  1.7263
 4946TIP3   OH239032   5.784   1.024  17.360 -0.1169 -0.3258 -0.2071
 4946TIP3    H139033   5.861   1.081  17.360 -0.6371  0.4564  1.5923
 4946TIP3    H239034   5.801   0.962  17.431 -0.9765 -0.3863 -0.0450
 4947TIP3   OH239035   5.762   6.717  16.640 -0.6693  0.0958  0.1204
 4947TIP3    H139036   5.691   6.759  16.591 -0.4329 -1.3514 -1.5841
 4947TIP3    H239037   5.724   6.697  16.725 -1.2814  2.1923  0.3974
 4948TIP3   OH239038   4.632   3.172  16.326 -0.1161  0.5353  0.3061
 4948TIP3    H139039   4.673   3.215  16.251 -1.8092  1.6050 -0.0463
 4948TIP3    H239040   4.678   3.208  16.402  2.4288 -1.4240 -0.1514
 4949TIP3   OH239041   1.569   1.201  17.076  0.1562 -0.3855  0.1776
 4949TIP3    H139042   1.505   1.130  17.085 -1.4838  1.1441  1.3107
 4949TIP3    H239043   1.537   1.252  17.002  1.6303 -1.0396 -0.9772
 4950TIP3   OH239044   7.160   4.621  15.682  0.3904  0.0969 -0.0745
 4950TIP3    H139045   7.097   4.668  15.737  0.3109 -0.6193  0.4656
 4950TIP3    H239046   7.107   4.580  15.614  0.4575  0.7618 -0.5329
 4951TIP3   OH239047   3.271   1.102  17.946 -0.0541 -0.0523  0.1718
 4951TIP3    H139048   3.212   1.175  17.926  0.0883 -0.4008 -1.7475
 4951TIP3    H239049   3.212   1.033  17.977 -0.6189 -0.1704 -1.0827
 4952TIP3   OH239050   5.903   5.017  17.014 -0.0861 -0.4764  0.1397
 4952TIP3    H139051   5.951   4.939  17.041  0.5475 -0.4296 -0.7950
 4952TIP3    H239052   5.970   5.085  17.004 -0.2816 -0.4533 -1.3526
 4953TIP3   OH239053   1.937   2.102  18.472 -0.1458 -0.0627 -0.4531
 4953TIP3    H139054   2.025   2.109  18.510  0.4065  1.0740 -1.8198
 4953TIP3    H239055   1.954   2.082  18.379 -1.3747 -0.8763 -0.5205
 4954TIP3   OH239056   0.883   3.140  18.520 -0.2690  0.0910 -0.0954
 4954TIP3    H139057   0.847   3.228  18.519 -0.6252 -0.0542 -0.4045
 4954TIP3    H239058   0.977   3.152  18.534 -0.3661  0.4985  0.2054
 4955TIP3   OH239059   5.248   1.635  18.961  0.3916  0.3513 -0.1545
 4955TIP3    H139060   5.253   1.711  19.020  0.0350  0.2512  0.0078
 4955TIP3    H239061   5.155   1.627  18.940  0.1096 -1.2314  1.4198
 4956TIP3   OH239062   0.373   5.708  17.822  0.1781  0.3450 -0.6319
 4956TIP3    H139063   0.383   5.756  17.904  0.5704  1.0173 -1.0615
 4956TIP3    H239064   0.400   5.770  17.754 -1.4890  0.3102 -1.3964
 4957TIP3   OH239065   2.477   0.811  16.971 -0.0803  0.0766 -0.0993
 4957TIP3    H139066   2.424   0.856  17.037 -0.2115  0.7218 -0.6307
 4957TIP3    H239067   2.550   0.773  17.020 -0.2978  0.3540  0.4474
 4958TIP3   OH239068   0.290   3.219  16.461  0.2666  0.0161 -0.0567
 4958TIP3    H139069   0.335   3.237  16.544 -0.1056  0.6308  0.0167
 4958TIP3    H239070   0.360   3.193  16.401  0.3515 -2.2753  0.9350
 4959TIP3   OH239071   3.292   3.214  17.789 -0.5662  0.7452 -0.2612
 4959TIP3    H139072   3.303   3.307  17.806 -1.0790  0.7850 -0.1589
 4959TIP3    H239073   3.379   3.177  17.803 -0.4372  1.1554  0.0190
 4960TIP3   OH239074   3.594   5.228  17.986 -0.2766  0.4375  0.1213
 4960TIP3    H139075   3.549   5.297  17.938 -1.3556  0.6281  1.3466
 4960TIP3    H239076   3.532   5.201  18.054  0.5530 -0.9663  0.3742
 4961TIP3   OH239077   4.980   4.698  16.597 -0.0892 -0.0543  0.2751
 4961TIP3    H139078   4.884   4.704  16.603 -0.2045  0.1425 -1.2734
 4961TIP3    H239079   4.999   4.719  16.505  1.4350 -0.2102  0.5350
 4962TIP3   OH239080   4.228   0.993  16.053  0.2967 -0.1660 -0.6376
 4962TIP3    H139081   4.211   0.910  16.008 -2.9408 -0.8243  1.4709
 4962TIP3    H239082   4.174   1.057  16.006  0.5475  0.1421 -0.5063
 4963TIP3   OH239083   1.046   2.327  18.193  0.1859 -0.1796  0.2008
 4963TIP3    H139084   0.956   2.354  18.214 -0.9654 -2.8786 -0.8588
 4963TIP3    H239085   1.065   2.258  18.256 -0.0302 -2.3281 -1.9549
 4964TIP3   OH239086   6.826   5.788  16.953  0.1756 -0.2296 -0.7002
 4964TIP3    H139087   6.842   5.698  16.925  0.8402 -0.5311  0.6108
 4964TIP3    H239088   6.912   5.825  16.971 -0.1093  0.5830 -0.9124
 4965TIP3   OH239089   2.791   7.078  16.868  0.0483 -0.1667 -0.0940
 4965TIP3    H139090   2.840   7.150  16.828 -0.0158  0.3572  0.7585
 4965TIP3    H239091   2.700   7.109  16.870  0.0760 -0.1220  0.5991
 4966TIP3   OH239092   0.918   2.648  18.137 -0.6376  0.1360  0.0150
 4966TIP3    H139093   0.869   2.598  18.072 -0.1535  1.4438 -1.4183
 4966TIP3    H239094   0.961   2.717  18.087  1.0227  0.2615  1.5249
 4967TIP3   OH239095   3.826   0.265  17.742 -0.1773  0.8617 -0.1572
 4967TIP3    H139096   3.806   0.257  17.649 -0.7104  1.1255 -0.0629
 4967TIP3    H239097   3.919   0.240  17.749 -0.8255 -1.8516 -0.3577
 4968TIP3   OH239098   2.194   3.184  16.101 -0.2391 -0.0919  0.1368
 4968TIP3    H139099   2.127   3.138  16.052 -0.1510 -0.0152 -0.0556
 4968TIP3    H239100   2.271   3.127  16.096 -0.2203 -0.0684  0.1556
 4969TIP3   OH239101   2.419   5.536  16.366 -0.1182 -0.3987  0.4929
 4969TIP3    H139102   2.477   5.461  16.353  0.0828 -0.2527  0.5626
 4969TIP3    H239103   2.477   5.612  16.370 -0.2997 -0.2736  0.7490
 4970TIP3   OH239104   6.884   6.131  17.617 -0.0046 -0.3232 -0.1834
 4970TIP3    H139105   6.833   6.074  17.674  0.0898 -1.3129 -1.0601
 4970TIP3    H239106   6.820   6.169  17.556 -0.0530  0.4446  0.3345
 4971TIP3   OH239107   1.342   7.273  16.917 -0.7482  0.1323  0.1378
 4971TIP3    H139108   1.330   7.307  17.005  0.7087  1.3734 -0.1066
 4971TIP3    H239109   1.405   7.201  16.928 -1.7602 -0.7684  0.2814
 4972TIP3   OH239110   6.253   5.805  17.068 -0.1379 -0.7401  0.3880
 4972TIP3    H139111   6.297   5.884  17.098 -1.0396 -0.4200  0.9189
 4972TIP3    H239112   6.162   5.815  17.099 -0.5171 -1.4920 -0.4429
 4973TIP3   OH239113   6.977   4.763  18.202 -0.0788 -0.0029 -0.5286
 4973TIP3    H139114   6.969   4.756  18.107  1.1637  0.2394 -0.6750
 4973TIP3    H239115   7.070   4.745  18.219  0.0722  1.5858  0.4769
 4974TIP3   OH239116   5.020   1.437  16.887  0.2177 -0.3443  0.0685
 4974TIP3    H139117   5.079   1.462  16.816 -0.3160  1.4000  0.2082
 4974TIP3    H239118   5.012   1.516  16.940 -2.3830 -0.4550 -0.0508
 4975TIP3   OH239119   7.431   4.303  16.740  0.4503  0.2282  0.3864
 4975TIP3    H139120   7.425   4.392  16.777 -0.2575 -0.0601  0.9947
 4975TIP3    H239121   7.521   4.276  16.758  0.1850  0.1783  1.7518
 4976TIP3   OH239122   6.694   2.202  18.479  0.4975  0.2814  0.6369
 4976TIP3    H139123   6.687   2.146  18.401 -0.7005  0.5707  0.5120
 4976TIP3    H239124   6.735   2.146  18.545 -0.0381 -0.5359  0.2962
 4977TIP3   OH239125   0.122   0.890  18.963 -0.0257  0.1758 -0.6153
 4977TIP3    H139126   0.115   0.969  19.016 -0.2536  0.9505 -1.7496
 4977TIP3    H239127   0.159   0.824  19.022 -0.5634  0.9075  0.5707
 4978TIP3   OH239128   1.748   1.825  17.297  0.4613  0.1550 -0.1346
 4978TIP3    H139129   1.815   1.857  17.358  0.5906 -0.1159 -0.1311
 4978TIP3    H239130   1.700   1.904  17.270  2.2944  0.7573 -1.9772
 4979TIP3   OH239131   2.283   1.503  18.457 -0.1929  0.2468  0.1876
 4979TIP3    H139132   2.207   1.555  18.430 -0.3091 -0.2956 -0.5432
 4979TIP3    H239133   2.354   1.567  18.462 -0.0924  0.3382 -1.7273
 4980TIP3   OH239134   2.469   0.440  16.463  0.1780  0.0557  0.1995
 4980TIP3    H139135   2.429   0.498  16.398  1.2011 -0.1495 -0.6412
 4980TIP3    H239136   2.507   0.369  16.411  3.8022  1.4579  0.6198
 4981TIP3   OH239137   1.006   6.125  17.340  0.2863 -0.0508 -0.0806
 4981TIP3    H139138   1.037   6.053  17.395  0.3183  0.1673  0.1856
 4981TIP3    H239139   1.085   6.156  17.295  0.0962 -0.9254 -1.0791
 4982TIP3   OH239140   0.599   1.538  16.994 -0.3857 -0.2957  0.0558
 4982TIP3    H139141   0.529   1.585  16.948  0.6789  0.8848 -0.4328
 4982TIP3    H239142   0.572   1.447  16.992 -1.6858  0.0740 -0.5310
 4983TIP3   OH239143   1.397   6.055  17.704  0.0562 -0.2000  0.2221
 4983TIP3    H139144   1.313   6.051  17.750 -1.5540 -2.1235 -2.6256
 4983TIP3    H239145   1.386   6.127  17.642  1.1654  0.5727  0.8866
 4984TIP3   OH239146   1.067   5.003  18.285 -0.0828  0.0732 -0.2485
 4984TIP3    H139147   1.065   4.982  18.192 -0.0747 -1.0357 -0.0054
 4984TIP3    H239148   1.117   4.932  18.326  1.7535  1.6267  0.3548
 4985TIP3   OH239149   1.750   6.754  18.921 -0.5307 -0.1369  0.4970
 4985TIP3    H139150   1.663   6.782  18.950 -0.5621  0.1356  0.1453
 4985TIP3    H239151   1.793   6.834  18.894 -0.7694 -0.4603 -0.9139
 4986TIP3   OH239152   2.047   2.964  16.874 -0.3424 -0.8304 -0.2146
 4986TIP3    H139153   2.023   3.038  16.930 -0.0968 -1.7796  1.1718
 4986TIP3    H239154   2.041   3.000  16.785  2.3632  1.6845  0.4201
 4987TIP3   OH239155   4.156   1.165  16.271  0.1128  0.4887 -0.4357
 4987TIP3    H139156   4.249   1.151  16.253  0.3613  1.1414  0.2889
 4987TIP3    H239157   4.124   1.217  16.197  0.6287  1.3381 -0.0759
 4988TIP3   OH239158   5.655   0.478  16.643  0.1421  0.4167 -0.3800
 4988TIP3    H139159   5.614   0.402  16.685  1.0700 -0.2202 -0.5843
 4988TIP3    H239160   5.649   0.548  16.709 -1.8150  0.5579 -0.6430
 4989TIP3   OH239161   1.932   6.489  16.959  0.2018 -0.0943  0.2969
 4989TIP3    H139162   1.967   6.569  16.920 -1.0564 -0.7367 -2.4252
 4989TIP3    H239163   2.009   6.436  16.979  0.9901  1.1587  0.6905
 4990TIP3   OH239164   5.533   4.420  18.209  0.9044 -0.4878 -0.3324
 4990TIP3    H139165   5.565   4.509  18.194  0.8395 -0.8799 -3.2380
 4990TIP3    H239166   5.599   4.363  18.170  0.3218 -1.6808  0.3425
 4991TIP3   OH239167   0.845   0.398  18.694 -0.6467  0.4274  0.1512
 4991TIP3    H139168   0.835   0.349  18.776  0.1305 -1.4646 -0.8204
 4991TIP3    H239169   0.917   0.458  18.711  0.7505 -1.2064  0.3735
 4992TIP3   OH239170   1.325   1.706  18.296  0.3519  0.4357 -0.4926
 4992TIP3    H139171   1.261   1.765  18.256  0.3604  0.7475 -0.0478
 4992TIP3    H239172   1.345   1.643  18.227  1.0519  1.4903 -1.2851
 4993TIP3   OH239173   0.989   1.027  16.471 -0.4245 -0.2471  0.1790
 4993TIP3    H139174   0.926   1.097  16.458  1.0069  0.9374 -0.7065
 4993TIP3    H239175   1.074   1.068  16.457  0.5072 -2.0038  0.3499
 4994TIP3   OH239176   1.527   3.843  18.433 -0.3359 -0.1507 -0.2031
 4994TIP3    H139177   1.456   3.874  18.489  0.4515  1.4165  0.0021
 4994TIP3    H239178   1.554   3.760  18.471 -0.7456  0.2070  0.9095
 4995TIP3   OH239179   5.213   5.560  17.926  0.5884 -0.2391  0.1562
 4995TIP3    H139180   5.155   5.488  17.950 -1.0633  0.5658 -1.2230
 4995TIP3    H239181   5.276   5.521  17.865  0.4845 -0.7642  0.3824
 4996TIP3   OH239182   0.393   5.914  18.000 -0.4843 -0.0450  0.0174
 4996TIP3    H139183   0.299   5.933  18.001 -0.5145 -0.1774 -0.4163
 4996TIP3    H239184   0.433   5.993  17.966 -0.5583 -0.5024 -1.1703
 4997TIP3   OH239185   5.566   1.168  17.446 -0.0342  0.1147  0.2689
 4997TIP3    H139186   5.567   1.240  17.384  2.5668  0.4576  0.5816
 4997TIP3    H239187   5.637   1.111  17.417 -0.0332 -0.7196  1.8052
 4998TIP3   OH239188   0.973   3.346  19.247  0.6821 -0.3805  0.0911
 4998TIP3    H139189   0.903   3.299  19.293 -0.3816 -0.5955 -1.6325
 4998TIP3    H239190   1.053   3.299  19.270  0.1005 -0.8847  1.1479
 4999TIP3   OH239191   3.323   4.590  16.194  0.1482  0.1859 -0.0742
 4999TIP3    H139192   3.245   4.537  16.176  0.4858 -0.6702  0.8881
 4999TIP3    H239193   3.342   4.633  16.110 -0.5572 -0.6552 -0.6871
 5000TIP3   OH239194   3.082   3.419  17.452 -0.0780  0.5698  0.3178
 5000TIP3    H139195   3.118   3.353  17.392  0.1823  2.0257 -1.1988
 5000TIP3    H239196   3.156   3.442  17.509  0.7171  1.6291 -1.0658
 5001TIP3   OH239197   5.482   3.516  18.897 -0.5600 -0.0108  0.0577
 5001TIP3    H139198   5.526   3.436  18.926 -0.1842 -0.3413 -1.3450
 5001TIP3    H239199   5.552   3.569  18.858 -1.1003  0.2315 -0.5953
 5002TIP3   OH239200   2.166   0.719  18.636 -0.0290 -0.2384 -0.0857
 5002TIP3    H139201   2.179   0.765  18.719  0.5996 -1.2134  0.3721
 5002TIP3    H239202   2.156   0.789  18.571  0.3389  0.5388  0.6736
 5003TIP3   OH239203   5.356   4.808  17.928 -0.3339  0.0110  0.0850
 5003TIP3    H139204   5.436   4.756  17.916 -0.5517 -0.3407  0.1382
 5003TIP3    H239205   5.301   4.784  17.854 -0.9006 -0.7082  0.7133
 5004TIP3   OH239206   3.943   6.937  16.529  0.2067 -0.7499 -0.0954
 5004TIP3    H139207   3.933   6.911  16.438  1.3441 -3.6865  0.5223
 5004TIP3    H239208   3.866   6.992  16.547  0.5385  0.8935 -3.0516
 5005TIP3   OH239209   7.287   3.782  16.992  0.3685 -0.4729  0.4216
 5005TIP3    H139210   7.312   3.810  16.904 -0.0559 -0.5613  0.2673
 5005TIP3    H239211   7.343   3.834  17.051 -0.2208  0.5217  0.1330
 5006TIP3   OH239212   3.969   6.563  18.504  0.6001  0.3410  0.3942
 5006TIP3    H139213   3.919   6.529  18.429  1.5257 -0.6967  0.2148
 5006TIP3    H239214   4.058   6.534  18.487  0.7831 -0.1109  2.0110
 5007TIP3   OH239215   4.338   1.407  16.184 -0.3855  0.1774  0.1792
 5007TIP3    H139216   4.389   1.356  16.121 -2.4007 -1.2077 -0.4162
 5007TIP3    H239217   4.305   1.481  16.134 -1.5962 -0.6712 -0.3238
 5008TIP3   OH239218   3.736   1.712  16.963  0.3212  0.0708 -0.0771
 5008TIP3    H139219   3.722   1.784  17.024 -2.3990  0.2458 -0.7544
 5008TIP3    H239220   3.731   1.633  17.016  1.9875  0.2850  0.4620
 5009TIP3   OH239221   4.426   6.144  17.435 -0.3164 -0.0914 -0.2799
 5009TIP3    H139222   4.474   6.201  17.496  0.5970 -1.2610  0.1257
 5009TIP3    H239223   4.492   6.082  17.404 -1.8311 -2.7831  1.5176
 5010TIP3   OH239224   1.871   6.406  17.717  0.0878 -0.3225  0.8107
 5010TIP3    H139225   1.855   6.313  17.736  1.2104 -0.1543  2.7838
 5010TIP3    H239226   1.835   6.452  17.793  1.0682  0.7305  0.6588
 5011TIP3   OH239227   7.171   5.258  16.785  0.0490  0.3636  0.3560
 5011TIP3    H139228   7.108   5.198  16.824 -0.6522  2.1331  2.1106
 5011TIP3    H239229   7.126   5.293  16.708 -0.8060  0.9451  1.0975
 5012TIP3   OH239230   2.661   4.645  16.902 -0.1278  0.0921 -0.1144
 5012TIP3    H139231   2.682   4.681  16.817 -0.0944  1.4249  0.4429
 5012TIP3    H239232   2.565   4.639  16.903 -0.1846  0.9046  0.0674
 5013TIP3   OH239233   6.955   1.808  18.913 -0.9963  0.3274 -0.3699
 5013TIP3    H139234   6.991   1.724  18.883 -1.5851 -0.1264  0.1815
 5013TIP3    H239235   7.032   1.858  18.941 -0.5503  0.3198 -1.5181
 5014TIP3   OH239236   6.741   6.121  18.125  0.5714 -0.0152  0.2255
 5014TIP3    H139237   6.747   6.055  18.195 -0.1515 -0.3262  0.0060
 5014TIP3    H239238   6.650   6.117  18.096  0.8454  0.1705 -0.6868
 5015TIP3   OH239239   5.707   6.559  18.425  0.9300 -0.5056 -0.4774
 5015TIP3    H139240   5.742   6.535  18.511 -0.9011  0.9538  0.7566
 5015TIP3    H239241   5.720   6.653  18.419 -1.4314 -0.1193 -0.5298
 5016TIP3   OH239242   3.024   0.770  17.501  0.1352  0.7402  0.4360
 5016TIP3    H139243   3.084   0.782  17.427  0.0862  0.3390  0.3294
 5016TIP3    H239244   3.065   0.818  17.573  1.0549 -0.2735  0.6145
 5017TIP3   OH239245   4.149   0.653  18.140  0.1850 -0.3770 -0.0771
 5017TIP3    H139246   4.115   0.715  18.076 -1.3503  0.5042  1.4860
 5017TIP3    H239247   4.174   0.708  18.215  2.9465 -1.2558 -0.2475
 5018TIP3   OH239248   4.582   5.037  16.155 -0.1517  0.0549  0.0528
 5018TIP3    H139249   4.660   5.053  16.209  0.1026 -0.0917 -0.2672
 5018TIP3    H239250   4.551   5.125  16.131  1.5455  0.1429 -2.1331
 5019TIP3   OH239251   3.955   5.839  16.441  0.4984  0.5646  0.0904
 5019TIP3    H139252   4.011   5.854  16.364 -0.1771 -0.4213 -0.6156
 5019TIP3    H239253   3.897   5.767  16.415 -0.5450  1.0122  1.1048
 5020TIP3   OH239254   4.828   2.121  15.856 -1.2070 -0.2827  0.7316
 5020TIP3    H139255   4.777   2.148  15.780 -2.0581  0.8710  1.6732
 5020TIP3    H239256   4.769   2.135  15.931  0.6061  1.6189  1.9274
 5021TIP3   OH239257   6.415   0.759  16.134  0.2368 -0.3070 -0.4990
 5021TIP3    H139258   6.339   0.746  16.076  0.3805  1.7265 -1.2259
 5021TIP3    H239259   6.459   0.674  16.135 -1.4979 -1.2635 -0.8435
 5022TIP3   OH239260   6.437   0.244  16.827 -0.8169  0.2932  0.3966
 5022TIP3    H139261   6.478   0.164  16.857 -0.0065  0.4697 -0.1957
 5022TIP3    H239262   6.370   0.215  16.764 -1.8472 -0.0120  1.5995
 5023TIP3   OH239263   6.966   7.078  18.775 -0.2498 -0.1456  0.1929
 5023TIP3    H139264   6.978   7.156  18.830 -1.3843  0.2307 -0.0491
 5023TIP3    H239265   6.980   7.005  18.834  1.5554  0.2140  0.2594
 5024TIP3   OH239266   7.361   1.632  17.617  0.4370  0.5821 -0.3824
 5024TIP3    H139267   7.326   1.583  17.691 -0.1394  0.9581 -0.3986
 5024TIP3    H239268   7.443   1.587  17.595  0.2636  0.0487  0.0362
 5025TIP3   OH239269   4.575   6.849  18.398 -0.1342  0.3414 -0.0054
 5025TIP3    H139270   4.575   6.885  18.309  1.4996 -0.7953 -0.4924
 5025TIP3    H239271   4.655   6.883  18.438 -0.0439 -0.4437  0.4919
 5026TIP3   OH239272   5.008   0.112  16.267 -0.3197  0.2621  0.5219
 5026TIP3    H139273   5.092   0.122  16.312 -0.4778  1.4728  0.5862
 5026TIP3    H239274   4.947   0.165  16.319 -1.4003 -1.4765  1.1318
 5027TIP3   OH239275   1.205   5.559  17.171 -0.0462  0.8170  0.0838
 5027TIP3    H139276   1.277   5.556  17.233  0.4454  0.8199 -0.4743
 5027TIP3    H239277   1.219   5.641  17.122 -0.0449  0.4916 -0.4691
 5028TIP3   OH239278   0.709   2.960  18.642 -0.0564 -0.3031  0.5401
 5028TIP3    H139279   0.747   2.943  18.728 -1.5461  0.2276  1.3506
 5028TIP3    H239280   0.766   3.027  18.603  0.3026 -0.1159  1.3618
 5029TIP3   OH239281   2.851   6.893  17.702  0.7407  0.8085 -0.3815
 5029TIP3    H139282   2.929   6.941  17.675  1.3761 -0.5146 -1.0249
 5029TIP3    H239283   2.809   6.868  17.620  0.6316 -0.0394 -0.0790
 5030TIP3   OH239284   6.289   2.784  17.440 -0.2806  0.2479  0.2747
 5030TIP3    H139285   6.264   2.830  17.520 -1.4587 -1.1139  0.7217
 5030TIP3    H239286   6.366   2.732  17.465 -1.0039 -0.6374  0.7111
 5031TIP3   OH239287   4.175   1.565  18.053 -0.6508  0.3108  0.1190
 5031TIP3    H139288   4.158   1.621  17.977  0.7086 -0.4607 -0.7896
 5031TIP3    H239289   4.251   1.604  18.095 -0.6156 -0.0039  0.3475
 5032TIP3   OH239290   7.364   5.312  18.034  0.5541 -0.3522 -0.0272
 5032TIP3    H139291   7.320   5.377  18.089 -0.9463 -0.2179 -1.3376
 5032TIP3    H239292   7.326   5.228  18.061  1.1928 -0.5055  0.4228
 5033TIP3   OH239293   5.175   4.964  18.765  0.1601  0.0000  0.0408
 5033TIP3    H139294   5.268   4.971  18.744  0.0403 -1.4123 -1.0389
 5033TIP3    H239295   5.172   4.900  18.836  0.2519  2.3973  2.3848
 5034TIP3   OH239296   0.194   5.433  15.992 -0.6670 -0.4506 -0.5151
 5034TIP3    H139297   0.108   5.474  15.987 -0.6984 -0.4450 -0.0034
 5034TIP3    H239298   0.249   5.482  15.931 -0.3818  1.1438  0.9580
 5035TIP3   OH239299   2.697   3.161  17.695  0.2392  0.2724 -0.0958
 5035TIP3    H139300   2.720   3.070  17.676 -0.7649  0.0636 -0.3603
 5035TIP3    H239301   2.608   3.157  17.730  0.0363  1.1887 -0.4690
 5036TIP3   OH239302   0.814   1.975  16.312 -0.2280  0.0850  0.0378
 5036TIP3    H139303   0.905   1.963  16.284 -0.0649  0.5092  0.3706
 5036TIP3    H239304   0.795   2.068  16.295 -0.3482  0.1821  0.6741
 5037TIP3   OH239305   3.341   2.829  18.826 -0.7785  0.3079 -0.3562
 5037TIP3    H139306   3.428   2.867  18.816 -0.9450  0.8024  0.0295
 5037TIP3    H239307   3.351   2.763  18.895 -0.5821 -0.0566 -0.7302
 5038TIP3   OH239308   4.809   2.336  17.334  0.0357  0.2624  0.7183
 5038TIP3    H139309   4.817   2.378  17.248  0.3531 -1.9228 -0.3963
 5038TIP3    H239310   4.860   2.392  17.393 -1.7939  2.9066 -0.0331
 5039TIP3   OH239311   6.730   5.246  18.162  0.3768  0.1426 -0.4866
 5039TIP3    H139312   6.749   5.152  18.165 -0.7623 -0.1137 -0.9127
 5039TIP3    H239313   6.787   5.284  18.229 -0.0421 -1.0141  0.5743
 5040TIP3   OH239314   5.568   4.706  17.813  0.2182 -0.2656 -0.0476
 5040TIP3    H139315   5.608   4.620  17.819 -0.1430 -0.4837 -0.6539
 5040TIP3    H239316   5.616   4.750  17.742 -0.0765 -0.2374 -0.2338
 5041TIP3   OH239317   7.169   5.493  17.717 -0.8411 -0.5903  0.3166
 5041TIP3    H139318   7.155   5.453  17.632  0.3175  1.0638 -0.7098
 5041TIP3    H239319   7.104   5.451  17.774 -0.9378 -2.4765 -1.1009
 5042TIP3   OH239320   7.217   2.519  17.508  0.4352 -0.2182 -0.0920
 5042TIP3    H139321   7.284   2.457  17.537 -0.6306 -1.1338  0.5078
 5042TIP3    H239322   7.157   2.525  17.583  0.1725  1.0516 -0.3907
 5043TIP3   OH239323   4.078   1.787  16.689  0.1609  0.5603  0.3489
 5043TIP3    H139324   4.017   1.724  16.727 -0.1754 -0.5742 -1.8935
 5043TIP3    H239325   4.032   1.871  16.693 -1.3865 -0.1787 -0.8104
 5044TIP3   OH239326   5.908   2.842  16.326  0.4596 -0.0658 -0.2799
 5044TIP3    H139327   5.905   2.754  16.290  0.4637 -1.5043  2.8430
 5044TIP3    H239328   5.992   2.848  16.371  0.9306  1.9742 -1.3024
 5045TIP3   OH239329   0.831   0.285  17.338  0.2348 -0.1959  0.8451
 5045TIP3    H139330   0.800   0.229  17.266  1.8428 -1.1246  0.8356
 5045TIP3    H239331   0.767   0.356  17.341 -0.2440 -0.4714 -1.0838
 5046TIP3   OH239332   0.518   2.363  16.986 -0.2927 -0.3471  0.1867
 5046TIP3    H139333   0.596   2.340  17.037  0.8448  0.6397 -1.0393
 5046TIP3    H239334   0.486   2.444  17.027 -1.1381 -1.1304  1.1379
 5047TIP3   OH239335   5.240   6.118  16.818 -0.6076 -0.3600  0.2807
 5047TIP3    H139336   5.294   6.054  16.864  1.7362  1.6289  0.4783
 5047TIP3    H239337   5.229   6.082  16.730 -0.6924 -1.7422  0.8335
 5048TIP3   OH239338   7.470   3.630  18.262 -0.0220  0.0991  0.1800
 5048TIP3    H139339   7.407   3.562  18.286 -1.4347  1.0415 -0.7570
 5048TIP3    H239340   7.496   3.608  18.173 -0.3106  0.6331 -0.0425
 5049TIP3   OH239341   3.772   2.781  17.085 -0.2409  0.2735 -0.2663
 5049TIP3    H139342   3.751   2.801  16.994  0.3825 -3.6335 -1.4466
 5049TIP3    H239343   3.868   2.789  17.090 -0.1454 -0.7494 -0.3354
 5050TIP3   OH239344   5.180   4.957  17.713 -0.1669  0.0315 -0.0183
 5050TIP3    H139345   5.110   5.021  17.715  0.4955  0.8379 -1.1683
 5050TIP3    H239346   5.257   5.006  17.683  0.7414 -0.9606  0.5847
 5051TIP3   OH239347   5.224   5.246  16.995 -0.2949  0.1408 -0.1982
 5051TIP3    H139348   5.148   5.295  16.965 -0.2498  0.9122  0.8919
 5051TIP3    H239349   5.283   5.312  17.032  0.4009 -0.5675 -0.0032
 5052TIP3   OH239350   4.892   6.378  17.423  0.0757 -0.4274 -0.1003
 5052TIP3    H139351   4.928   6.309  17.367 -0.1759 -1.4728  0.9906
 5052TIP3    H239352   4.819   6.413  17.373  1.4468  0.4766 -1.5499
 5053TIP3   OH239353   4.355   0.922  16.634 -0.5702 -0.7999 -0.2130
 5053TIP3    H139354   4.279   0.962  16.676 -1.0774 -0.5284 -1.3532
 5053TIP3    H239355   4.327   0.906  16.544  1.5650  1.9427 -1.5237
 5054TIP3   OH239356   7.146   5.766  17.787  0.1802 -0.2477  0.0540
 5054TIP3    H139357   7.102   5.803  17.710  1.7462  1.6145 -0.0369
 5054TIP3    H239358   7.151   5.672  17.770  0.3055  0.0892 -2.0344
 5055TIP3   OH239359   3.993   4.260  17.653 -0.3585  0.3231 -0.4831
 5055TIP3    H139360   4.006   4.188  17.592  0.3665  0.9131 -1.0517
 5055TIP3    H239361   4.022   4.338  17.604 -0.6154  0.9186  0.2993
 5056TIP3   OH239362   3.302   0.726  17.802  0.0593 -0.0506 -0.4675
 5056TIP3    H139363   3.361   0.680  17.742  0.0628  1.9826 -2.1204
 5056TIP3    H239364   3.354   0.738  17.882  1.4465  0.5620 -1.4242
 5057TIP3   OH239365   2.773   0.166  17.712  0.3672 -0.2713  0.2244
 5057TIP3    H139366   2.700   0.105  17.698 -0.2285  0.7312 -1.3799
 5057TIP3    H239367   2.754   0.207  17.796 -0.3524 -0.7925  0.3332
 5058TIP3   OH239368   4.691   2.145  17.502 -0.1650 -0.1163  0.4724
 5058TIP3    H139369   4.720   2.065  17.458  0.0925 -0.3394  1.0355
 5058TIP3    H239370   4.726   2.216  17.447 -2.2485 -0.3273 -1.2795
 5059TIP3   OH239371   4.789   6.396  16.835  0.6383  0.6494 -0.1396
 5059TIP3    H139372   4.797   6.491  16.829 -1.9566  0.8790 -0.9275
 5059TIP3    H239373   4.780   6.367  16.744 -1.1857 -0.0358  0.2168
 5060TIP3   OH239374   2.111   4.507  17.455 -0.0834 -0.6772 -0.0213
 5060TIP3    H139375   2.143   4.464  17.535  2.1417 -1.6489 -1.3497
 5060TIP3    H239376   2.017   4.493  17.457 -0.2025 -0.0972  2.7444
 5061TIP3   OH239377   5.539   4.008  17.082  0.5397 -0.7627 -0.1613
 5061TIP3    H139378   5.446   4.030  17.071  0.5382 -0.8787 -0.4035
 5061TIP3    H239379   5.586   4.085  17.050  0.5258  0.0883  1.7652
 5062TIP3   OH239380   6.680   4.878  16.326 -0.4000 -0.0773  0.0905
 5062TIP3    H139381   6.631   4.816  16.272  0.3139 -0.6468  0.0689
 5062TIP3    H239382   6.758   4.898  16.274  0.7279 -1.2816  1.2132
 5063TIP3   OH239383   2.282   3.968  17.544 -0.3594  0.6923 -0.3325
 5063TIP3    H139384   2.259   3.944  17.634  0.2698  1.4503  0.0352
 5063TIP3    H239385   2.225   4.042  17.524 -1.2371 -0.1216 -0.9403
 5064TIP3   OH239386   2.888   0.177  18.164 -0.2951 -0.1450 -0.4336
 5064TIP3    H139387   2.833   0.218  18.231  0.0375  0.1716 -0.3515
 5064TIP3    H239388   2.909   0.091  18.200  0.0512  0.1019 -0.0267
 5065TIP3   OH239389   2.029   5.512  18.027 -0.1926 -0.8805 -0.0024
 5065TIP3    H139390   1.982   5.498  18.110 -1.4528 -1.0122 -0.7077
 5065TIP3    H239391   1.965   5.554  17.970  0.3869 -1.5078 -1.1656
 5066TIP3   OH239392   1.000   6.847  17.900  0.3928  0.2800  0.4690
 5066TIP3    H139393   0.954   6.775  17.942 -0.7435  0.7051 -0.0077
 5066TIP3    H239394   1.074   6.865  17.957 -1.5910  1.4737  2.8548
 5067TIP3   OH239395   0.565   1.312  17.742 -0.1354 -0.3668  0.3087
 5067TIP3    H139396   0.477   1.279  17.759 -0.8021 -0.1384 -2.2198
 5067TIP3    H239397   0.556   1.408  17.746  0.2789 -0.3585  1.1772
 5068TIP3   OH239398   5.920   2.492  17.475  0.2312 -0.0553  0.3352
 5068TIP3    H139399   6.003   2.496  17.523  0.2374  0.5011  0.2925
 5068TIP3    H239400   5.943   2.518  17.386  0.6530 -3.3164 -0.6362
 5069TIP3   OH239401   2.437   3.631  18.799  0.3540  0.0962 -0.1004
 5069TIP3    H139402   2.379   3.686  18.746  2.4171  2.7498  0.2183
 5069TIP3    H239403   2.523   3.639  18.758  1.2849 -0.7045  1.5753
 5070TIP3   OH239404   1.883   4.157  19.127 -0.3594 -0.3919 -0.2101
 5070TIP3    H139405   1.962   4.118  19.091 -1.4993 -0.3951 -3.0151
 5070TIP3    H239406   1.839   4.085  19.172  0.4685 -0.7682  0.0125
 5071TIP3   OH239407   2.951   0.069  16.657 -0.4869  0.0583  0.1923
 5071TIP3    H139408   2.859   0.089  16.637 -0.2991  1.0938  0.3114
 5071TIP3    H239409   2.994   0.066  16.571 -0.3291  1.1966  0.2146
 5072TIP3   OH239410   5.076   3.529  18.523 -0.1815  0.2516 -0.5674
 5072TIP3    H139411   5.051   3.530  18.615  0.5097 -0.1702 -0.3698
 5072TIP3    H239412   5.093   3.437  18.503 -0.4697  0.3211 -1.1609
 5073TIP3   OH239413   5.851   4.536  17.139  0.2384  0.1560  0.1176
 5073TIP3    H139414   5.929   4.521  17.085  0.5825  2.2732 -0.0393
 5073TIP3    H239415   5.788   4.577  17.080 -0.8772 -1.1135  0.3660
 5074TIP3   OH239416   6.582   2.002  18.238 -0.1710 -0.2238 -0.2105
 5074TIP3    H139417   6.649   1.945  18.274  0.8864  0.0743 -1.6258
 5074TIP3    H239418   6.631   2.069  18.190 -1.4764  0.0303 -1.2310
 5075TIP3   OH239419   2.253   6.919  18.656 -0.0866  0.4265 -0.5649
 5075TIP3    H139420   2.184   6.903  18.590  1.1369 -0.9209 -1.5888
 5075TIP3    H239421   2.314   6.979  18.612 -0.0820  0.8262 -0.0240
 5076TIP3   OH239422   1.780   5.549  16.428  0.0608 -0.4422  0.4271
 5076TIP3    H139423   1.761   5.471  16.480  0.3739  0.1438  1.4635
 5076TIP3    H239424   1.702   5.605  16.439 -0.1221 -0.5640 -0.2271
 5077TIP3   OH239425   1.901   5.125  17.893 -0.1697  0.6549 -0.4277
 5077TIP3    H139426   1.851   5.206  17.886  1.3253  1.5079 -2.2085
 5077TIP3    H239427   1.961   5.127  17.819  0.0754 -2.0080 -0.4157
 5078TIP3   OH239428   4.878   3.608  16.844 -0.0544 -1.0908  0.4836
 5078TIP3    H139429   4.785   3.609  16.867 -0.0381  1.4718  0.7000
 5078TIP3    H239430   4.879   3.587  16.751 -1.2090  2.1467 -0.4041
 5079TIP3   OH239431   5.383   4.255  17.881  0.4680 -0.2440 -0.1514
 5079TIP3    H139432   5.321   4.239  17.952  0.0987 -0.3896 -0.5063
 5079TIP3    H239433   5.412   4.168  17.854  1.8372 -0.1428  0.8898
 5080TIP3   OH239434   0.549   6.207  16.866 -0.6437 -0.3555  0.0646
 5080TIP3    H139435   0.636   6.179  16.838 -1.3338 -1.4503 -1.0779
 5080TIP3    H239436   0.566   6.275  16.931  1.0655 -0.9793  0.3295
 5081TIP3   OH239437   2.346   2.944  18.052  0.0647 -0.6394  0.2777
 5081TIP3    H139438   2.384   2.910  18.133  2.6380 -0.3949 -0.7218
 5081TIP3    H239439   2.383   3.032  18.044  1.7940 -1.5056 -2.2774
 5082TIP3   OH239440   0.506   0.190  16.549 -0.2178 -0.4803 -0.3655
 5082TIP3    H139441   0.591   0.169  16.511  0.2014 -2.1125  1.3213
 5082TIP3    H239442   0.466   0.250  16.486  2.0211  0.0680 -1.3752
 5083TIP3   OH239443   3.767   2.066  18.708  0.0854 -0.0476  0.2523
 5083TIP3    H139444   3.773   1.979  18.669  0.2575 -0.1543  0.5130
 5083TIP3    H239445   3.692   2.061  18.767 -1.2900  0.6335 -1.3585
 5084TIP3   OH239446   1.695   6.643  17.624  0.0775 -0.4192 -0.6314
 5084TIP3    H139447   1.791   6.640  17.622  0.0755 -0.4077 -0.7262
 5084TIP3    H239448   1.672   6.714  17.564  0.0042 -0.5096 -0.7111
 5085TIP3   OH239449   1.456   6.200  18.595  0.3122 -0.0099  0.3305
 5085TIP3    H139450   1.424   6.152  18.671  1.9135  2.1277  2.5225
 5085TIP3    H239451   1.546   6.169  18.583  0.8208  1.2196  0.7792
 5086TIP3   OH239452   5.508   0.945  19.014 -0.0201  0.1726  0.1359
 5086TIP3    H139453   5.542   1.024  18.972 -0.2554  0.9779  1.4020
 5086TIP3    H239454   5.427   0.926  18.966  0.6479 -0.0303 -0.9588
 5087TIP3   OH239455   3.215   5.003  18.030  0.1112 -0.1836 -0.0763
 5087TIP3    H139456   3.149   4.941  17.999 -0.5491  1.8904 -3.2829
 5087TIP3    H239457   3.291   4.948  18.050 -1.0640 -2.2064 -0.8007
 5088TIP3   OH239458   3.222   4.282  15.747  0.4666  0.1111  0.2496
 5088TIP3    H139459   3.209   4.284  15.842 -2.7690  1.8089 -0.0608
 5088TIP3    H239460   3.192   4.195  15.721 -0.3437  0.2579  0.6522
 5089TIP3   OH239461   6.838   3.545  17.922  0.1716  0.0764  0.1078
 5089TIP3    H139462   6.870   3.599  17.851 -0.4714 -0.0758 -0.3030
 5089TIP3    H239463   6.917   3.513  17.966  0.6438 -1.3892 -1.7023
 5090TIP3   OH239464   4.795   1.892  17.402  0.2665 -0.0130 -0.0599
 5090TIP3    H139465   4.798   1.894  17.497  0.1109 -0.6771 -0.0335
 5090TIP3    H239466   4.787   1.799  17.380  0.3313  0.1301 -0.7205
 5091TIP3   OH239467   6.591   0.937  17.040 -0.0890 -0.1386 -0.4314
 5091TIP3    H139468   6.626   1.004  17.098  0.2924 -1.6515  1.1728
 5091TIP3    H239469   6.558   0.985  16.964 -0.1752  1.8756  0.8244
 5092TIP3   OH239470   3.551   0.090  18.548  0.3855  0.1800  1.3174
 5092TIP3    H139471   3.599   0.019  18.506 -1.1574  0.2137 -0.6436
 5092TIP3    H239472   3.618   0.151  18.578  1.6306 -0.8889  0.7823
 5093TIP3   OH239473   0.291   6.610  17.024 -0.1113 -0.1155  0.2708
 5093TIP3    H139474   0.253   6.528  16.993 -1.4321 -0.0180  1.5059
 5093TIP3    H239475   0.334   6.587  17.106  0.9884  0.1272 -0.2236
 5094TIP3   OH239476   3.871   2.688  17.391 -0.2679 -0.0616 -0.4345
 5094TIP3    H139477   3.815   2.678  17.468 -0.7538 -0.5303 -0.8416
 5094TIP3    H239478   3.959   2.666  17.422 -0.4184  0.0128  0.0498
 5095TIP3   OH239479   3.617   1.303  18.181 -0.4625 -0.0740  0.1610
 5095TIP3    H139480   3.686   1.360  18.148 -0.2005  0.8377  2.1485
 5095TIP3    H239481   3.618   1.227  18.123  1.3007  0.5453 -0.6590
 5096TIP3   OH239482   3.421   2.288  15.993  0.4137 -0.1748 -0.5568
 5096TIP3    H139483   3.507   2.261  15.960  0.3154 -0.8401 -0.2950
 5096TIP3    H239484   3.426   2.274  16.088  0.5499  1.3107 -0.3242
 5097TIP3   OH239485   5.158   0.534  17.466  0.0101  0.2937 -0.2616
 5097TIP3    H139486   5.176   0.450  17.508 -0.8611 -0.2300 -0.8911
 5097TIP3    H239487   5.223   0.540  17.396 -2.3440 -1.8399 -2.8706
 5098TIP3   OH239488   5.946   2.237  16.737 -0.0259 -0.0320  0.4016
 5098TIP3    H139489   5.875   2.225  16.675 -1.3103 -0.8018  1.9430
 5098TIP3    H239490   5.988   2.319  16.711 -1.1612  0.1828 -0.8404
 5099TIP3   OH239491   2.342   6.945  16.884 -0.3796 -0.4846 -0.5499
 5099TIP3    H139492   2.364   6.860  16.848  0.0326 -0.4687 -0.3453
 5099TIP3    H239493   2.288   6.926  16.961 -2.0118 -0.4939 -1.6450
 5100TIP3   OH239494   6.455   2.346  17.121 -0.0963 -0.0424 -0.2895
 5100TIP3    H139495   6.546   2.357  17.150 -0.0210 -2.0194  0.3684
 5100TIP3    H239496   6.461   2.320  17.030  0.1247 -1.7970  0.1956
 5101TIP3   OH239497   4.039   2.098  18.415  0.3004  0.2602 -0.1968
 5101TIP3    H139498   3.988   2.082  18.336  2.2316 -0.8610 -1.2838
 5101TIP3    H239499   4.067   2.190  18.407 -2.5763  1.3858  1.1309
 5102TIP3   OH239500   3.715   0.529  17.833 -0.1536  0.2611 -0.0592
 5102TIP3    H139501   3.671   0.509  17.915 -1.1353 -0.0337 -0.6406
 5102TIP3    H239502   3.729   0.444  17.791  2.4285  0.1804  0.7946
 5103TIP3   OH239503   7.193   7.329  16.366  0.0714  0.7181  0.4781
 5103TIP3    H139504   7.152   7.350  16.282  0.6963  0.7941  0.1843
 5103TIP3    H239505   7.277   7.374  16.364  0.1574  0.5978  1.0863
 5104TIP3   OH239506   4.732   6.606  17.671  0.2169 -0.3905  0.2015
 5104TIP3    H139507   4.738   6.526  17.724  0.2531 -1.1139 -0.8717
 5104TIP3    H239508   4.760   6.579  17.584 -1.4409  0.3890 -0.6147
 5105TIP3   OH239509   5.562   2.460  17.359 -0.0105  0.0875  0.3414
 5105TIP3    H139510   5.543   2.550  17.386  2.0437  0.9815 -0.9887
 5105TIP3    H239511   5.630   2.430  17.420  0.4931  0.0456 -0.2294
 5106TIP3   OH239512   6.178   6.581  16.354 -0.2395  0.8553  0.0227
 5106TIP3    H139513   6.125   6.623  16.286  0.3557  1.5005 -0.0514
 5106TIP3    H239514   6.116   6.556  16.421 -0.6606  1.4954 -0.1201
 5107TIP3   OH239515   5.170   3.676  18.305 -0.8320 -0.0936  0.1059
 5107TIP3    H139516   5.161   3.769  18.324 -1.3080  0.0547 -0.7963
 5107TIP3    H239517   5.132   3.632  18.381 -1.8728  0.4672 -0.0756
 5108TIP3   OH239518   7.301   1.346  16.696  0.1469  0.5176 -0.0513
 5108TIP3    H139519   7.258   1.261  16.700  0.1016  0.5749  1.7599
 5108TIP3    H239520   7.281   1.380  16.609 -1.4488 -0.5130 -0.1157
 5109TIP3   OH239521   0.553   2.709  19.034 -0.1423 -0.6413  0.5263
 5109TIP3    H139522   0.590   2.628  18.998  2.0954  1.0519 -1.3542
 5109TIP3    H239523   0.506   2.749  18.960  1.6544  1.2853  0.3116
 5110TIP3   OH239524   2.238   0.307  18.180 -0.4521  0.1852 -0.1453
 5110TIP3    H139525   2.279   0.232  18.137 -2.2659 -1.3741  0.7295
 5110TIP3    H239526   2.258   0.296  18.273 -0.3425  1.0761 -0.0472
 5111TIP3   OH239527   5.985   6.126  18.423 -0.0129 -0.4208 -0.0543
 5111TIP3    H139528   5.893   6.123  18.447 -0.5423 -0.1071 -1.8689
 5111TIP3    H239529   6.015   6.212  18.451  0.1106 -0.9801  1.6689
 5112TIP3   OH239530   1.320   3.728  17.986  0.1849 -0.3662  0.3635
 5112TIP3    H139531   1.348   3.771  17.905 -1.9823  2.0640  0.7776
 5112TIP3    H239532   1.373   3.769  18.055  1.3409 -1.7419  0.3399
 5113TIP3   OH239533   2.457   4.204  16.629  0.1449 -0.4504 -0.2463
 5113TIP3    H139534   2.520   4.228  16.561  2.3143 -2.8712  0.7483
 5113TIP3    H239535   2.456   4.109  16.629 -3.1552 -0.5470  0.2349
 5114TIP3   OH239536   7.418   5.154  16.746 -0.2437  0.3625  0.0062
 5114TIP3    H139537   7.334   5.189  16.773  0.3148  1.5885  0.2215
 5114TIP3    H239538   7.472   5.156  16.825 -0.5071 -2.1689  0.3646
 5115TIP3   OH239539   3.505   0.617  17.663  0.1808 -0.2548 -0.4993
 5115TIP3    H139540   3.546   0.590  17.581  0.6536 -1.6034  0.1683
 5115TIP3    H239541   3.568   0.596  17.731 -0.9857 -1.0036  0.4032
 5116TIP3   OH239542   7.405   5.602  17.892 -0.1166 -0.2326  0.0893
 5116TIP3    H139543   7.319   5.604  17.934 -0.0702 -0.7683  0.2217
 5116TIP3    H239544   7.387   5.584  17.800 -0.2239  1.0237 -0.1535
 5117TIP3   OH239545   7.392   6.204  18.272 -0.7017 -0.1425  0.5394
 5117TIP3    H139546   7.469   6.224  18.220 -0.3067 -2.4036  0.1323
 5117TIP3    H239547   7.324   6.263  18.240  0.2742  0.3988 -0.5901
 5118TIP3   OH239548   4.809   3.798  18.154 -1.0629  0.0586 -0.6446
 5118TIP3    H139549   4.853   3.871  18.197 -0.0671 -0.5373 -0.6315
 5118TIP3    H239550   4.791   3.736  18.224  0.5206 -0.8936 -1.0485
 5119TIP3   OH239551   1.590   6.919  18.353 -0.4706  0.1709  0.0586
 5119TIP3    H139552   1.525   6.851  18.333 -0.3807  0.0327  0.2307
 5119TIP3    H239553   1.667   6.870  18.382  0.2904  0.2481 -1.7163
 5120TIP3   OH239554   5.925   3.590  16.420  0.1242 -0.4633  0.4093
 5120TIP3    H139555   5.848   3.628  16.461  0.6218  0.0602  0.8764
 5120TIP3    H239556   5.907   3.594  16.326  0.0132  0.6210  0.4646
 5121TIP3   OH239557   4.311   6.395  16.367 -0.3842  0.1243 -0.4094
 5121TIP3    H139558   4.302   6.485  16.398 -2.9307 -0.0476 -0.4230
 5121TIP3    H239559   4.391   6.395  16.315 -0.9681  2.6984 -1.4671
 5122TIP3   OH239560   4.293   2.366  17.231 -0.9048  0.2356 -0.1527
 5122TIP3    H139561   4.359   2.431  17.253 -0.9693  0.2770 -0.0840
 5122TIP3    H239562   4.343   2.295  17.190 -0.6872 -0.1688  0.7925
 5123TIP3   OH239563   1.252   3.699  17.144 -0.0672 -0.7021 -0.0632
 5123TIP3    H139564   1.173   3.733  17.101 -2.1095 -3.3082  1.2766
 5123TIP3    H239565   1.250   3.739  17.232  0.4908 -0.2836 -0.2366
 5124TIP3   OH239566   5.218   0.276  17.549  0.0850 -0.2040 -0.0241
 5124TIP3    H139567   5.273   0.232  17.615  0.0110  0.2054  0.3166
 5124TIP3    H239568   5.200   0.208  17.484  0.4355 -0.5258  0.2085
 5125TIP3   OH239569   1.464   0.286  17.680 -0.4932 -0.1439  0.5028
 5125TIP3    H139570   1.380   0.247  17.707 -0.7341 -1.8143 -2.2832
 5125TIP3    H239571   1.529   0.239  17.731 -1.1330 -0.2783  1.2177
 5126TIP3   OH239572   0.132   1.669  19.085 -0.7772  0.0812  0.2743
 5126TIP3    H139573   0.158   1.761  19.093  2.7279 -0.5960 -1.2955
 5126TIP3    H239574   0.191   1.622  19.144 -2.5266 -1.2049  1.0805
 5127TIP3   OH239575   3.444   5.552  16.399  0.4924  0.5923 -0.2261
 5127TIP3    H139576   3.357   5.587  16.421 -0.2578 -1.6835  0.7489
 5127TIP3    H239577   3.498   5.629  16.385 -0.9808  2.1598  2.0122
 5128TIP3   OH239578   2.170   6.499  18.255 -0.3652  0.4808  1.3358
 5128TIP3    H139579   2.127   6.481  18.171 -0.0771 -1.7765  1.6211
 5128TIP3    H239580   2.251   6.543  18.231  0.4603 -1.4942  0.2409
 5129TIP3   OH239581   5.170   6.772  16.851 -0.1681  0.2455  0.0383
 5129TIP3    H139582   5.131   6.692  16.887 -0.6947  0.3745 -0.2280
 5129TIP3    H239583   5.110   6.841  16.877 -1.0148  0.2440 -1.7506
 5130TIP3   OH239584   4.342   5.989  18.235 -0.1889  0.0724  0.1518
 5130TIP3    H139585   4.418   6.047  18.231 -0.8606  0.9102 -2.7865
 5130TIP3    H239586   4.339   5.948  18.149 -2.2058 -1.1242  0.7312
 5131TIP3   OH239587   5.876   2.984  18.419  0.5063  0.1546  0.2958
 5131TIP3    H139588   5.787   3.019  18.430  0.0888 -0.1087 -1.7166
 5131TIP3    H239589   5.877   2.904  18.471 -0.7298 -0.2717 -0.2919
 5132TIP3   OH239590   6.937   0.310  17.252  0.5114 -0.4692  0.5137
 5132TIP3    H139591   6.910   0.391  17.208 -2.7626 -1.6570  0.0110
 5132TIP3    H239592   6.927   0.329  17.345  1.0807  0.1044  0.4610
 5133TIP3   OH239593   3.324   0.650  16.346 -0.5119 -0.3935  0.4532
 5133TIP3    H139594   3.396   0.711  16.331  0.0322 -1.1277 -0.0288
 5133TIP3    H239595   3.294   0.626  16.258 -1.6732  0.2611  0.6524
 5134TIP3   OH239596   2.527   4.967  17.882  0.3703  0.3754  0.2134
 5134TIP3    H139597   2.447   4.998  17.839 -0.3669 -0.4592  0.9219
 5134TIP3    H239598   2.495   4.908  17.951  1.6440 -1.9839 -1.0760
 5135TIP3   OH239599   3.515   2.563  17.399 -0.3851 -0.2815  0.4156
 5135TIP3    H139600   3.538   2.518  17.481 -1.1001 -0.9534  0.2588
 5135TIP3    H239601   3.429   2.528  17.376 -0.1244 -0.2139 -0.7066
 5136TIP3   OH239602   0.450   3.325  17.376  0.3058  0.0280 -0.3923
 5136TIP3    H139603   0.472   3.248  17.429 -2.2607 -0.0139  0.7831
 5136TIP3    H239604   0.471   3.299  17.286  1.5980 -1.1759  0.2101
 5137TIP3   OH239605   6.405   3.137  17.539 -0.6579  0.1989  0.2910
 5137TIP3    H139606   6.488   3.126  17.492 -1.6358  1.6747 -1.8869
 5137TIP3    H239607   6.432   3.152  17.630  1.3080 -2.0344  0.1750
 5138TIP3   OH239608   6.093   0.457  17.805 -0.3612  0.6822 -0.2781
 5138TIP3    H139609   6.051   0.431  17.887 -0.5445 -1.0960 -0.8741
 5138TIP3    H239610   6.166   0.395  17.796  0.8621  2.1176 -0.5043
 5139TIP3   OH239611   3.352   1.829  18.222  0.0097 -0.0402  0.3272
 5139TIP3    H139612   3.371   1.765  18.291 -0.3210 -1.1044 -0.5418
 5139TIP3    H239613   3.346   1.777  18.142 -0.5000  1.0538 -0.3714
 5140TIP3   OH239614   0.396   7.245  17.958  0.0632  0.0456  0.0023
 5140TIP3    H139615   0.427   7.326  17.999 -1.0207  0.5264 -0.0710
 5140TIP3    H239616   0.445   7.176  18.002  1.5420  0.7667 -0.4383
 5141TIP3   OH239617   2.161   1.094  15.880 -0.0710  0.4533  0.2757
 5141TIP3    H139618   2.247   1.074  15.843 -0.0168 -0.0069  0.6371
 5141TIP3    H239619   2.099   1.079  15.809  0.1252  0.5516  0.0832
 5142TIP3   OH239620   1.441   6.937  18.676 -0.8953  0.2338 -0.2108
 5142TIP3    H139621   1.518   6.992  18.658 -0.9056  1.1811  2.1748
 5142TIP3    H239622   1.368   6.985  18.636 -0.8002  1.6783  1.2245
 5143TIP3   OH239623   0.379   0.216  17.096  0.1011 -0.3881 -0.8131
 5143TIP3    H139624   0.355   0.185  17.183  1.5728 -2.0057 -0.9419
 5143TIP3    H239625   0.372   0.139  17.040  2.9881 -0.3974 -1.3302
 5144TIP3   OH239626   1.032   4.667  18.793 -0.0097 -0.1515 -0.3353
 5144TIP3    H139627   1.062   4.758  18.801 -0.9856  0.0136  2.3707
 5144TIP3    H239628   0.945   4.675  18.753 -0.9884  0.3589  1.7756
 5145TIP3   OH239629   4.670   0.003  17.060 -0.0263 -0.1501 -0.2390
 5145TIP3    H139630   4.589   0.049  17.083 -0.0654 -0.3863  0.0956
 5145TIP3    H239631   4.659  -0.020  16.968 -0.4142 -0.3290 -0.1504
 5146TIP3   OH239632   7.232   2.081  17.426  0.6697 -0.0809  0.5308
 5146TIP3    H139633   7.209   2.105  17.516  0.9305  0.5533  0.4356
 5146TIP3    H239634   7.268   2.161  17.389  1.6708 -0.6639  0.2247
 5147TIP3   OH239635   1.341   6.386  18.121 -0.0419 -0.1755 -0.2371
 5147TIP3    H139636   1.254   6.349  18.138 -0.6701  1.0730 -0.6013
 5147TIP3    H239637   1.382   6.323  18.062 -0.1518 -1.4675  1.0200
 5148TIP3   OH239638   2.768   2.708  17.191 -0.3195  0.7123 -0.0195
 5148TIP3    H139639   2.802   2.759  17.118  0.2319  0.5717  0.1351
 5148TIP3    H239640   2.733   2.629  17.151 -2.7779  1.9335 -0.4614
 5149TIP3   OH239641   6.459   7.425  18.561  0.1151  0.2136 -0.1402
 5149TIP3    H139642   6.478   7.400  18.471 -3.0047 -0.3633 -0.7630
 5149TIP3    H239643   6.436   7.518  18.555 -0.3671  0.1057 -0.0142
 5150TIP3   OH239644   4.289   5.909  18.981  0.1687  0.8592 -0.0134
 5150TIP3    H139645   4.208   5.943  18.941  1.3789  1.4690 -2.0868
 5150TIP3    H239646   4.261   5.875  19.066 -2.3635  0.6038 -0.8561
 5151TIP3   OH239647   6.348   3.385  17.993 -0.1597  0.6689  0.0587
 5151TIP3    H139648   6.429   3.436  18.000 -0.6590  1.3735  0.9493
 5151TIP3    H239649   6.282   3.439  18.037 -1.1732  0.2158 -0.8495
 5152TIP3   OH239650   7.444   0.904  19.317  0.0848 -0.3866  0.1603
 5152TIP3    H139651   7.402   0.826  19.281 -1.1895  0.2482  0.2119
 5152TIP3    H239652   7.514   0.870  19.373  1.4410 -1.4279 -2.0300
 5153TIP3   OH239653   7.226   5.221  18.540 -0.0686 -1.0946 -0.1118
 5153TIP3    H139654   7.137   5.197  18.565 -0.2061 -0.2722  0.2207
 5153TIP3    H239655   7.217   5.304  18.494  0.6634 -0.0712  1.4685
 5154TIP3   OH239656   1.491   2.407  18.340  0.0703  0.3272 -0.2223
 5154TIP3    H139657   1.579   2.444  18.343  1.0561 -1.8950  0.1735
 5154TIP3    H239658   1.437   2.471  18.387  1.8251  0.8817  1.1677
 5155TIP3   OH239659   5.617   1.484  17.532  0.0594 -0.7369 -0.2122
 5155TIP3    H139660   5.546   1.449  17.479 -0.5458 -0.6161  0.5000
 5155TIP3    H239661   5.593   1.461  17.622  1.6013 -1.9029 -0.0532
 5156TIP3   OH239662   0.357   7.460  16.985  0.2743 -0.3505  0.9233
 5156TIP3    H139663   0.298   7.411  17.042  1.2069  0.8492  3.0652
 5156TIP3    H239664   0.444   7.446  17.023  0.8902  0.7740 -0.0137
 5157TIP3   OH239665   6.288   6.482  16.118  0.4871  0.1440 -1.1107
 5157TIP3    H139666   6.209   6.445  16.078  0.9376 -1.6812 -0.4076
 5157TIP3    H239667   6.264   6.498  16.209  0.6108  0.6225 -1.1585
 5158TIP3   OH239668   3.682   6.804  17.787 -0.2935 -0.4531 -0.0722
 5158TIP3    H139669   3.619   6.804  17.859 -0.6088  1.1007 -0.3208
 5158TIP3    H239670   3.700   6.711  17.772 -0.2568 -0.8347  1.9658
 5159TIP3   OH239671   1.572   3.259  16.486 -0.7531  0.2736 -0.4552
 5159TIP3    H139672   1.534   3.187  16.437  1.0014 -0.3631 -0.9535
 5159TIP3    H239673   1.537   3.338  16.443 -0.0300 -0.2724 -2.1482
 5160TIP3   OH239674   1.947   2.510  18.239  0.0593 -0.4397  0.2260
 5160TIP3    H139675   1.939   2.516  18.144 -1.9891  0.7810  0.4200
 5160TIP3    H239676   1.956   2.416  18.256 -0.5238 -0.7597 -1.1115
 5161TIP3   OH239677   3.916   4.670  16.759  0.0859 -0.2921  0.1773
 5161TIP3    H139678   3.964   4.648  16.839  0.0842 -0.4561  0.1334
 5161TIP3    H239679   3.932   4.597  16.700 -1.2836 -0.9950  0.6257
 5162TIP3   OH239680   0.191   5.125  18.844 -0.0620 -0.0540 -0.4061
 5162TIP3    H139681   0.244   5.183  18.790  0.4024  0.1708  0.2853
 5162TIP3    H239682   0.110   5.113  18.794  0.0796  0.7052 -0.8309
 5163TIP3   OH239683   4.719   6.150  18.775  0.0789 -1.0101  0.1325
 5163TIP3    H139684   4.798   6.135  18.826  1.3405 -0.6965 -1.6507
 5163TIP3    H239685   4.647   6.135  18.837  1.4996 -1.9385  1.6272
 5164TIP3   OH239686   7.231   5.659  16.544  0.6638  0.2166 -0.2347
 5164TIP3    H139687   7.169   5.587  16.545 -0.5733  1.2435 -0.5923
 5164TIP3    H239688   7.317   5.617  16.533  0.0031 -1.1933 -0.1655
 5165TIP3   OH239689   3.668   6.880  16.241 -0.1978  0.5831  0.3233
 5165TIP3    H139690   3.659   6.785  16.240  2.0456  0.3187 -0.4808
 5165TIP3    H239691   3.762   6.895  16.249 -0.2233  2.7024 -2.0696
 5166TIP3   OH239692   0.907   6.627  18.036 -0.0883 -0.1673  0.3439
 5166TIP3    H139693   0.942   6.569  17.969 -0.7139 -3.7010  2.7712
 5166TIP3    H239694   0.812   6.623  18.024 -0.2228 -1.0639  1.5005
 5167TIP3   OH239695   3.694   4.652  17.916 -0.6790  0.4799 -0.3624
 5167TIP3    H139696   3.605   4.622  17.934 -0.3691  0.4624  1.2558
 5167TIP3    H239697   3.740   4.645  17.999  0.8156  0.6282 -1.1326
 5168TIP3   OH239698   6.060   1.778  16.885  0.2802  0.2882 -0.4442
 5168TIP3    H139699   6.071   1.844  16.817 -0.3638  1.0646  0.1907
 5168TIP3    H239700   6.093   1.820  16.965  0.0628 -0.2245 -0.0802
 5169TIP3   OH239701   0.179   3.741  18.402  0.0871 -0.1189 -0.0811
 5169TIP3    H139702   0.230   3.661  18.404 -2.1248 -1.6315  2.2291
 5169TIP3    H239703   0.098   3.717  18.359 -0.5808  0.8748  0.5838
 5170TIP3   OH239704   3.565   5.050  18.271 -0.5729 -0.3684  0.3513
 5170TIP3    H139705   3.537   5.050  18.363 -1.4116  1.7958  0.1702
 5170TIP3    H239706   3.572   5.143  18.249  0.8610 -0.8465 -1.4257
 5171TIP3   OH239707   2.820   2.547  17.416 -0.2312 -0.1886 -0.3122
 5171TIP3    H139708   2.730   2.524  17.439 -0.3644 -0.6815 -1.2488
 5171TIP3    H239709   2.812   2.594  17.333  0.3438  0.2061 -0.1547
 5172TIP3   OH239710   2.640   6.043  18.157 -0.4039  0.5452 -0.5911
 5172TIP3    H139711   2.633   5.985  18.234  1.2456  1.4016  0.2567
 5172TIP3    H239712   2.564   6.021  18.104 -2.2018  0.6338  1.7781
 5173TIP3   OH239713   5.474   5.123  17.790  0.1141  0.3746 -0.0054
 5173TIP3    H139714   5.417   5.053  17.822 -2.6539  2.2670 -0.4829
 5173TIP3    H239715   5.544   5.128  17.855 -0.7356 -1.4304  1.1454
 5174TIP3   OH239716   0.073   1.100  19.096  0.4876  0.4643 -0.3554
 5174TIP3    H139717   0.010   1.163  19.061  0.1751  1.0721  1.2424
 5174TIP3    H239718   0.036   1.071  19.179  1.2757 -0.8330 -0.4193
 5175TIP3   OH239719   1.064   4.330  16.416 -0.0273 -0.3851 -0.5752
 5175TIP3    H139720   1.098   4.419  16.410  1.4262 -0.8955 -0.3007
 5175TIP3    H239721   1.008   4.330  16.494 -1.3289  0.6767 -1.4875
 5176TIP3   OH239722   4.145   1.921  18.140 -0.3489  0.5932 -0.5873
 5176TIP3    H139723   4.122   1.833  18.169 -1.0865  0.0798 -2.6009
 5176TIP3    H239724   4.223   1.943  18.192 -2.3162  0.3741  2.7881
 5177TIP3   OH239725   6.610   7.170  18.085  0.7066  0.5211 -0.4497
 5177TIP3    H139726   6.652   7.168  18.171  1.5801 -0.6270 -0.8711
 5177TIP3    H239727   6.523   7.205  18.102  1.3285  1.5892  0.6797
 5178TIP3   OH239728   1.025   6.455  17.278 -0.4516  0.6637  0.6235
 5178TIP3    H139729   1.071   6.420  17.354 -1.3429  0.6853  1.1960
 5178TIP3    H239730   1.082   6.525  17.245  0.6147 -0.2905  0.3928
 5179TIP3   OH239731   0.501   0.857  17.364  0.5318  0.3095 -0.4066
 5179TIP3    H139732   0.446   0.827  17.436  1.1327  1.2964  0.4967
 5179TIP3    H239733   0.486   0.952  17.360  2.0306  0.5912 -0.2196
 5180TIP3   OH239734   0.908   4.884  18.077 -0.0526 -0.1099  0.1326
 5180TIP3    H139735   0.906   4.798  18.035  1.0349 -0.7743  1.3634
 5180TIP3    H239736   0.886   4.866  18.169  2.5452  0.5311  0.9550
 5181TIP3   OH239737   6.959   1.078  18.682  0.0724  0.3705 -0.2237
 5181TIP3    H139738   6.944   1.159  18.633 -1.4260  0.4908  0.3757
 5181TIP3    H239739   7.036   1.095  18.735 -0.2885  1.4552 -0.0262
 5182TIP3   OH239740   4.580   2.015  17.970 -0.1017 -0.0474 -0.0117
 5182TIP3    H139741   4.645   1.954  18.003 -0.6818 -0.8815 -0.3617
 5182TIP3    H239742   4.592   2.095  18.022  0.4358 -0.5761  0.6892
 5183TIP3   OH239743   2.505   3.475  18.278 -0.4869 -0.2052  0.3216
 5183TIP3    H139744   2.541   3.428  18.353 -1.9887 -2.3426 -0.2110
 5183TIP3    H239745   2.410   3.470  18.289 -0.9341 -2.9620 -2.9406
 5184TIP3   OH239746   6.220   6.514  17.120 -0.3335  0.4257  0.3213
 5184TIP3    H139747   6.224   6.428  17.078 -0.8443 -0.2036  1.5315
 5184TIP3    H239748   6.299   6.517  17.174 -0.0412  0.9545 -0.1169
 5185TIP3   OH239749   2.278   5.723  18.055  0.1906 -0.5494  0.5245
 5185TIP3    H139750   2.211   5.657  18.038  0.3866 -0.2347 -1.7356
 5185TIP3    H239751   2.301   5.757  17.969  1.3722  1.2294  1.4814
 5186TIP3   OH239752   4.361   6.297  16.648 -0.2842 -0.4293  0.1226
 5186TIP3    H139753   4.425   6.343  16.594  1.0483 -2.3057  0.0094
 5186TIP3    H239754   4.276   6.332  16.619  0.5813  4.4063  2.3808
 5187TIP3   OH239755   2.844   3.330  17.895 -0.1223 -0.3392 -0.1975
 5187TIP3    H139756   2.914   3.379  17.851 -0.7915  0.8752  0.0485
 5187TIP3    H239757   2.796   3.288  17.824 -2.0816  2.7432 -0.9210
 5188TIP3   OH239758   7.375   4.476  16.309  0.1669  0.2325  0.5598
 5188TIP3    H139759   7.315   4.539  16.271  0.5380 -0.0007 -0.4329
 5188TIP3    H239760   7.460   4.496  16.270  0.5235 -0.1286  1.1269
 5189TIP3   OH239761   0.458   4.117  17.937 -0.2522  0.4370 -0.1849
 5189TIP3    H139762   0.393   4.048  17.925  0.4101 -0.1065 -0.7310
 5189TIP3    H239763   0.542   4.071  17.939  0.0034  0.8556  2.8298
 5190TIP3   OH239764   3.721   0.182  16.193 -0.3546 -0.2075  0.3235
 5190TIP3    H139765   3.670   0.243  16.245 -1.6994 -0.5860 -0.5189
 5190TIP3    H239766   3.657   0.135  16.140  0.6470 -2.1976  0.7677
 5191TIP3   OH239767   2.924   6.767  18.559  0.3662  0.0492 -0.2555
 5191TIP3    H139768   2.889   6.818  18.486 -0.4399  1.0563  0.7834
 5191TIP3    H239769   2.846   6.731  18.602  0.7752  0.0932  0.5424
 5192TIP3   OH239770   2.995   7.414  18.283  0.2096  0.2479  0.4603
 5192TIP3    H139771   2.986   7.415  18.378  0.8630 -3.0638  0.6698
 5192TIP3    H239772   3.083   7.383  18.267 -0.0733  0.2178 -1.2563
 5193TIP3   OH239773   0.475   1.291  18.588 -0.0476 -0.2659 -0.7093
 5193TIP3    H139774   0.386   1.268  18.558  0.1859 -0.0030 -1.6395
 5193TIP3    H239775   0.531   1.223  18.550  0.0713 -0.9113  0.5583
 5194TIP3   OH239776   3.041   3.040  16.490  0.3220 -0.6175 -0.1671
 5194TIP3    H139777   3.018   2.948  16.500  1.4754 -0.7970  1.2384
 5194TIP3    H239778   3.137   3.040  16.490  0.3422  0.5161 -1.0210
 5195TIP3   OH239779   1.419   2.489  16.498 -0.2703  0.3728 -0.0628
 5195TIP3    H139780   1.331   2.522  16.516  0.3250  1.3413  1.2075
 5195TIP3    H239781   1.464   2.563  16.457 -0.4627 -0.5966 -2.1463
 5196TIP3   OH239782   6.885   7.395  18.307  0.2879  0.0495  0.2227
 5196TIP3    H139783   6.965   7.349  18.285  1.1569  0.2532  2.6853
 5196TIP3    H239784   6.822   7.326  18.326  0.5512 -0.1168  0.4915
 5197TIP3   OH239785   2.197   7.171  17.031 -0.4249 -0.1233 -0.8729
 5197TIP3    H139786   2.207   7.077  17.049  1.0900  0.1900  0.0501
 5197TIP3    H239787   2.105   7.180  17.006 -0.9156 -1.6527  0.2105
 5198TIP3   OH239788   6.094   4.569  18.328  0.3199 -0.1713  0.1739
 5198TIP3    H139789   6.090   4.495  18.267  1.8699  0.8911 -1.2867
 5198TIP3    H239790   6.067   4.645  18.275  1.2976  0.7095  0.9081
 5199TIP3   OH239791   6.977   5.719  18.541  0.4732  0.6685  0.0591
 5199TIP3    H139792   6.934   5.728  18.456  0.7278 -1.1588 -0.2929
 5199TIP3    H239793   6.904   5.704  18.602  0.3029  1.8264  0.1632
 5200TIP3   OH239794   3.116   4.640  16.554  0.3700  0.0177  0.3696
 5200TIP3    H139795   3.089   4.564  16.502  1.8228 -0.2124 -0.0857
 5200TIP3    H239796   3.190   4.609  16.606  0.0693  0.7419  1.2623
 5201TIP3   OH239797   7.284   6.124  16.401  0.3306 -0.1027  0.3766
 5201TIP3    H139798   7.267   6.069  16.478 -0.5914  0.2167  0.4109
 5201TIP3    H239799   7.255   6.071  16.327  0.1380  0.0485  0.3453
 5202TIP3   OH239800   3.356   7.150  16.683  0.0627  0.0803 -0.3932
 5202TIP3    H139801   3.314   7.227  16.646 -2.5335 -1.3552 -0.6285
 5202TIP3    H239802   3.285   7.101  16.724  1.4703 -2.5780 -0.9131
 5203TIP3   OH239803   0.714   6.202  17.432 -0.1992 -0.3355 -0.4131
 5203TIP3    H139804   0.779   6.241  17.373 -1.7652  2.6914 -0.3378
 5203TIP3    H239805   0.764   6.181  17.511  0.8604  1.2022 -0.6251
 5204TIP3   OH239806   6.498   0.398  17.565  0.5382 -0.1655 -0.4370
 5204TIP3    H139807   6.575   0.382  17.620 -0.1385 -1.3113  0.2203
 5204TIP3    H239808   6.490   0.493  17.561  2.2156 -0.0149 -0.8563
 5205TIP3   OH239809   0.544   3.470  19.142 -0.6279  0.3247 -0.3845
 5205TIP3    H139810   0.516   3.443  19.229  1.1007  0.7990  0.3661
 5205TIP3    H239811   0.536   3.392  19.088 -0.0844 -0.4550  0.6389
 5206TIP3   OH239812   6.731   0.823  16.374  0.0676  0.4483 -0.1987
 5206TIP3    H139813   6.684   0.742  16.354  1.9376 -0.7393 -0.0082
 5206TIP3    H239814   6.700   0.885  16.309  0.1202 -1.0379 -1.7183
 5207TIP3   OH239815   0.932   2.414  18.705 -0.1929 -0.6808  0.3419
 5207TIP3    H139816   0.841   2.428  18.679 -0.0648 -0.8810 -0.2397
 5207TIP3    H239817   0.977   2.393  18.623 -0.1314 -3.1601  0.9282
 5208TIP3   OH239818   1.925   2.795  18.232  0.0971 -0.1265  0.1196
 5208TIP3    H139819   1.838   2.825  18.258  0.5585  0.4868  0.9871
 5208TIP3    H239820   1.916   2.700  18.222 -0.0222 -0.5078  3.0015
 5209TIP3   OH239821   5.474   7.141  17.972 -0.2619 -0.0723  0.3582
 5209TIP3    H139822   5.495   7.091  18.051  1.0652 -0.6406 -0.3120
 5209TIP3    H239823   5.504   7.085  17.900  1.7521  1.8684 -0.4228
 5210TIP3   OH239824   6.947   4.766  17.178 -0.3012 -0.2615  0.3087
 5210TIP3    H139825   6.863   4.738  17.215 -0.9341  0.5729 -0.4565
 5210TIP3    H239826   6.955   4.716  17.097 -0.2509 -0.0482  0.1834
 5211TIP3   OH239827   2.475   5.228  17.583  0.0308 -0.4555  0.2858
 5211TIP3    H139828   2.448   5.136  17.588 -2.5197  0.2573  1.6519
 5211TIP3    H239829   2.467   5.249  17.490  0.6674 -1.6063 -0.0523
 5212TIP3   OH239830   7.280   0.438  17.052  0.1074  0.1338  0.0334
 5212TIP3    H139831   7.349   0.394  17.003  0.8058  0.7841  0.4024
 5212TIP3    H239832   7.201   0.424  17.001  0.4578 -0.8885 -0.2416
 5213TIP3   OH239833   2.558   2.112  18.747  0.0255  0.0849  0.2530
 5213TIP3    H139834   2.502   2.189  18.763  1.5356  1.7012 -1.7474
 5213TIP3    H239835   2.537   2.085  18.658  0.1702 -1.2943  0.6160
 5214TIP3   OH239836   1.324   0.966  18.773 -0.0398  0.2859 -0.5328
 5214TIP3    H139837   1.246   0.978  18.826  0.0937 -0.0918 -0.2472
 5214TIP3    H239838   1.341   1.052  18.735 -2.3722 -0.2589 -3.1034
 5215TIP3   OH239839   4.894   4.900  18.040  0.0733 -0.3338 -0.0329
 5215TIP3    H139840   4.955   4.826  18.033  1.2445  0.6416 -0.5530
 5215TIP3    H239841   4.813   4.869  17.999  0.7869 -1.0959 -0.9005
 5216TIP3   OH239842   4.677   5.604  16.206 -0.1702  0.2728 -0.5046
 5216TIP3    H139843   4.635   5.590  16.291 -0.7895  0.7781 -0.7253
 5216TIP3    H239844   4.605   5.624  16.147  0.4357  1.7763 -0.7624
 5217TIP3   OH239845   5.888   2.751  18.576  0.0617  0.0572  0.1028
 5217TIP3    H139846   5.819   2.685  18.580 -0.6206  0.8045  1.8115
 5217TIP3    H239847   5.925   2.752  18.664 -0.2170  2.1790  0.2489
 5218TIP3   OH239848   7.000   3.017  17.067 -0.5851  0.4320  0.6703
 5218TIP3    H139849   6.930   3.082  17.055 -1.6129 -0.2034  2.8227
 5218TIP3    H239850   6.954   2.938  17.094  0.9512 -0.1271  1.7170
 5219TIP3   OH239851   5.965   0.783  19.000  0.2420  0.0835  0.6210
 5219TIP3    H139852   5.988   0.863  19.048  0.0143  0.2099  0.5265
 5219TIP3    H239853   5.871   0.773  19.016  0.5007 -0.8554  1.6451
 5220TIP3   OH239854   6.446   0.893  18.224  0.0426  0.1651 -0.1999
 5220TIP3    H139855   6.503   0.967  18.245  0.1188  0.2615 -0.7288
 5220TIP3    H239856   6.466   0.827  18.290  0.1925  0.5022  0.0924
 5221TIP3   OH239857   2.534   6.721  17.076  0.4558  0.0056 -0.0091
 5221TIP3    H139858   2.563   6.801  17.120  2.3050 -0.4391 -0.3070
 5221TIP3    H239859   2.611   6.693  17.026 -0.2707 -1.7403 -0.2124
 5222TIP3   OH239860   0.622   1.049  17.043  0.0205 -0.5417  0.1974
 5222TIP3    H139861   0.681   1.113  17.084 -0.4747  0.3476 -0.4404
 5222TIP3    H239862   0.659   0.964  17.066  0.2162 -0.0600  1.7995
 5223TIP3   OH239863   3.986   1.203  16.506 -0.7917 -0.1334  0.5681
 5223TIP3    H139864   4.042   1.211  16.430  0.0599 -0.5724  1.1321
 5223TIP3    H239865   3.977   1.292  16.539 -2.4152  0.2959 -0.8812
 5224TIP3   OH239866   3.695   0.722  17.164  0.5967  0.2857  0.2357
 5224TIP3    H139867   3.678   0.657  17.232  1.0125  0.5486  0.5988
 5224TIP3    H239868   3.608   0.757  17.142  0.2013 -1.3461 -0.9500
 5225TIP3   OH239869   6.618   3.028  18.102  0.4752  0.2619  0.0011
 5225TIP3    H139870   6.575   3.113  18.104 -1.2926 -0.5855  1.4334
 5225TIP3    H239871   6.654   3.018  18.190  0.7560 -0.4126 -0.1853
 5226TIP3   OH239872   5.001   4.434  16.517  0.1436  0.8934 -0.1143
 5226TIP3    H139873   5.006   4.529  16.526 -0.0236  1.1021 -1.8850
 5226TIP3    H239874   5.051   4.415  16.437  0.2778 -0.5229  0.2776
 5227TIP3   OH239875   2.896   3.790  18.755 -0.2984 -0.6968  0.5355
 5227TIP3    H139876   2.854   3.832  18.830 -2.0965 -0.4158 -0.5499
 5227TIP3    H239877   2.954   3.857  18.719 -3.4636  1.2366 -1.4373
 5228TIP3   OH239878   5.600   5.983  17.091 -0.1989  0.3026  0.1347
 5228TIP3    H139879   5.648   6.065  17.087  0.3609 -0.0241  0.0397
 5228TIP3    H239880   5.645   5.931  17.158 -1.2577  0.5086  1.0272
 5229TIP3   OH239881   3.389   7.422  18.724 -0.3114  0.4057 -0.3247
 5229TIP3    H139882   3.436   7.478  18.663 -0.0985  0.1056 -0.4376
 5229TIP3    H239883   3.300   7.417  18.688  0.0322 -0.4755 -1.0975
 5230TIP3   OH239884   5.938   7.134  17.606 -0.1489 -0.5965  0.3119
 5230TIP3    H139885   6.032   7.141  17.589 -0.0010 -1.0209  0.9121
 5230TIP3    H239886   5.932   7.124  17.701 -0.7414 -1.4960  0.1888
 5231TIP3   OH239887   6.538   4.710  17.455  0.4685 -0.5738  0.5064
 5231TIP3    H139888   6.612   4.659  17.488  0.2394 -0.8290  0.6342
 5231TIP3    H239889   6.462   4.673  17.499  0.4837  1.0713  2.0044
 5232TIP3   OH239890   2.548   5.751  18.095  0.2440  0.6410 -0.2190
 5232TIP3    H139891   2.457   5.731  18.074  0.4153  1.0912 -1.4607
 5232TIP3    H239892   2.570   5.826  18.040  1.6726 -0.0890 -0.6935
 5233TIP3   OH239893   4.824   1.869  17.682 -0.0123  0.1648  0.9204
 5233TIP3    H139894   4.893   1.803  17.693 -1.5111 -1.6662 -0.0925
 5233TIP3    H239895   4.810   1.903  17.771  1.5399 -0.0483  1.2918
 5234TIP3   OH239896   4.588   4.207  16.274  0.3405  0.0986 -0.0325
 5234TIP3    H139897   4.606   4.124  16.230  1.1362  0.7705 -1.0296
 5234TIP3    H239898   4.569   4.268  16.203 -0.0806  0.8117  0.6781
 5235TIP3   OH239899   1.360   2.909  16.757 -0.2251 -0.5677  0.3055
 5235TIP3    H139900   1.442   2.895  16.709  0.2147  1.3143  0.3962
 5235TIP3    H239901   1.292   2.904  16.689  0.1986  0.0849 -0.1816
 5236TIP3   OH239902   6.777   6.363  16.961  0.2965 -0.2652  0.2478
 5236TIP3    H139903   6.849   6.416  16.928 -0.7362 -0.3577 -2.3314
 5236TIP3    H239904   6.721   6.425  17.007  0.7229  0.2560  0.0746
 5237TIP3   OH239905   1.188   3.156  18.851  0.4049 -0.1997  0.5276
 5237TIP3    H139906   1.156   3.066  18.859 -1.8626  0.5180  0.2945
 5237TIP3    H239907   1.275   3.155  18.890  0.5976 -2.5747  0.1528
 5238TIP3   OH239908   6.195   3.244  18.393 -0.5100  0.3370  0.6504
 5238TIP3    H139909   6.195   3.156  18.355 -0.4466 -0.6848  2.8679
 5238TIP3    H239910   6.110   3.281  18.369 -1.3265 -1.0720  1.2414
 5239TIP3   OH239911   1.286   2.104  18.816 -0.2559 -0.4253 -0.4235
 5239TIP3    H139912   1.236   2.112  18.897 -0.5112 -0.6382 -0.5569
 5239TIP3    H239913   1.231   2.049  18.759 -0.1624 -0.1284 -0.8058
 5240TIP3   OH239914   5.532   6.565  17.534 -0.0387 -0.3857 -0.3184
 5240TIP3    H139915   5.467   6.634  17.520 -0.2118  0.0704  2.2501
 5240TIP3    H239916   5.616   6.609  17.523 -0.1588  0.0918  0.5666
 5241TIP3   OH239917   6.458   2.137  17.329 -0.1312  0.1676 -0.3485
 5241TIP3    H139918   6.424   2.226  17.319 -0.8832  0.1439  1.6242
 5241TIP3    H239919   6.381   2.083  17.346  0.5111 -0.4949  0.5592
 5242TIP3   OH239920   6.231   3.872  18.033 -0.8015  0.0833  0.4848
 5242TIP3    H139921   6.245   3.956  17.988  1.3092 -0.4236  0.0618
 5242TIP3    H239922   6.207   3.811  17.963 -0.6237 -0.0311  0.5228
 5243TIP3   OH239923   4.214   2.781  17.450  0.4645 -0.8610  0.1164
 5243TIP3    H139924   4.198   2.763  17.358 -0.0981  0.5220 -0.0891
 5243TIP3    H239925   4.306   2.809  17.454  0.3646 -0.5038 -0.0984
 5244TIP3   OH239926   6.960   5.187  16.960  0.2958  0.0979 -0.0146
 5244TIP3    H139927   6.972   5.139  17.042  2.1319 -0.8290 -0.7696
 5244TIP3    H239928   6.965   5.280  16.986  0.8570 -0.1760  0.9319
 5245TIP3   OH239929   6.276   0.381  16.107  0.6053 -0.0333  0.0360
 5245TIP3    H139930   6.212   0.310  16.102 -1.2006  1.5199 -0.3267
 5245TIP3    H239931   6.281   0.403  16.200  1.9693 -1.2710  0.2866
 5246TIP3   OH239932   4.367   2.617  18.726 -0.3989 -0.4411  0.0377
 5246TIP3    H139933   4.451   2.636  18.684 -1.2599  2.4885 -0.5385
 5246TIP3    H239934   4.328   2.548  18.672  0.8374 -0.5624 -0.7337
 5247TIP3   OH239935   1.255   4.834  18.415 -0.1438 -0.1998  0.3848
 5247TIP3    H139936   1.222   4.755  18.459  0.3218 -1.2495 -1.0652
 5247TIP3    H239937   1.319   4.801  18.351  1.1019  1.4905  0.6966
 5248TIP3   OH239938   3.727   3.162  18.036  0.3308 -0.5749  0.2305
 5248TIP3    H139939   3.725   3.092  17.971  1.8322  1.5629 -2.3063
 5248TIP3    H239940   3.644   3.208  18.024 -0.1985 -1.2394  1.1788
 5249TIP3   OH239941   3.177   0.953  18.394 -0.2083  0.3968 -0.0381
 5249TIP3    H139942   3.138   0.955  18.307  2.3046 -0.7315 -1.2747
 5249TIP3    H239943   3.193   0.860  18.411 -0.2538  0.6386  1.4749
 5250TIP3   OH239944   1.679   1.110  16.800  0.1697 -0.1026 -0.4431
 5250TIP3    H139945   1.640   1.031  16.764 -0.1698 -0.4758  0.6848
 5250TIP3    H239946   1.612   1.177  16.790 -0.3413 -0.4581  0.4082
 5251TIP3   OH239947   6.123   4.178  17.184  0.1831 -0.3647 -0.1679
 5251TIP3    H139948   6.182   4.148  17.253  0.7369  0.3464 -0.3201
 5251TIP3    H239949   6.080   4.255  17.221  0.1836 -0.2164 -0.4756
 5252TIP3   OH239950   5.224   7.160  17.835  0.0910 -0.7074  0.2075
 5252TIP3    H139951   5.311   7.178  17.871  1.0040 -1.5254 -1.4611
 5252TIP3    H239952   5.241   7.122  17.748 -1.9355 -0.9155 -0.1546
 5253TIP3   OH239953   0.582   1.348  19.115 -0.4981  0.1941  0.0158
 5253TIP3    H139954   0.580   1.306  19.029 -0.8843  1.5394 -0.6666
 5253TIP3    H239955   0.673   1.341  19.143  0.0697  1.4031 -1.3907
 5254TIP3   OH239956   5.413   5.399  17.114  0.0335  0.1102  0.4715
 5254TIP3    H139957   5.427   5.421  17.207  0.1079 -0.0176  0.4902
 5254TIP3    H239958   5.501   5.394  17.077  0.0030  0.1700  0.3903
 5255TIP3   OH239959   6.076   2.067  18.213  0.1112 -0.3008  0.0774
 5255TIP3    H139960   5.991   2.034  18.243  0.4680 -0.1391  1.3458
 5255TIP3    H239961   6.119   2.098  18.293  0.7108  1.1273 -0.7567
 5256TIP3   OH239962   2.712   2.296  18.210  0.5432  0.5819 -0.2375
 5256TIP3    H139963   2.763   2.373  18.236  1.4457  0.3112 -1.1234
 5256TIP3    H239964   2.626   2.309  18.251  1.2796  1.0981  1.2146
 5257TIP3   OH239965   3.705   6.790  17.299 -0.1733 -0.1942  0.2493
 5257TIP3    H139966   3.641   6.795  17.370  0.3409  1.2949  0.6502
 5257TIP3    H239967   3.661   6.832  17.225 -1.6046 -3.7233 -1.1375
 5258TIP3   OH239968   0.171   0.869  17.965  0.5438 -0.0153  0.3451
 5258TIP3    H139969   0.143   0.786  17.928  0.2482  0.2508 -0.0367
 5258TIP3    H239970   0.117   0.935  17.921  2.3553  0.6083 -1.0877
 5259TIP3   OH239971   5.697   3.326  16.118  0.0406  0.8630 -0.2162
 5259TIP3    H139972   5.635   3.257  16.141  1.8477 -0.2334  1.8082
 5259TIP3    H239973   5.643   3.404  16.108 -1.7434 -0.1639  0.8110
 5260TIP3   OH239974   4.310   5.140  17.142  0.5811 -0.0662  0.1916
 5260TIP3    H139975   4.257   5.077  17.093 -1.8264  1.5971  0.4221
 5260TIP3    H239976   4.367   5.179  17.076 -1.2148  0.7344 -0.9931
 5261TIP3   OH239977   1.062   2.027  18.605  0.2856  0.0940  0.0050
 5261TIP3    H139978   0.999   2.075  18.659  1.3966  0.1297  1.3320
 5261TIP3    H239979   1.018   1.944  18.585 -0.3729  0.3174  0.4906
 5262TIP3   OH239980   5.568   1.983  18.521  0.2281 -0.0766 -0.1235
 5262TIP3    H139981   5.620   2.059  18.495  1.5564 -0.6868  0.6741
 5262TIP3    H239982   5.484   1.996  18.477  0.3210  1.9849  0.1966
 5263TIP3   OH239983   4.171   0.548  15.894 -0.1137 -0.5198 -0.3265
 5263TIP3    H139984   4.233   0.574  15.963 -0.5846 -0.2866  0.0086
 5263TIP3    H239985   4.134   0.466  15.925 -0.9809  0.0260  0.1339
 5264TIP3   OH239986   2.068   5.149  18.279 -0.4669 -0.0296 -0.2040
 5264TIP3    H139987   2.063   5.059  18.310 -0.2130  0.2334  0.6204
 5264TIP3    H239988   2.129   5.147  18.206  0.8074 -0.2619  0.8361
 5265TIP3   OH239989   5.959   1.669  17.115 -0.0534  0.0155  0.1913
 5265TIP3    H139990   5.864   1.665  17.126  0.0880  0.4048  1.8394
 5265TIP3    H239991   5.972   1.694  17.023 -1.5233 -0.3737 -0.1420
 5266TIP3   OH239992   5.596   7.454  16.684  0.4385  1.0726 -0.1170
 5266TIP3    H139993   5.657   7.406  16.628  1.7204  3.4268 -0.8962
 5266TIP3    H239994   5.602   7.411  16.769  0.7932 -0.6631 -0.9648
 5267TIP3   OH239995   2.351   2.033  16.143 -0.6980 -0.5133 -0.0832
 5267TIP3    H139996   2.361   1.948  16.100  0.7199 -0.9528  1.0219
 5267TIP3    H239997   2.422   2.086  16.106 -0.0759 -0.5959  0.9506
 5268TIP3   OH239998   1.910   2.595  17.979 -0.5038 -0.4323 -0.1432
 5268TIP3    H139999   1.940   2.544  17.903  0.0289  0.8729 -0.8428
 5268TIP3    H240000   1.952   2.680  17.968  0.2462 -0.4646  2.0821
 5269TIP3   OH240001   5.866   6.467  18.194 -0.2131  0.4582 -0.3379
 5269TIP3    H140002   5.813   6.489  18.270  0.2414 -0.0974  0.1454
 5269TIP3    H240003   5.944   6.522  18.202  1.0004 -1.3258  0.9551
 5270TIP3   OH240004   3.988   5.815  17.241 -0.7416 -0.3286  0.7019
 5270TIP3    H140005   4.021   5.829  17.152  0.3220  0.2620  1.1645
 5270TIP3    H240006   4.063   5.834  17.297 -1.4887 -0.3776  1.7430
 5271TIP3   OH240007   1.701   4.604  16.675 -0.0610 -0.5089 -0.6800
 5271TIP3    H140008   1.777   4.564  16.634 -1.2366 -2.2692 -1.2391
 5271TIP3    H240009   1.627   4.577  16.621 -1.7717 -3.3801  2.7029
 5272TIP3   OH240010   0.795   1.230  18.716 -0.6261 -0.3138  0.2839
 5272TIP3    H140011   0.815   1.304  18.659  2.9021 -1.8783 -0.8360
 5272TIP3    H240012   0.765   1.161  18.657 -1.0290 -0.6694  0.8948
 5273TIP3   OH240013   3.465   1.219  15.887 -0.1938  0.4550 -0.0452
 5273TIP3    H140014   3.547   1.251  15.849 -0.8060  2.4854  0.2404
 5273TIP3    H240015   3.477   1.226  15.981 -0.5151  0.2358  0.0142
 5274TIP3   OH240016   7.417   3.077  18.435  0.0858 -0.2004  0.1855
 5274TIP3    H140017   7.394   3.046  18.522  1.9766 -1.1608  0.3984
 5274TIP3    H240018   7.455   3.001  18.392  1.9775  1.0087 -0.3942
 5275TIP3   OH240019   6.709   7.412  17.077  0.4960 -0.5112  0.1095
 5275TIP3    H140020   6.763   7.427  16.999  0.4733 -0.4631  0.1025
 5275TIP3    H240021   6.703   7.317  17.084  2.1516 -0.5811  1.1841
 5276TIP3   OH240022   2.992   4.463  15.843 -0.9331  0.2865 -0.3678
 5276TIP3    H140023   3.036   4.463  15.928 -0.7253  2.0727 -0.4439
 5276TIP3    H240024   2.950   4.377  15.838 -1.2473  0.2695  1.6866
 5277TIP3   OH240025   7.112   3.323  17.125 -0.3086  0.3079 -0.3521
 5277TIP3    H140026   7.100   3.312  17.219  1.4392  1.9446  0.1224
 5277TIP3    H240027   7.026   3.307  17.087 -0.9032 -1.0476  1.4299
 5278TIP3   OH240028   0.518   5.749  16.643 -0.0267 -0.1404  0.7113
 5278TIP3    H140029   0.606   5.762  16.607 -0.4468 -0.2658 -0.3943
 5278TIP3    H240030   0.462   5.807  16.591 -0.7635 -0.8521  0.6837
 5279TIP3   OH240031   1.326   4.422  18.043  0.3444  0.2098 -0.1071
 5279TIP3    H140032   1.400   4.405  18.102  0.8477 -1.6842 -1.2020
 5279TIP3    H240033   1.360   4.485  17.980  1.4036 -1.3124 -1.1439
 5280TIP3   OH240034   0.216   6.129  17.189  0.1590 -0.0260  0.1033
 5280TIP3    H140035   0.312   6.124  17.187  0.1496 -0.5334  0.6721
 5280TIP3    H240036   0.189   6.085  17.108  0.3585 -1.6894  0.9101
 5281TIP3   OH240037   0.572   6.777  18.262  0.0612 -0.2334 -0.0556
 5281TIP3    H140038   0.590   6.807  18.173  1.4537 -0.4668  0.1099
 5281TIP3    H240039   0.659   6.769  18.302 -0.5608  0.4243  1.5154
 5282TIP3   OH240040   0.261   5.705  16.681 -0.3434  0.1074 -0.7432
 5282TIP3    H140041   0.355   5.697  16.668 -0.0028  0.6421  1.0517
 5282TIP3    H240042   0.242   5.797  16.661 -0.3603  0.1608 -0.4874
 5283TIP3   OH240043   2.454   1.783  17.832 -0.5998  0.6410 -0.0688
 5283TIP3    H140044   2.478   1.691  17.820  2.2252  1.3260 -0.4705
 5283TIP3    H240045   2.402   1.805  17.755  1.7764  0.2361 -1.8997
 5284TIP3   OH240046   1.220   4.832  17.922  0.5228 -0.2830  0.1637
 5284TIP3    H140047   1.245   4.900  17.986  0.2674  0.8573 -0.9123
 5284TIP3    H240048   1.125   4.839  17.916  0.6572  0.5708 -1.3391
 5285TIP3   OH240049   3.624   1.683  17.989 -0.6560  0.0525 -0.6434
 5285TIP3    H140050   3.707   1.729  17.995  0.2258 -1.6217  1.2407
 5285TIP3    H240051   3.625   1.644  17.901  0.4016  0.3429 -0.7787
 5286TIP3   OH240052   1.969   0.565  18.550 -0.0044 -0.0554  0.4077
 5286TIP3    H140053   1.899   0.579  18.613 -0.3565  2.2540 -0.4037
 5286TIP3    H240054   2.043   0.614  18.585  0.2300  0.0856 -0.2642
 5287TIP3   OH240055   5.866   4.176  18.300 -0.1365 -0.1544  0.0891
 5287TIP3    H140056   5.811   4.098  18.312  0.3276 -0.5691 -0.4195
 5287TIP3    H240057   5.840   4.234  18.371 -1.4779 -0.1879 -0.3431
 5288TIP3   OH240058   1.675   3.441  16.894 -0.3349 -0.1051  0.4573
 5288TIP3    H140059   1.721   3.491  16.827  0.3451 -0.8085  0.3798
 5288TIP3    H240060   1.670   3.501  16.969 -0.5979  0.4865 -0.0211
 5289TIP3   OH240061   4.147   4.994  15.763 -0.8824  0.2194 -0.6235
 5289TIP3    H140062   4.193   4.914  15.736  0.5740  1.1990 -1.1802
 5289TIP3    H240063   4.060   4.986  15.723 -1.0398 -1.4170 -0.0425
 5290TIP3   OH240064   0.829   6.097  16.828  0.0283 -0.7441  0.7694
 5290TIP3    H140065   0.830   6.053  16.913 -0.0616 -2.1839  0.0437
 5290TIP3    H240066   0.921   6.110  16.807  0.0557  1.0562  1.7711
 5291TIP3   OH240067   7.441   1.144  18.112 -0.3406 -0.3972 -0.5098
 5291TIP3    H140068   7.442   1.110  18.023 -0.5776 -0.5336 -0.4584
 5291TIP3    H240069   7.516   1.203  18.116 -0.7944  0.2353 -1.0437
 5292TIP3   OH240070   7.108   1.691  17.997  0.0480  0.5988 -0.0916
 5292TIP3    H140071   7.063   1.764  18.039  1.0611  1.0919  0.1848
 5292TIP3    H240072   7.098   1.618  18.057  0.1975  0.8873  0.2861
 5293TIP3   OH240073   4.257   3.971  18.484 -0.2141 -0.2813  0.1416
 5293TIP3    H140074   4.351   3.970  18.467 -0.4642 -0.1022 -1.3428
 5293TIP3    H240075   4.250   3.996  18.576  1.2130 -1.1751  0.5283
 5294TIP3   OH240076   4.943   5.564  18.178 -0.8235  0.0630  0.0685
 5294TIP3    H140077   4.869   5.584  18.235 -1.2208 -1.9105  0.3256
 5294TIP3    H240078   4.934   5.623  18.104 -2.9377 -0.4299 -0.1218
 5295TIP3   OH240079   4.693   5.812  16.620  0.0098  0.1418 -0.2921
 5295TIP3    H140080   4.634   5.738  16.629  0.5338 -0.2896 -0.3734
 5295TIP3    H240081   4.637   5.889  16.634 -0.1569 -0.3171  1.7959
 5296TIP3   OH240082   7.176   7.460  18.350 -0.4769 -0.0112 -0.3002
 5296TIP3    H140083   7.108   7.526  18.358 -0.3469 -0.0284  1.2954
 5296TIP3    H240084   7.258   7.511  18.349 -0.4134 -0.1001  0.1590
 5297TIP3   OH240085   7.325   3.261  18.849 -0.0023 -0.5930  0.2384
 5297TIP3    H140086   7.259   3.213  18.899  0.4105 -1.2164  0.1929
 5297TIP3    H240087   7.383   3.299  18.915 -0.3821 -0.0746  0.2766
 5298TIP3   OH240088   4.140   2.225  15.950 -0.0890 -0.4538  0.0917
 5298TIP3    H140089   4.186   2.256  16.028  1.1140 -0.8870 -0.4229
 5298TIP3    H240090   4.198   2.159  15.913 -0.7544 -0.4228 -1.0450
 5299TIP3   OH240091   1.029   7.042  17.185  0.0315  0.2487 -0.7018
 5299TIP3    H140092   1.009   6.953  17.212  2.5362 -0.3684 -0.5799
 5299TIP3    H240093   0.996   7.048  17.095  0.3704 -1.0444 -0.9356
 5300TIP3   OH240094   1.340   6.560  16.456 -0.4496  0.2451 -0.2940
 5300TIP3    H140095   1.361   6.649  16.426  1.0466  0.3887  1.0255
 5300TIP3    H240096   1.314   6.572  16.547 -0.1879 -0.6721 -0.0939
 5301TIP3   OH240097   0.563   3.129  17.536  0.0573 -0.3453  0.5903
 5301TIP3    H140098   0.623   3.117  17.610  0.5984 -1.6324 -0.0247
 5301TIP3    H240099   0.537   3.040  17.512 -0.8998  0.1114 -0.1429
 5302TIP3   OH240100   5.233   0.955  18.524 -0.1887  0.1663  0.3101
 5302TIP3    H140101   5.227   0.989  18.435  1.5978 -1.0814 -0.3547
 5302TIP3    H240102   5.146   0.967  18.561 -0.9707  0.6898 -1.6098
 5303TIP3   OH240103   3.384   0.201  17.374  0.7550  0.0222 -0.9045
 5303TIP3    H140104   3.292   0.181  17.390  1.0351 -1.2302 -0.7693
 5303TIP3    H240105   3.418   0.230  17.458  0.3986  0.8496 -1.0430
 5304TIP3   OH240106   2.700   4.991  18.284 -0.5978  0.0476  0.4033
 5304TIP3    H140107   2.786   5.031  18.273 -0.4175 -0.6356 -0.9300
 5304TIP3    H240108   2.640   5.065  18.295 -0.0566  0.6177 -0.3694
 5305TIP3   OH240109   5.530   1.003  18.586 -0.5721  0.2234  0.2280
 5305TIP3    H140110   5.439   0.973  18.580 -0.1705 -0.6638 -2.4729
 5305TIP3    H240111   5.525   1.083  18.639 -2.9363  0.3145 -0.0205
 5306TIP3   OH240112   6.328   0.371  16.373 -0.6224 -0.1121 -0.0814
 5306TIP3    H140113   6.296   0.372  16.463 -0.1735 -2.2728  0.1568
 5306TIP3    H240114   6.380   0.291  16.367 -0.3461  0.1753 -2.1582
 5307TIP3   OH240115   3.435   5.646  17.615  0.5127  0.3291 -0.5533
 5307TIP3    H140116   3.341   5.633  17.601  0.5239 -1.7471  0.7637
 5307TIP3    H240117   3.467   5.685  17.534 -1.4479  0.9291 -1.0885
 5308TIP3   OH240118   3.049   7.145  17.582  0.3246 -0.6651 -0.0311
 5308TIP3    H140119   3.101   7.226  17.590  0.7090 -0.8402 -0.6879
 5308TIP3    H240120   2.968   7.173  17.540  0.2899 -0.5566  0.1046
 5309TIP3   OH240121   0.287   6.381  16.652 -0.3939  0.5889 -0.0122
 5309TIP3    H140122   0.379   6.405  16.641 -0.4035 -0.0051 -1.6619
 5309TIP3    H240123   0.284   6.337  16.736  0.6226  1.5724  0.5723
 5310TIP3   OH240124   5.143   1.553  16.367  0.1557 -0.4575 -0.3496
 5310TIP3    H140125   5.203   1.587  16.301 -1.3066  1.9475 -0.5527
 5310TIP3    H240126   5.075   1.509  16.317 -0.0078 -0.2093 -0.3487
 5311TIP3   OH240127   6.993   5.832  17.539  0.4642 -0.2057 -0.0086
 5311TIP3    H140128   6.954   5.771  17.602  1.8860 -1.4333 -0.2843
 5311TIP3    H240129   6.925   5.844  17.472 -0.5717  0.1040  1.0604
 5312TIP3   OH240130   7.094   1.957  18.070  0.0233 -0.2354 -0.5380
 5312TIP3    H140131   7.182   1.923  18.082 -0.4139 -1.2065  0.0201
 5312TIP3    H240132   7.105   2.032  18.011  1.0524 -1.0502 -1.4113
 5313TIP3   OH240133   7.074   1.654  16.715 -0.0841  0.1813  0.4762
 5313TIP3    H140134   7.043   1.568  16.687 -0.3964  0.7082 -0.8638
 5313TIP3    H240135   7.168   1.642  16.730  0.3659  0.1049 -1.9953
 5314TIP3   OH240136   0.415   1.821  18.589  0.2756 -0.0259 -0.1168
 5314TIP3    H140137   0.450   1.739  18.554  0.4355  0.3343 -0.8340
 5314TIP3    H240138   0.415   1.810  18.684 -2.9759 -2.2208 -0.2233
 5315TIP3   OH240139   1.984   3.993  17.301 -0.1121 -0.2882  0.4659
 5315TIP3    H140140   1.967   3.899  17.310  1.0099 -0.4302  1.4632
 5315TIP3    H240141   2.069   3.998  17.258 -0.2587  0.2866  0.2313
 5316TIP3   OH240142   7.039   2.666  17.058 -0.4169 -0.3173  0.3790
 5316TIP3    H140143   7.118   2.625  17.096  0.1867  1.1332  0.7531
 5316TIP3    H240144   6.987   2.692  17.134 -0.5834  0.0156  0.1492
 5317TIP3   OH240145   5.617   7.024  17.743  0.3750  0.4156 -0.3927
 5317TIP3    H140146   5.532   7.001  17.704  0.5230 -1.5212  0.2847
 5317TIP3    H240147   5.662   7.074  17.675 -0.5020 -0.3235 -1.5699
 5318TIP3   OH240148   0.022   0.320  17.831  0.1392  0.3467  0.8240
 5318TIP3    H140149  -0.044   0.253  17.844  0.1162  0.1483 -0.2184
 5318TIP3    H240150   0.102   0.282  17.867  0.3818 -0.7327 -0.7415
 5319TIP3   OH240151   3.782   5.537  16.301  0.0674  0.1664  0.0130
 5319TIP3    H140152   3.805   5.613  16.248  1.9829  0.4603  1.1523
 5319TIP3    H240153   3.761   5.468  16.238 -0.7160  1.3419 -1.0475
 5320TIP3   OH240154   0.734   3.765  17.298 -0.3678 -0.0694  0.7706
 5320TIP3    H140155   0.733   3.827  17.225  2.7432 -2.1011 -1.2944
 5320TIP3    H240156   0.642   3.751  17.319 -1.3876  1.3901 -2.1455
 5321TIP3   OH240157   5.214   6.845  17.870 -0.2755  0.4528 -0.2349
 5321TIP3    H140158   5.261   6.900  17.807  0.4617 -1.5541 -1.5345
 5321TIP3    H240159   5.239   6.756  17.847 -1.5882 -0.4646  1.6557
 5322TIP3   OH240160   4.204   5.818  17.401  0.4402 -0.0469 -0.1214
 5322TIP3    H140161   4.248   5.737  17.425 -0.1079 -0.2081  0.3704
 5322TIP3    H240162   4.211   5.874  17.478 -2.0212 -0.8679  0.8209
 5323TIP3   OH240163   4.054   2.038  18.905  0.0468 -0.0350  0.1773
 5323TIP3    H140164   3.997   1.985  18.959 -0.0519  1.2100  1.3531
 5323TIP3    H240165   4.017   2.031  18.817 -0.3884 -1.2772  0.4372
 5324TIP3   OH240166   0.758   5.022  18.832  0.3715 -0.1785  0.2422
 5324TIP3    H140167   0.725   5.110  18.814  0.6617 -0.1034  0.0492
 5324TIP3    H240168   0.851   5.026  18.808  0.6990 -0.1761  1.4745
 5325TIP3   OH240169   1.256   6.069  18.763 -0.1299  0.3633  0.1764
 5325TIP3    H140170   1.187   6.134  18.776  0.0469  0.2174  1.9922
 5325TIP3    H240171   1.239   6.001  18.828  0.4286 -0.8057 -0.8435
 5326TIP3   OH240172   0.816   2.610  17.602  0.0926 -0.2587  0.5086
 5326TIP3    H140173   0.812   2.664  17.523 -0.7335 -0.4989  0.3761
 5326TIP3    H240174   0.907   2.579  17.606  0.2956  0.2627 -0.0017
 5327TIP3   OH240175   3.365   4.862  17.816  0.1365 -0.2129  0.0308
 5327TIP3    H140176   3.447   4.875  17.768  0.1395  1.4074  0.4085
 5327TIP3    H240177   3.305   4.926  17.778 -0.1792  0.3700  1.4379
 5328TIP3   OH240178   4.998   5.959  17.804  0.3906  0.0407  0.3098
 5328TIP3    H140179   4.955   5.997  17.881 -0.2804  1.7018 -0.8264
 5328TIP3    H240180   5.087   5.940  17.832  0.2013  0.7766  1.4419
 5329TIP3   OH240181   0.381   3.602  18.131  0.6069 -0.2331  0.0347
 5329TIP3    H140182   0.385   3.529  18.068 -2.4870  0.5241 -1.2135
 5329TIP3    H240183   0.343   3.563  18.210  1.0184 -0.4060  0.1514
 5330TIP3   OH240184   2.188   2.180  18.575  0.3597 -0.2446 -0.5947
 5330TIP3    H140185   2.144   2.196  18.659 -0.1914  0.6025 -1.0244
 5330TIP3    H240186   2.200   2.268  18.538 -1.5216 -0.7010 -2.4582
 5331TIP3   OH240187   6.084   1.182  16.532 -0.4036  0.1441 -0.1847
 5331TIP3    H140188   6.041   1.098  16.543 -0.0964  0.0681  0.5009
 5331TIP3    H240189   6.023   1.235  16.481 -0.9993 -0.1876  0.1852
 5332TIP3   OH240190   1.962   4.386  17.998  0.5755  0.0101  0.5498
 5332TIP3    H140191   2.032   4.335  18.040  1.5364  0.2190 -0.7280
 5332TIP3    H240192   2.008   4.460  17.957 -0.3721  0.0442 -0.4844
 5333TIP3   OH240193   2.594   6.946  17.223  0.0487  0.0915  0.8298
 5333TIP3    H140194   2.520   7.001  17.249  0.2160  0.7635 -0.0912
 5333TIP3    H240195   2.670   7.004  17.226  0.6862 -0.7631  2.4428
 5334TIP3   OH240196   1.028   3.738  18.645 -0.3202 -0.3258  0.0200
 5334TIP3    H140197   1.111   3.741  18.692  0.8914 -0.2082 -2.0260
 5334TIP3    H240198   1.050   3.763  18.555 -2.8205  1.1753 -0.2696
 5335TIP3   OH240199   5.930   4.992  18.659 -0.4689  0.2567  0.0574
 5335TIP3    H140200   5.874   5.061  18.624 -0.5760 -0.7422 -1.8754
 5335TIP3    H240201   5.880   4.911  18.648  0.6447 -0.4471 -0.0733
 5336TIP3   OH240202   3.663   7.037  18.749 -0.5193  0.0149 -0.0335
 5336TIP3    H140203   3.667   6.964  18.687  0.9727  0.0272  0.0171
 5336TIP3    H240204   3.736   7.094  18.723 -0.1153  0.2220  1.4799
 5337TIP3   OH240205   1.145   7.107  19.031 -0.1688  0.1880 -0.5375
 5337TIP3    H140206   1.226   7.135  18.989 -0.1655  0.6738 -0.2163
 5337TIP3    H240207   1.098   7.189  19.048  0.4074  0.1420  1.6085
 5338TIP3   OH240208   5.879   0.496  16.440 -0.0316  0.1306 -0.6468
 5338TIP3    H140209   5.823   0.557  16.392 -1.2289 -0.6561 -0.3021
 5338TIP3    H240210   5.838   0.489  16.526 -0.1956 -1.4825 -0.8248
 5339TIP3   OH240211   2.639   7.218  16.525 -0.5819  0.6976  0.2377
 5339TIP3    H140212   2.702   7.284  16.496 -0.1143  0.4286  0.6254
 5339TIP3    H240213   2.574   7.267  16.577 -1.4941  1.2009 -1.3186
 5340TIP3   OH240214   3.148   4.382  17.315  0.5822  0.0865  0.0500
 5340TIP3    H140215   3.178   4.308  17.262 -0.7185 -0.5895  0.2059
 5340TIP3    H240216   3.064   4.406  17.276  0.2225  0.4149  1.0088
 5341TIP3   OH240217   2.219   3.783  18.316  0.2644  0.1479  0.4406
 5341TIP3    H140218   2.198   3.852  18.252  1.9499  1.6733  1.4383
 5341TIP3    H240219   2.280   3.825  18.377  1.3492 -2.2649  1.1094
 5342TIP3   OH240220   6.177   2.112  17.238 -0.2457  0.1655  0.1181
 5342TIP3    H140221   6.242   2.141  17.175 -0.5827 -0.5106 -0.5574
 5342TIP3    H240222   6.132   2.039  17.195  0.4225 -1.2250  1.6457
 5343TIP3   OH240223   1.437   3.171  18.990  0.0369 -0.6132  0.3033
 5343TIP3    H140224   1.421   3.262  19.014 -1.9916 -0.9201  0.3401
 5343TIP3    H240225   1.531   3.165  18.978  0.4110  1.0844  1.9475
 5344TIP3   OH240226   7.086   6.250  16.995  0.1891  0.1572  0.2000
 5344TIP3    H140227   7.034   6.170  16.995  0.1799  0.0731 -2.6311
 5344TIP3    H240228   7.175   6.221  17.015 -0.0086 -0.3960  0.2886
 5345TIP3   OH240229   3.090   3.031  18.839 -0.2331 -0.1667 -0.2574
 5345TIP3    H140230   3.170   2.980  18.850  0.4457  1.2485  2.2147
 5345TIP3    H240231   3.120   3.121  18.826 -1.4009  0.2653 -0.1114
 5346TIP3   OH240232   0.550   2.103  18.934  0.4644 -0.6483  0.2187
 5346TIP3    H140233   0.576   2.191  18.961  0.1868 -0.2736 -0.7169
 5346TIP3    H240234   0.537   2.056  19.016 -1.0825  0.6693  0.7767
 5347TIP3   OH240235   3.701   4.280  17.043  0.1581  0.8037  0.0730
 5347TIP3    H140236   3.778   4.332  17.020  0.3212  0.3250 -0.4901
 5347TIP3    H240237   3.652   4.272  16.961 -0.2531  0.7174  0.3266
 5348TIP3   OH240238   0.561   3.573  18.538  0.1557  0.1088  0.5272
 5348TIP3    H140239   0.474   3.563  18.499  0.1530 -0.0256  0.5685
 5348TIP3    H240240   0.619   3.589  18.464 -0.2636  2.7139  0.6737
 5349TIP3   OH240241   6.948   5.677  16.640  0.3286  0.0809 -0.2721
 5349TIP3    H140242   6.876   5.739  16.626  0.5082  0.3367 -0.0871
 5349TIP3    H240243   6.948   5.622  16.562 -1.1062 -0.9830  0.4525
 5350TIP3   OH240244   1.220   5.120  17.769  0.6583  0.0385 -0.3742
 5350TIP3    H140245   1.137   5.102  17.813  0.1487  2.6723 -0.1426
 5350TIP3    H240246   1.269   5.174  17.830  1.7113  0.2167 -1.3441
 5351TIP3   OH240247   2.283   6.802  16.552  0.7086 -0.5778  0.2064
 5351TIP3    H140248   2.322   6.715  16.566  1.3173  0.0218  2.6377
 5351TIP3    H240249   2.333   6.839  16.480  1.0342 -1.8907 -0.2814
 5352TIP3   OH240250   4.591   5.962  17.314 -0.4964 -0.0586 -0.6381
 5352TIP3    H140251   4.611   5.934  17.225 -1.7197  1.8060 -1.5584
 5352TIP3    H240252   4.669   6.011  17.342  0.9553 -2.7407  0.3615
 5353TIP3   OH240253   3.164   0.002  18.567 -0.7820  0.8775  0.2812
 5353TIP3    H140254   3.091   0.061  18.587 -0.3545  1.5560 -0.1407
 5353TIP3    H240255   3.200   0.035  18.485 -0.6803 -0.1179 -0.0893
 5354TIP3   OH240256   0.072   7.417  18.380 -0.0168 -0.2209  0.3826
 5354TIP3    H140257   0.038   7.507  18.385 -1.9438 -0.7150 -1.7185
 5354TIP3    H240258   0.154   7.425  18.331 -1.3232  0.2649 -1.9020
 5355TIP3   OH240259   2.339   1.107  16.926  0.4842 -0.1990  0.3192
 5355TIP3    H140260   2.362   1.190  16.884 -1.2073 -0.3260 -0.9837
 5355TIP3    H240261   2.247   1.094  16.904  0.6927 -2.4206  0.5294
 5356TIP3   OH240262   2.347   2.113  17.313 -0.0703  0.5110  0.6319
 5356TIP3    H140263   2.403   2.064  17.374  0.8243  1.8664  0.9346
 5356TIP3    H240264   2.264   2.065  17.314  0.9455 -1.3892  0.4065
 5357TIP3   OH240265   4.747   3.349  18.117 -0.0343  0.0590 -0.2236
 5357TIP3    H140266   4.695   3.282  18.161  0.8803 -0.5440 -0.0500
 5357TIP3    H240267   4.793   3.394  18.188 -0.0727  0.3765 -0.4011
 5358TIP3   OH240268   1.637   2.734  17.313 -0.1314  0.2838 -0.8201
 5358TIP3    H140269   1.697   2.802  17.282  0.9388 -0.8085 -1.2378
 5358TIP3    H240270   1.606   2.692  17.233 -0.4131 -0.0258 -0.5492
 5359TIP3   OH240271   2.722   0.227  17.003  0.2255  0.9273 -0.3205
 5359TIP3    H140272   2.637   0.192  16.976  0.4030 -0.3370  0.6559
 5359TIP3    H240273   2.732   0.308  16.953 -1.0899  0.5689 -1.2071
 5360TIP3   OH240274   5.204   5.815  18.029 -0.4320 -0.3657  0.2168
 5360TIP3    H140275   5.180   5.723  18.016  0.9648 -0.8570  0.9092
 5360TIP3    H240276   5.263   5.814  18.105  3.0515  0.4909 -2.2517
 5361TIP3   OH240277   0.632   2.989  19.088  0.2590  0.3528  0.4615
 5361TIP3    H140278   0.590   2.903  19.089  0.0846  0.4411  1.0398
 5361TIP3    H240279   0.715   2.975  19.042  0.6402 -0.3213  1.3460
 5362TIP3   OH240280   4.951   6.025  18.837 -0.1557 -0.3846  0.2151
 5362TIP3    H140281   4.968   5.994  18.748  2.1660 -0.9959  0.8207
 5362TIP3    H240282   4.969   5.949  18.893 -0.9846  0.1700  1.2796
 5363TIP3   OH240283   3.829   6.667  19.013 -0.4044  0.3906  0.0609
 5363TIP3    H140284   3.864   6.679  18.925 -0.9812  0.2024 -0.2024
 5363TIP3    H240285   3.737   6.646  18.999 -0.7230  1.2711  0.7524
 5364TIP3   OH240286   2.826   7.123  17.128  0.2238  0.3928 -0.1151
 5364TIP3    H140287   2.799   7.111  17.037 -2.5478 -0.5474  0.7207
 5364TIP3    H240288   2.795   7.211  17.150  1.4567  0.8681 -0.2376
 5365TIP3   OH240289   7.320   3.555  17.414  0.1802 -0.0281  0.6176
 5365TIP3    H140290   7.342   3.548  17.321 -1.1164  1.5172  0.1365
 5365TIP3    H240291   7.383   3.617  17.450  0.3601 -0.2336  0.6617
 5366TIP3   OH240292   6.069   6.255  18.196  0.7790  0.4354  0.8316
 5366TIP3    H140293   6.059   6.196  18.271  0.6869 -1.6024 -0.7064
 5366TIP3    H240294   5.981   6.291  18.183  0.9018  1.2313  1.9715
 5367TIP3   OH240295   7.358   4.968  17.900 -1.1614 -1.3679  0.0297
 5367TIP3    H140296   7.270   4.931  17.888 -0.2582 -2.8409 -3.4101
 5367TIP3    H240297   7.358   5.048  17.847 -0.4220 -1.4317 -0.0805
 5368TIP3   OH240298   6.162   6.545  18.666  0.4491  0.4068  0.3625
 5368TIP3    H140299   6.190   6.523  18.755  1.1487 -0.2374 -0.0051
 5368TIP3    H240300   6.186   6.637  18.656 -2.0010  1.3091  1.7216
 5369TIP3   OH240301   1.618   4.840  17.930 -0.0525  0.3320 -0.3912
 5369TIP3    H140302   1.640   4.900  18.001  1.8541 -0.2466 -0.4303
 5369TIP3    H240303   1.687   4.854  17.865 -0.2317 -1.0689 -0.9107
 5370TIP3   OH240304   5.599   7.070  16.166 -0.3659 -0.6055 -0.3922
 5370TIP3    H140305   5.510   7.043  16.189 -0.3047 -1.9597 -1.5602
 5370TIP3    H240306   5.654   6.998  16.196  0.4480  0.5060  0.8897
 5371TIP3   OH240307   5.388   4.989  17.026 -0.4693  0.3201  0.0396
 5371TIP3    H140308   5.430   5.018  17.107  2.4402 -1.0104 -0.8590
 5371TIP3    H240309   5.359   5.069  16.984  1.1231  1.3456  0.7923
 5372TIP3   OH240310   2.489   6.102  18.699 -0.0423  0.0456 -0.3955
 5372TIP3    H140311   2.528   6.156  18.631  0.1098 -0.7414 -0.9485
 5372TIP3    H240312   2.406   6.145  18.719  0.0580  0.4592 -0.8486
 5373TIP3   OH240313   2.887   6.289  17.598  0.5655  0.3277 -0.0792
 5373TIP3    H140314   2.931   6.366  17.634 -2.2086  2.1357 -0.2977
 5373TIP3    H240315   2.906   6.292  17.504 -0.8650  1.7377 -0.3488
 5374TIP3   OH240316   1.595   1.573  16.830  0.4048  0.0326  0.4873
 5374TIP3    H140317   1.611   1.628  16.907 -0.9296  0.4374  0.4999
 5374TIP3    H240318   1.628   1.623  16.756 -1.3919  1.1951  0.4179
 5375TIP3   OH240319   2.275   4.291  18.856  0.1329 -0.7079  0.0503
 5375TIP3    H140320   2.275   4.202  18.820 -1.4917 -0.1181 -1.4985
 5375TIP3    H240321   2.194   4.297  18.906 -0.1096  0.1094 -0.4207
 5376TIP3   OH240322   3.911   1.212  17.932  0.7014  0.5043  0.0088
 5376TIP3    H140323   3.977   1.145  17.949 -0.9361 -1.3697 -0.5733
 5376TIP3    H240324   3.914   1.269  18.009 -0.9825 -2.9732  2.9451
 5377TIP3   OH240325   0.824   0.913  16.811  0.5051 -0.0688 -0.3631
 5377TIP3    H140326   0.864   0.838  16.767  2.0562 -0.4967  1.6211
 5377TIP3    H240327   0.739   0.880  16.840  0.1604 -0.2811 -1.5511
 5378TIP3   OH240328   6.661   5.975  16.813 -0.0319 -0.1140 -0.2799
 5378TIP3    H140329   6.647   5.936  16.727  0.5025 -0.5651 -0.1670
 5378TIP3    H240330   6.692   5.903  16.867  1.1887  0.5037 -0.1282
 5379TIP3   OH240331   2.231   2.518  16.577  0.1383 -0.2203  0.2825
 5379TIP3    H140332   2.295   2.549  16.512  0.7298 -0.2371  0.8442
 5379TIP3    H240333   2.242   2.578  16.651  1.1782 -1.6115  1.3250
 5380TIP3   OH240334   4.892   6.906  16.874 -0.2484 -0.5210  0.2529
 5380TIP3    H140335   4.869   6.870  16.959  0.1030 -0.3267  0.4354
 5380TIP3    H240336   4.884   6.833  16.813 -1.1590 -0.4943  0.3356
 5381TIP3   OH240337   2.857   4.708  18.160  0.3341  0.3439 -0.5884
 5381TIP3    H140338   2.792   4.654  18.205 -1.1920  2.0343 -0.6197
 5381TIP3    H240339   2.899   4.757  18.231 -0.9537  1.8321 -0.7924
 5382TIP3   OH240340   2.706   0.118  16.484 -0.2843  0.1260 -0.0055
 5382TIP3    H140341   2.768   0.060  16.439  1.9287  1.9197  0.5473
 5382TIP3    H240342   2.652   0.154  16.414 -1.3918 -2.1191 -0.4112
 5383TIP3   OH240343   4.769   3.949  17.784  0.3137  0.4373 -0.2389
 5383TIP3    H140344   4.706   4.014  17.816 -0.3069  0.0788 -0.6931
 5383TIP3    H240345   4.733   3.865  17.813  0.0289  0.1494 -1.3581
 5384TIP3   OH240346   1.887   3.206  17.142 -0.0055  0.5441  0.0827
 5384TIP3    H140347   1.974   3.194  17.179  0.4354  2.6470 -0.1191
 5384TIP3    H240348   1.901   3.212  17.048 -0.5917 -0.5906 -0.0975
 5385TIP3   OH240349   5.810   0.217  16.759 -0.5501 -0.3686  0.5128
 5385TIP3    H140350   5.720   0.205  16.792 -0.5405  0.6114  0.9316
 5385TIP3    H240351   5.857   0.140  16.791 -1.2572 -0.9511  0.2009
 5386TIP3   OH240352   0.871   4.997  18.489 -0.2401 -0.2495 -0.2945
 5386TIP3    H140353   0.926   5.044  18.552 -0.4653 -0.8196  0.3381
 5386TIP3    H240354   0.925   4.992  18.410  0.0356  0.5036 -0.1646
 5387TIP3   OH240355   2.383   6.694  17.550 -0.1343 -0.3644 -0.0273
 5387TIP3    H140356   2.344   6.717  17.634 -0.2244  1.5609 -0.5309
 5387TIP3    H240357   2.467   6.739  17.549  0.1102 -0.8129 -0.7463
 5388TIP3   OH240358   5.100   2.285  19.006 -0.5876  0.4902 -0.1654
 5388TIP3    H140359   5.058   2.370  18.994  1.8085  1.5140 -2.1152
 5388TIP3    H240360   5.191   2.306  19.024  0.4629 -1.6288 -2.4331
 5389TIP3   OH240361   4.237   4.973  18.623 -0.3734 -0.8435 -0.5014
 5389TIP3    H140362   4.207   5.042  18.681  1.0764 -0.7943  0.2447
 5389TIP3    H240363   4.163   4.956  18.564 -1.7671 -0.6821  1.1427
 5390TIP3   OH240364   5.945   7.102  18.081 -0.6165  0.2511  0.0386
 5390TIP3    H140365   5.998   7.100  18.160  1.5685  0.0963 -1.3329
 5390TIP3    H240366   5.976   7.028  18.029 -1.8236  0.4878 -1.0764
 5391TIP3   OH240367   6.345   1.347   9.791  0.6467 -0.0183  0.5223
 5391TIP3    H140368   6.295   1.267   9.773  1.5980 -0.2496 -1.3435
 5391TIP3    H240369   6.416   1.319   9.848  1.3777 -0.6832 -0.6797
 5392TIP3   OH240370   3.646   0.378  10.514  0.1915  0.3615 -0.4926
 5392TIP3    H140371   3.682   0.369  10.602  1.5901  1.1667 -0.9435
 5392TIP3    H240372   3.636   0.472  10.501 -1.9066  0.1865 -0.4977
 5393TIP3   OH240373   1.770   0.710  10.973 -0.3868  0.1534  0.2895
 5393TIP3    H140374   1.855   0.676  10.999 -0.2885 -0.2873 -0.5556
 5393TIP3    H240375   1.746   0.773  11.041  1.9551  2.5220 -0.8935
 5394TIP3   OH240376   6.136   2.771  10.739 -0.1209 -0.0249  0.0446
 5394TIP3    H140377   6.223   2.766  10.698 -0.4979  1.2305 -0.9811
 5394TIP3    H240378   6.134   2.858  10.780 -0.4379 -0.5516  1.1897
 5395TIP3   OH240379   1.693   4.110  10.848  0.0984  0.1380  0.6826
 5395TIP3    H140380   1.675   4.027  10.893 -0.5238  0.2236  0.6050
 5395TIP3    H240381   1.680   4.090  10.756  0.2837  0.2394  0.6340
 5396TIP3   OH240382   1.539   5.626  10.524  0.0283 -0.0006 -0.6456
 5396TIP3    H140383   1.562   5.543  10.481 -1.0000 -0.1734 -0.8820
 5396TIP3    H240384   1.446   5.637  10.507 -0.0121  0.8258  0.0439
 5397TIP3   OH240385   5.360   4.506  11.888 -0.3687  0.5158  0.2280
 5397TIP3    H140386   5.337   4.525  11.978 -0.3656  0.0469  0.3290
 5397TIP3    H240387   5.340   4.414  11.876  1.0712  0.1719  0.2059
 5398TIP3   OH240388   5.137   3.087  10.857 -0.0839  0.0457 -0.0227
 5398TIP3    H140389   5.185   3.005  10.871  1.4857  0.9086 -0.1574
 5398TIP3    H240390   5.092   3.074  10.774  0.5493 -0.4906 -0.2896
 5399TIP3   OH240391   2.321   4.180  10.835 -0.0079  0.1617 -0.4647
 5399TIP3    H140392   2.413   4.156  10.825  0.2866  1.1875 -0.3382
 5399TIP3    H240393   2.285   4.175  10.746 -0.2734 -1.8385 -0.3025
 5400TIP3   OH240394   6.743   0.524   9.866  0.7615  0.2225  0.7003
 5400TIP3    H140395   6.749   0.598   9.805  2.4384  0.3969  1.0264
 5400TIP3    H240396   6.659   0.536   9.910  1.8002  3.1162  2.1457
 5401TIP3   OH240397   0.995   7.263  12.153 -0.1164  0.0125 -0.2306
 5401TIP3    H140398   1.002   7.314  12.234 -0.3018 -0.9067  0.3840
 5401TIP3    H240399   0.974   7.174  12.183  0.6113 -0.5250 -1.2421
 5402TIP3   OH240400   1.624   0.106  10.598 -0.0007  0.1155  0.1114
 5402TIP3    H140401   1.589   0.122  10.511 -0.9619  0.6033  0.5618
 5402TIP3    H240402   1.626   0.011  10.607  0.9973  0.0383 -0.7746
 5403TIP3   OH240403   5.978   7.474  11.519  0.1382 -0.1316 -0.4932
 5403TIP3    H140404   5.886   7.494  11.535  0.6354  1.3068  0.8952
 5403TIP3    H240405   6.009   7.548  11.466  0.5768 -0.4393 -0.6699
 5404TIP3   OH240406   2.960   4.951  11.057 -0.5427  0.0058 -0.4001
 5404TIP3    H140407   3.004   5.015  11.113  0.1432  0.3564 -1.3228
 5404TIP3    H240408   2.924   5.002  10.985  1.9555 -0.8213 -2.3801
 5405TIP3   OH240409   3.822   0.709  10.410 -0.0238 -0.0034  0.1359
 5405TIP3    H140410   3.891   0.719  10.476 -0.6516  0.5862  0.7188
 5405TIP3    H240411   3.816   0.794  10.367 -2.6210  1.1146  2.3696
 5406TIP3   OH240412   1.723   7.315  11.394 -0.8018  0.1680  0.5806
 5406TIP3    H140413   1.672   7.329  11.314 -0.1939 -0.6252  0.0364
 5406TIP3    H240414   1.729   7.220  11.403 -0.8944  0.2474  1.6022
 5407TIP3   OH240415   2.632   5.992  11.057  0.2168 -0.7597 -0.1290
 5407TIP3    H140416   2.552   5.973  11.105 -0.4412  2.0086  0.0380
 5407TIP3    H240417   2.702   5.984  11.122 -0.4384  0.9357  0.8550
 5408TIP3   OH240418   6.241   5.960   9.581 -0.0949 -0.2362  0.6336
 5408TIP3    H140419   6.266   5.973   9.673 -0.8460 -0.4989  0.8789
 5408TIP3    H240420   6.212   6.046   9.552  3.2617  0.7010 -0.3720
 5409TIP3   OH240421   4.001   5.873   9.924  0.0016  0.2570 -0.0539
 5409TIP3    H140422   3.943   5.815   9.873  0.1896 -0.0080  0.0308
 5409TIP3    H240423   3.961   5.960   9.915 -0.3518  0.0953 -0.0826
 5410TIP3   OH240424   3.626   6.344  10.427  0.3441 -0.3707  0.1651
 5410TIP3    H140425   3.625   6.407  10.354 -0.4196 -0.7226 -0.1381
 5410TIP3    H240426   3.536   6.342  10.458  0.6667 -0.2019  1.1547
 5411TIP3   OH240427   6.344   2.334  11.951 -0.8494 -0.1680 -0.3728
 5411TIP3    H140428   6.402   2.291  11.888 -1.1994 -0.8047 -0.2748
 5411TIP3    H240429   6.272   2.368  11.897 -0.7288  0.0181 -0.4158
 5412TIP3   OH240430   2.284   4.966  10.525 -0.0362 -0.5958  0.3307
 5412TIP3    H140431   2.302   4.883  10.480  0.1925 -0.6270  0.4782
 5412TIP3    H240432   2.273   5.029  10.455 -0.8231 -0.8720  0.1954
 5413TIP3   OH240433   7.158   1.466  10.999 -0.4098 -0.7324 -0.2025
 5413TIP3    H140434   7.239   1.445  11.047  0.1384 -1.7838 -1.5116
 5413TIP3    H240435   7.187   1.525  10.930 -0.9298 -0.4496 -0.1800
 5414TIP3   OH240436   4.187   2.292  11.198 -0.1631  0.0131 -0.2290
 5414TIP3    H140437   4.153   2.307  11.110  0.9206  0.4604 -0.5866
 5414TIP3    H240438   4.220   2.378  11.226  2.5318 -0.7746 -0.7317
 5415TIP3   OH240439   7.282   6.584  11.397 -0.3222 -0.2430  0.6047
 5415TIP3    H140440   7.303   6.512  11.339  0.1742 -0.1616  0.6760
 5415TIP3    H240441   7.224   6.640  11.347 -0.5024 -0.5612  0.4589
 5416TIP3   OH240442   4.182   6.722  10.984 -0.4826 -0.0062 -0.0066
 5416TIP3    H140443   4.172   6.627  10.995 -1.3311  0.0296 -0.4521
 5416TIP3    H240444   4.214   6.752  11.069 -0.4663 -0.6564  0.2244
 5417TIP3   OH240445   1.727   7.049  11.472  0.3682 -0.8814 -0.6632
 5417TIP3    H140446   1.701   6.958  11.454  0.1921 -0.8557 -0.5376
 5417TIP3    H240447   1.778   7.044  11.553  1.1036 -0.9876 -1.1196
 5418TIP3   OH240448   4.523   3.138  11.385 -0.0014 -0.0840  0.2738
 5418TIP3    H140449   4.433   3.151  11.413 -0.5186 -1.3031 -0.7266
 5418TIP3    H240450   4.576   3.173  11.456 -1.2457 -2.1565  2.3707
 5419TIP3   OH240451   6.796   3.777  12.003 -0.1584 -0.2150  0.3480
 5419TIP3    H140452   6.886   3.744  12.002 -0.4333 -0.9707  0.5401
 5419TIP3    H240453   6.744   3.707  11.966 -0.5195  0.7230 -1.0032
 5420TIP3   OH240454   3.963   5.458  10.970  0.0895 -0.0843 -0.4292
 5420TIP3    H140455   4.023   5.487  10.901  0.1714 -0.4093 -0.4965
 5420TIP3    H240456   3.920   5.381  10.934 -1.4274  0.9581 -0.9465
 5421TIP3   OH240457   7.421   0.210  10.047 -0.1450 -0.2369  0.3035
 5421TIP3    H140458   7.329   0.237  10.051  0.5442  2.4932 -0.4045
 5421TIP3    H240459   7.417   0.114  10.051 -3.2831 -0.4953 -3.2753
 5422TIP3   OH240460   6.140   6.746   9.605 -0.1215 -0.4388 -0.1208
 5422TIP3    H140461   6.058   6.724   9.561 -0.3142  0.9611 -0.5173
 5422TIP3    H240462   6.118   6.821   9.661  0.9709  0.2130 -0.5302
 5423TIP3   OH240463   7.062   6.825  10.727 -0.1662  0.4377 -0.4565
 5423TIP3    H140464   7.020   6.806  10.811  2.1253  0.2841  0.7281
 5423TIP3    H240465   7.005   6.785  10.662 -1.8489  0.2884  1.0298
 5424TIP3   OH240466   6.130   2.394  12.176 -0.4679  0.0708  0.3001
 5424TIP3    H140467   6.077   2.429  12.105 -0.1993  0.2513  0.1876
 5424TIP3    H240468   6.071   2.390  12.251 -0.1503  2.1886  0.7344
 5425TIP3   OH240469   0.308   7.171   9.951  0.1585 -0.0564 -0.4242
 5425TIP3    H140470   0.288   7.153   9.859 -0.5362 -1.9428  0.0503
 5425TIP3    H240471   0.223   7.186   9.992  0.4524  0.6760 -0.0553
 5426TIP3   OH240472   3.729   7.132  11.533 -0.1665  0.0621 -0.9435
 5426TIP3    H140473   3.787   7.206  11.551 -1.2750  0.1520  2.9852
 5426TIP3    H240474   3.769   7.058  11.580 -2.3290 -0.2449  0.5132
 5427TIP3   OH240475   7.058   5.885  11.770 -0.1025 -0.0290  0.2022
 5427TIP3    H140476   7.089   5.973  11.789  1.4538 -0.6862  0.9453
 5427TIP3    H240477   7.019   5.855  11.852  1.2263 -0.7365  0.6034
 5428TIP3   OH240478   5.093   6.211  11.083  0.2299 -0.1421 -0.8193
 5428TIP3    H140479   5.149   6.280  11.120 -1.8839  0.6894  1.0845
 5428TIP3    H240480   5.111   6.134  11.138 -0.9868  0.3495  0.3212
 5429TIP3   OH240481   3.234   2.436  11.130 -0.1060  0.8002  0.1249
 5429TIP3    H140482   3.192   2.496  11.067 -1.5241  0.4566  0.6932
 5429TIP3    H240483   3.322   2.472  11.142 -0.6050  2.2423 -0.2433
 5430TIP3   OH240484   5.998   2.262  10.726  0.2385  0.0636  0.5210
 5430TIP3    H140485   5.952   2.306  10.655 -1.9315 -0.0632  1.7496
 5430TIP3    H240486   6.090   2.282  10.712  0.1913 -1.6903 -3.5313
 5431TIP3   OH240487   1.298   6.106   9.827  0.2172  0.0793  0.2840
 5431TIP3    H140488   1.220   6.156   9.800 -0.8139 -1.1634  0.8790
 5431TIP3    H240489   1.306   6.037   9.762  0.0026 -0.6214  0.9946
 5432TIP3   OH240490   3.956   6.089  10.426 -0.0763  0.0178  0.0502
 5432TIP3    H140491   3.885   6.097  10.490  0.4357 -2.2725  1.0243
 5432TIP3    H240492   3.916   6.112  10.342 -2.0261 -1.2604  0.5518
 5433TIP3   OH240493   7.292   4.823  11.024 -0.3236 -0.4125 -0.5111
 5433TIP3    H140494   7.355   4.766  10.979 -1.6868 -2.8154  0.4476
 5433TIP3    H240495   7.345   4.896  11.056  1.4837 -1.0187 -1.9219
 5434TIP3   OH240496   5.554   6.785  11.851  0.5956 -0.2912  0.2127
 5434TIP3    H140497   5.554   6.719  11.921 -0.4844 -0.0957  0.4095
 5434TIP3    H240498   5.496   6.854  11.882 -0.6161 -0.5963 -1.2194
 5435TIP3   OH240499   6.675   2.099  10.071 -0.2631 -0.4952 -0.4199
 5435TIP3    H140500   6.766   2.118  10.048 -0.5894  0.0755 -1.2708
 5435TIP3    H240501   6.680   2.064  10.160  0.7993 -0.5923 -0.5050
 5436TIP3   OH240502   3.572   4.958  11.410 -0.4038  0.2848  0.2543
 5436TIP3    H140503   3.507   4.964  11.480 -0.0394 -0.0318  0.6174
 5436TIP3    H240504   3.653   4.935  11.454 -0.3287 -0.6436 -0.3586
 5437TIP3   OH240505   3.424   0.668  10.243 -0.3360  0.3056  0.1220
 5437TIP3    H140506   3.342   0.619  10.246 -0.5196  0.6585  0.9833
 5437TIP3    H240507   3.400   0.752  10.204  0.3082 -0.8699 -3.1120
 5438TIP3   OH240508   4.923   4.752  10.698  0.2099 -0.4570 -0.5237
 5438TIP3    H140509   4.960   4.790  10.618 -1.3838  2.1083 -0.1544
 5438TIP3    H240510   4.996   4.749  10.760  0.8220  0.2036 -1.1948
 5439TIP3   OH240511   0.432   6.798  12.202  0.2462 -0.0055  0.0498
 5439TIP3    H140512   0.431   6.875  12.260 -1.1084  0.9647 -1.1848
 5439TIP3    H240513   0.417   6.724  12.261 -1.7535  1.0036  0.9368
 5440TIP3   OH240514   2.935   5.398  11.237 -0.7535  0.4445  0.0631
 5440TIP3    H140515   2.870   5.327  11.237  1.5066 -1.7899  1.1951
 5440TIP3    H240516   2.916   5.449  11.315 -1.0347 -0.3466  0.5233
 5441TIP3   OH240517   2.200   4.656   9.788 -0.3160 -0.0146  0.4217
 5441TIP3    H140518   2.224   4.724   9.725  0.8590 -1.0016 -0.2312
 5441TIP3    H240519   2.240   4.576   9.754 -0.3235 -0.7315  2.0113
 5442TIP3   OH240520   5.736   2.212  11.459  0.9045 -0.2107  0.3179
 5442TIP3    H140521   5.775   2.128  11.435  1.4073 -0.3332  1.5377
 5442TIP3    H240522   5.805   2.276  11.442 -0.5369  0.5440 -4.0485
 5443TIP3   OH240523   5.544   4.328  10.983  0.1942  0.4481 -0.8347
 5443TIP3    H140524   5.470   4.274  11.009 -0.2008  0.0619 -2.6375
 5443TIP3    H240525   5.619   4.268  10.984 -0.0537  0.0921 -1.7704
 5444TIP3   OH240526   3.191   7.294  10.673  0.1699  0.4627 -0.3503
 5444TIP3    H140527   3.119   7.328  10.619  0.4820  1.1330 -0.3502
 5444TIP3    H240528   3.234   7.230  10.617  0.6091  1.2945 -0.9806
 5445TIP3   OH240529   4.779   2.145  10.675 -0.0953  0.2928  0.2377
 5445TIP3    H140530   4.719   2.103  10.613  0.7215 -0.0790 -0.3149
 5445TIP3    H240531   4.860   2.095  10.668  0.2007  0.6184  1.1797
 5446TIP3   OH240532   3.062   5.166   9.738 -0.2582 -0.4112 -0.3099
 5446TIP3    H140533   2.972   5.187   9.762  0.1291  0.7319  0.2056
 5446TIP3    H240534   3.099   5.250   9.710  0.7355 -0.8091 -0.2122
 5447TIP3   OH240535   0.388   6.252   9.856 -0.2400 -0.0782 -0.2428
 5447TIP3    H140536   0.342   6.336   9.852 -1.2737 -0.5763 -4.8146
 5447TIP3    H240537   0.480   6.275   9.870 -0.5406  1.8600 -1.1509
 5448TIP3   OH240538   5.955   0.940  12.712  0.2680 -0.8032 -0.4332
 5448TIP3    H140539   5.875   0.983  12.680  0.6393  0.1219 -0.1623
 5448TIP3    H240540   5.965   0.863  12.657 -0.4476 -0.5629 -0.9093
 5449TIP3   OH240541   0.422   0.753  11.801 -0.2526 -0.1276  0.4051
 5449TIP3    H140542   0.453   0.764  11.711 -1.5170  1.0270  0.0698
 5449TIP3    H240543   0.487   0.800  11.854 -0.1876  0.3085 -0.0434
 5450TIP3   OH240544   3.174   0.125   9.682  0.2612  0.6545  0.2129
 5450TIP3    H140545   3.147   0.172   9.604 -0.2322 -0.6466 -0.4200
 5450TIP3    H240546   3.132   0.173   9.754 -0.7912  0.7805 -0.4615
 5451TIP3   OH240547   5.154   1.896  11.676 -0.2583 -0.5872  0.7570
 5451TIP3    H140548   5.084   1.907  11.611 -1.2192 -0.9602  1.6934
 5451TIP3    H240549   5.228   1.861  11.627 -0.5332  0.3455 -0.3673
 5452TIP3   OH240550   4.127   0.130  10.335  0.6083 -0.0112  0.1546
 5452TIP3    H140551   4.217   0.154  10.313  0.4745  1.8183  1.3552
 5452TIP3    H240552   4.131   0.103  10.427 -0.1134  0.3825  0.3059
 5453TIP3   OH240553   4.825   2.679  10.794 -0.1953 -0.4324  1.0622
 5453TIP3    H140554   4.846   2.693  10.701  2.9856 -1.2409  1.5597
 5453TIP3    H240555   4.805   2.586  10.800 -0.2412 -0.4120  1.2318
 5454TIP3   OH240556   5.742   4.342  10.629  0.6310 -0.0357  0.1999
 5454TIP3    H140557   5.666   4.398  10.648 -1.4131 -2.5018 -0.2573
 5454TIP3    H240558   5.754   4.348  10.535  2.2462  1.7272  0.4456
 5455TIP3   OH240559   6.628   5.238  11.390 -0.1325 -0.6373 -0.0600
 5455TIP3    H140560   6.538   5.210  11.408 -0.1408 -0.1762  0.6847
 5455TIP3    H240561   6.663   5.172  11.330 -0.5898 -1.4740  0.5695
 5456TIP3   OH240562   0.223   4.921  10.247  0.9070  0.4857 -0.4691
 5456TIP3    H140563   0.240   5.013  10.229 -2.1035  1.5240  1.3423
 5456TIP3    H240564   0.135   4.905  10.215  0.7618 -1.3298  0.6928
 5457TIP3   OH240565   7.381   2.520  10.271 -0.2479 -0.4101  0.2831
 5457TIP3    H140566   7.297   2.530  10.227 -0.1725  0.6592  0.3579
 5457TIP3    H240567   7.390   2.426  10.284 -1.0247 -0.6103 -0.5129
 5458TIP3   OH240568   5.155   5.872  10.773 -0.0465  1.1601  0.0474
 5458TIP3    H140569   5.235   5.859  10.721  1.1858  2.6922  1.4536
 5458TIP3    H240570   5.088   5.892  10.709  0.5225 -0.7495 -1.2355
 5459TIP3   OH240571   5.908   1.054  11.779 -0.6158 -0.5632 -0.7499
 5459TIP3    H140572   5.823   1.069  11.739 -0.4444 -2.4827 -1.9439
 5459TIP3    H240573   5.896   0.976  11.833  0.2555 -0.5468 -0.5220
 5460TIP3   OH240574   2.730   5.934  11.314  0.7282  0.3377 -0.9675
 5460TIP3    H140575   2.644   5.959  11.348  1.1759  2.1714 -1.0599
 5460TIP3    H240576   2.750   5.852  11.359 -0.6684  0.3389 -0.2673
 5461TIP3   OH240577   0.132   1.933   9.981 -0.1500  0.3321  0.7211
 5461TIP3    H140578   0.095   1.973  10.059 -1.3387  0.0526  0.3273
 5461TIP3    H240579   0.157   1.845  10.009 -0.8621  0.1237  0.7291
 5462TIP3   OH240580   2.003   5.584  12.478  0.2393  0.0931 -0.9040
 5462TIP3    H140581   1.911   5.612  12.483 -0.4154 -2.0839  1.0809
 5462TIP3    H240582   2.046   5.632  12.549  0.6459  0.9954 -1.7356
 5463TIP3   OH240583   3.067   6.888   9.850 -0.5150 -0.9151 -0.3455
 5463TIP3    H140584   2.988   6.841   9.825 -2.2243  0.6118  1.7759
 5463TIP3    H240585   3.057   6.976   9.812 -0.5142 -0.3121  0.9730
 5464TIP3   OH240586   2.314   0.136  11.165  0.5274 -0.3889  0.0208
 5464TIP3    H140587   2.338   0.063  11.222  0.0877 -1.0043 -0.5541
 5464TIP3    H240588   2.246   0.100  11.108  0.4891  0.4001 -0.4480
 5465TIP3   OH240589   0.316   6.024  10.748  0.1981 -0.0105  0.4274
 5465TIP3    H140590   0.224   6.002  10.736  0.3480  0.1257 -1.1912
 5465TIP3    H240591   0.350   5.957  10.807 -0.8076 -0.3519  0.6347
 5466TIP3   OH240592   5.235   0.905  11.146  0.0168 -0.5355  0.1100
 5466TIP3    H140593   5.237   1.000  11.158 -0.4451 -0.4311 -0.6336
 5466TIP3    H240594   5.235   0.893  11.051 -1.0616 -1.2533  0.1905
 5467TIP3   OH240595   3.286   5.457  10.105  0.6120  0.5906 -0.3389
 5467TIP3    H140596   3.372   5.499  10.106 -0.2666  2.4917 -0.0820
 5467TIP3    H240597   3.236   5.506  10.039 -0.0235 -1.0792 -1.1654
 5468TIP3   OH240598   5.882   0.493  11.351  0.1552  0.2317 -0.1808
 5468TIP3    H140599   5.963   0.448  11.328  0.8754  1.1745  0.3903
 5468TIP3    H240600   5.812   0.432  11.328  1.1058 -1.5624  1.4287
 5469TIP3   OH240601   0.467   0.893  11.409  0.2822  0.3615  0.2535
 5469TIP3    H140602   0.442   0.802  11.425 -1.6212  0.4981 -1.5413
 5469TIP3    H240603   0.530   0.913  11.479  1.0762 -2.4160  0.4680
 5470TIP3   OH240604   6.296   2.230  10.429 -0.4696  0.0374  0.5012
 5470TIP3    H140605   6.223   2.193  10.379 -0.1820 -0.9785  0.8053
 5470TIP3    H240606   6.331   2.155  10.478  2.7098 -0.2520 -1.8910
 5471TIP3   OH240607   2.611   1.085  10.244  0.0618 -0.3639 -0.0925
 5471TIP3    H140608   2.615   1.179  10.223 -0.3183  0.0176  1.3976
 5471TIP3    H240609   2.518   1.067  10.256  0.2930 -0.2971  2.1393
 5472TIP3   OH240610   3.476   3.616  11.128 -0.1685 -0.5791  0.0342
 5472TIP3    H140611   3.504   3.531  11.094  0.3521 -0.4297  0.0822
 5472TIP3    H240612   3.555   3.669  11.129 -0.7155  0.3103 -1.1762
 5473TIP3   OH240613   0.460   5.723  10.155 -0.4636  0.1784 -0.4121
 5473TIP3    H140614   0.497   5.788  10.095  0.4000 -0.5562 -0.7033
 5473TIP3    H240615   0.385   5.688  10.108 -0.8873  0.8928 -0.2878
 5474TIP3   OH240616   3.707   5.913  12.193  0.1544  0.1110  0.6793
 5474TIP3    H140617   3.706   5.958  12.278  1.2784  0.3320  0.5906
 5474TIP3    H240618   3.746   5.977  12.134  2.8316 -1.3119  0.7629
 5475TIP3   OH240619   5.121   5.059  10.261 -0.0474 -0.5681 -0.5749
 5475TIP3    H140620   5.123   5.065  10.165  2.7518 -0.4877 -0.5999
 5475TIP3    H240621   5.208   5.025  10.284 -0.2882  0.3853  1.9934
 5476TIP3   OH240622   3.960   7.081   9.865 -0.2045  0.6202  1.3859
 5476TIP3    H140623   3.928   7.044   9.947 -0.5645  1.8674  1.8328
 5476TIP3    H240624   4.024   7.147   9.892  0.0293  0.7051  0.6488
 5477TIP3   OH240625   1.148   4.167  10.313 -0.1154  0.2250  1.0886
 5477TIP3    H140626   1.121   4.106  10.382  1.1774 -0.1722  1.2656
 5477TIP3    H240627   1.213   4.223  10.354  1.6359 -0.8336 -0.1057
 5478TIP3   OH240628   0.288   5.638   9.721  0.3169  0.5521 -0.0632
 5478TIP3    H140629   0.333   5.584   9.786 -0.2508 -0.1810 -0.2580
 5478TIP3    H240630   0.358   5.681   9.672  0.7435  2.4446  2.0911
 5479TIP3   OH240631   3.004   0.550  10.866 -0.2760  0.0004 -0.6744
 5479TIP3    H140632   2.961   0.532  10.949  0.9188  0.6461  0.1282
 5479TIP3    H240633   3.015   0.645  10.865  2.6965 -0.2156  0.0665
 5480TIP3   OH240634   4.972   3.561  11.166  0.4967 -0.3156 -0.1013
 5480TIP3    H140635   4.969   3.468  11.142 -0.2733 -0.5764  0.9110
 5480TIP3    H240636   5.028   3.601  11.099 -0.3661 -1.2395 -1.4427
 5481TIP3   OH240637   2.885   3.591  12.608 -0.0889 -0.2068 -0.1668
 5481TIP3    H140638   2.913   3.678  12.635  1.7219 -0.8130  0.0659
 5481TIP3    H240639   2.874   3.596  12.513  0.3300  0.1954 -0.1933
 5482TIP3   OH240640   4.596   2.044  12.242 -0.2786  0.1207  1.0291
 5482TIP3    H140641   4.523   1.983  12.250 -1.5386  1.2829 -0.8640
 5482TIP3    H240642   4.672   1.988  12.226 -0.5247 -1.1572  3.7341
 5483TIP3   OH240643   2.133   7.350  12.528  0.1785  0.3581 -0.6217
 5483TIP3    H140644   2.223   7.324  12.547 -0.0394  0.9365  1.4840
 5483TIP3    H240645   2.138   7.443  12.507 -0.0435  0.7427  0.9054
 5484TIP3   OH240646   0.650   0.629  10.673  0.0432  0.1443 -0.3464
 5484TIP3    H140647   0.582   0.685  10.634 -0.5729 -1.7806 -2.2249
 5484TIP3    H240648   0.729   0.649  10.622 -0.4228 -1.3448 -1.7333
 5485TIP3   OH240649   3.963   4.194  10.718 -0.4505 -0.3090 -0.2469
 5485TIP3    H140650   3.988   4.200  10.810 -1.8277 -0.6609  0.1731
 5485TIP3    H240651   3.867   4.193  10.719 -0.5044 -2.1625 -1.5461
 5486TIP3   OH240652   7.093   1.907  11.257 -0.0902  0.2575  0.0887
 5486TIP3    H140653   7.005   1.924  11.291  0.6844 -0.1407  2.4389
 5486TIP3    H240654   7.078   1.874  11.168 -2.4345 -1.3474  0.9762
 5487TIP3   OH240655   4.011   5.792  11.437  0.2640 -0.7327 -0.1566
 5487TIP3    H140656   3.938   5.811  11.378  0.1789 -0.8880 -0.1010
 5487TIP3    H240657   3.983   5.716  11.487 -0.1557  0.0952  0.9173
 5488TIP3   OH240658   1.455   3.239   9.780  0.3536  0.4514 -0.1364
 5488TIP3    H140659   1.529   3.214   9.836  1.2020  0.5174 -1.1822
 5488TIP3    H240660   1.416   3.157   9.753  0.3088  0.4017  0.0777
 5489TIP3   OH240661   0.566   3.538  10.562  0.1852  0.6297 -0.7980
 5489TIP3    H140662   0.630   3.567  10.627 -1.3421  2.8894 -0.2040
 5489TIP3    H240663   0.576   3.600  10.490 -1.4463  1.1371 -0.6084
 5490TIP3   OH240664   7.194   2.390  12.018 -0.6478 -0.0327  0.2318
 5490TIP3    H140665   7.187   2.432  12.104  0.7964  1.4402 -0.3184
 5490TIP3    H240666   7.233   2.304  12.036 -1.1581 -0.0939  1.1173
 5491TIP3   OH240667   0.782   2.864  10.380 -0.2953  0.0976  0.2617
 5491TIP3    H140668   0.877   2.867  10.387 -0.1908 -1.4601 -0.0945
 5491TIP3    H240669   0.752   2.837  10.466 -0.1967 -2.0195 -0.3125
 5492TIP3   OH240670   3.249   5.713   9.585 -0.5796  0.4089  0.3715
 5492TIP3    H140671   3.185   5.773   9.623 -0.4610  0.7985 -0.0382
 5492TIP3    H240672   3.312   5.769   9.540  0.3479  0.0688  1.2025
 5493TIP3   OH240673   6.412   2.191  11.486  0.1633  0.0560  0.5322
 5493TIP3    H140674   6.455   2.220  11.405 -0.3098  0.5032  0.4403
 5493TIP3    H240675   6.319   2.210  11.472  0.2876  1.8327  1.9084
 5494TIP3   OH240676   2.561   4.034  11.119  0.1794 -0.1524 -0.0819
 5494TIP3    H140677   2.521   3.949  11.135  0.9146 -0.4439  0.2971
 5494TIP3    H240678   2.575   4.071  11.206  0.8246 -0.1113 -0.1960
 5495TIP3   OH240679   2.644   3.757  10.474 -0.0133 -0.1293  0.3474
 5495TIP3    H140680   2.565   3.805  10.497 -0.0793 -0.2771  0.4314
 5495TIP3    H240681   2.633   3.736  10.381  0.9251  1.7601 -0.2373
 5496TIP3   OH240682   0.248   2.533  11.156 -0.2413  0.0605  0.4876
 5496TIP3    H140683   0.229   2.439  11.157  0.3894 -0.0710  0.0820
 5496TIP3    H240684   0.320   2.544  11.217  0.4542  0.1097 -0.3260
 5497TIP3   OH240685   2.033   4.532  10.108 -0.3367  0.0498  0.2698
 5497TIP3    H140686   1.989   4.455  10.143  1.1367 -0.6804  0.6058
 5497TIP3    H240687   1.982   4.606  10.141 -1.2048 -0.7405  0.7547
 5498TIP3   OH240688   3.865   3.489  10.295  0.5097  0.3437  0.3030
 5498TIP3    H140689   3.913   3.499  10.213  0.0282  1.5565  0.1371
 5498TIP3    H240690   3.778   3.524  10.275  0.1388 -0.1016  1.1088
 5499TIP3   OH240691   4.848   3.379   9.853 -0.1995  0.0144 -0.0662
 5499TIP3    H140692   4.757   3.355   9.833 -0.2105 -1.2956  1.3746
 5499TIP3    H240693   4.901   3.312   9.810  0.0817  0.5748 -0.6065
 5500TIP3   OH240694   4.397   7.465  10.085 -0.5923  0.0012  0.0252
 5500TIP3    H140695   4.408   7.448  10.179 -0.1505 -1.7894 -0.3121
 5500TIP3    H240696   4.304   7.449  10.068 -0.7671  0.7499  0.2051
 5501TIP3   OH240697   2.667   3.089   9.730  0.1823 -0.1700 -0.2710
 5501TIP3    H140698   2.640   3.155   9.794 -0.6311 -0.8857  0.1581
 5501TIP3    H240699   2.584   3.055   9.695  0.2868 -3.4759  2.1399
 5502TIP3   OH240700   0.717   2.704  12.284  0.0849  0.2122  0.7731
 5502TIP3    H140701   0.729   2.631  12.344  0.2857  1.2878  2.0955
 5502TIP3    H240702   0.623   2.722  12.286  0.2061  0.8319  1.5173
 5503TIP3   OH240703   6.168   2.077  12.075  0.2357 -0.6484  0.2590
 5503TIP3    H140704   6.175   2.003  12.135  0.8372 -1.0817 -0.3344
 5503TIP3    H240705   6.225   2.145  12.112  1.8161 -1.4587 -0.5917
 5504TIP3   OH240706   4.432   3.387  11.735  0.1022 -0.3799  0.2041
 5504TIP3    H140707   4.504   3.344  11.689  0.3731 -0.6261  0.8377
 5504TIP3    H240708   4.469   3.409  11.821  0.5446  2.7796 -0.6813
 5505TIP3   OH240709   2.504   1.487  10.765 -0.1307  0.3765 -0.0117
 5505TIP3    H140710   2.438   1.533  10.713  0.0952  0.1265 -0.5279
 5505TIP3    H240711   2.543   1.554  10.820 -0.0498  0.7358 -0.5034
 5506TIP3   OH240712   3.156   1.737   9.862 -0.1420 -0.0132 -0.1421
 5506TIP3    H140713   3.083   1.678   9.880 -0.2691  1.2055  4.8383
 5506TIP3    H240714   3.234   1.682   9.872 -0.1346 -0.9952 -4.0779
 5507TIP3   OH240715   3.866   1.614   9.354  0.3033 -0.0958 -0.0683
 5507TIP3    H140716   3.892   1.633   9.444 -0.3428  0.6427 -0.0326
 5507TIP3    H240717   3.772   1.600   9.358  0.3664 -0.7210 -0.5308
 5508TIP3   OH240718   7.072   5.132  10.675 -0.4125 -0.7605 -0.4311
 5508TIP3    H140719   7.049   5.092  10.591 -0.4895 -1.2423 -0.1801
 5508TIP3    H240720   7.088   5.059  10.734 -1.5955 -0.4462  0.3230
 5509TIP3   OH240721   1.957   3.692  10.142  0.1645  0.2180 -0.2471
 5509TIP3    H140722   2.013   3.743  10.085  0.2658  0.2760 -0.0970
 5509TIP3    H240723   1.927   3.754  10.209  1.0829 -0.1274  0.5170
 5510TIP3   OH240724   4.702   1.821  10.882 -0.4627 -0.1714  0.5600
 5510TIP3    H140725   4.699   1.916  10.893 -2.3047 -0.0945 -0.1926
 5510TIP3    H240726   4.782   1.804  10.833 -0.3508  1.0401  0.3052
 5511TIP3   OH240727   1.489   0.883  10.775 -0.0260  0.3469  0.2267
 5511TIP3    H140728   1.517   0.945  10.842 -1.2653  1.7473 -0.4812
 5511TIP3    H240729   1.553   0.812  10.779  0.1388  0.5451  2.6240
 5512TIP3   OH240730   1.775   6.251  10.741 -0.5418 -0.0761  0.3489
 5512TIP3    H140731   1.742   6.164  10.765  0.6043 -0.4186  0.7970
 5512TIP3    H240732   1.795   6.293  10.825  1.3008 -0.3821  0.1126
 5513TIP3   OH240733   6.653   6.665   9.723  0.1619 -0.4357  0.1158
 5513TIP3    H140734   6.593   6.616   9.779 -0.2929 -1.0844 -0.9099
 5513TIP3    H240735   6.603   6.681   9.643  1.1646 -0.4796 -0.5373
 5514TIP3   OH240736   3.615   3.176  10.427  0.3757  0.0160  0.7088
 5514TIP3    H140737   3.692   3.142  10.380 -1.0131 -1.0843 -0.8680
 5514TIP3    H240738   3.580   3.100  10.473 -1.6876 -0.3817 -1.3481
 5515TIP3   OH240739   6.530   7.274   9.883 -0.2370 -0.0385  0.3421
 5515TIP3    H140740   6.536   7.230   9.799 -0.1603  0.4420  0.0911
 5515TIP3    H240741   6.551   7.365   9.864 -0.0448  0.0432  0.9115
 5516TIP3   OH240742   5.997   7.447  12.174  0.0475  0.2745 -0.4950
 5516TIP3    H140743   6.025   7.393  12.249  0.5232 -0.0369 -0.8936
 5516TIP3    H240744   6.048   7.414  12.100 -0.2221  0.7639 -0.9049
 5517TIP3   OH240745   5.778   4.600  16.548  0.1776  0.9091 -0.1567
 5517TIP3    H140746   5.799   4.693  16.560  3.2112  0.4174 -1.0247
 5517TIP3    H240747   5.801   4.581  16.458 -0.2084 -0.7748  0.0649
 5518TIP3   OH240748   0.860   5.002  12.172  0.4801  0.0671  0.0875
 5518TIP3    H140749   0.781   4.956  12.143  1.0352 -0.9259  0.1243
 5518TIP3    H240750   0.930   4.938  12.165  1.6921  1.4762 -1.7886
 5519TIP3   OH240751   0.659   5.692  10.731  0.0047 -0.1223  0.1847
 5519TIP3    H140752   0.655   5.775  10.684 -2.0875 -0.2241  0.0735
 5519TIP3    H240753   0.728   5.705  10.797  1.3387  0.8339 -1.3267
 5520TIP3   OH240754   0.734   4.238  11.079  0.2557 -0.2681 -0.1306
 5520TIP3    H140755   0.641   4.235  11.103 -0.1627  0.4899 -1.5581
 5520TIP3    H240756   0.734   4.269  10.988  1.9201  0.0138 -0.0550
 5521TIP3   OH240757   6.271   0.031  10.659  0.1314  0.3296 -0.5449
 5521TIP3    H140758   6.226  -0.024  10.595 -3.2452  3.0468 -0.7816
 5521TIP3    H240759   6.221   0.021  10.740 -1.2475  3.5800 -0.8514
 5522TIP3   OH240760   1.362   6.638  11.378 -0.1702 -0.0670 -0.1549
 5522TIP3    H140761   1.408   6.706  11.427 -0.8504 -0.9251  1.7717
 5522TIP3    H240762   1.288   6.683  11.337  0.5152  0.7006 -0.5701
 5523TIP3   OH240763   0.437   3.836  10.576 -0.3067  0.1573 -0.0407
 5523TIP3    H140764   0.343   3.823  10.564 -0.4383  1.6321 -0.8265
 5523TIP3    H240765   0.476   3.805  10.495 -0.1539 -0.0972  0.1305
 5524TIP3   OH240766   3.970   5.527  11.482 -0.9348  0.1443 -0.1338
 5524TIP3    H140767   3.985   5.512  11.389  4.6628 -1.1737  0.5916
 5524TIP3    H240768   3.978   5.440  11.522 -3.1677  0.6749  1.6862
 5525TIP3   OH240769   4.438   6.393  11.118  0.5393 -0.5692 -0.1444
 5525TIP3    H140770   4.481   6.472  11.149 -0.7685 -0.8981  2.8660
 5525TIP3    H240771   4.506   6.326  11.119  0.6582 -0.4978  2.0380
 5526TIP3   OH240772   2.439   6.475  10.570 -0.0923  0.1192  0.6728
 5526TIP3    H140773   2.451   6.521  10.653 -1.4547  1.8818 -0.0409
 5526TIP3    H240774   2.526   6.442  10.548  0.5454  0.7200  2.1667
 5527TIP3   OH240775   4.107   5.931  11.103 -0.4543  0.1098  0.0766
 5527TIP3    H140776   4.200   5.955  11.106 -0.0834 -0.9815 -1.5096
 5527TIP3    H240777   4.070   5.988  11.036 -0.3020 -1.2706 -1.2421
 5528TIP3   OH240778   4.365   0.626  11.198  0.0682  0.2266  0.4573
 5528TIP3    H140779   4.378   0.661  11.286  0.6496 -0.0580  0.4895
 5528TIP3    H240780   4.364   0.531  11.210  0.9934  0.1553  0.0586
 5529TIP3   OH240781   5.870   3.406  19.094 -0.3244  0.1923 -0.0999
 5529TIP3    H140782   5.843   3.497  19.083  2.3246  0.8373 -2.3932
 5529TIP3    H240783   5.850   3.364  19.010  0.6264 -0.7025  0.0996
 5530TIP3   OH240784   5.635   3.242  10.302 -0.0251 -0.1623  0.2549
 5530TIP3    H140785   5.588   3.177  10.353  2.1388 -0.6522  1.7573
 5530TIP3    H240786   5.605   3.326  10.336 -3.1189 -0.2058 -1.9528
 5531TIP3   OH240787   0.364   4.236  11.216  0.4786  0.1927 -0.2614
 5531TIP3    H140788   0.431   4.221  11.150  0.2100 -0.2152 -0.4447
 5531TIP3    H240789   0.292   4.178  11.191 -0.2707  1.2195 -0.5258
 5532TIP3   OH240790   2.908   6.746  10.162  0.2329  0.0497 -0.0732
 5532TIP3    H140791   2.979   6.686  10.138 -0.4726 -0.5359 -0.7325
 5532TIP3    H240792   2.842   6.734  10.094 -0.4808  0.6334  0.4989
 5533TIP3   OH240793   5.466   2.190  10.291 -0.2213  0.9228  0.5619
 5533TIP3    H140794   5.393   2.191  10.353  0.0445  2.4690  0.8942
 5533TIP3    H240795   5.505   2.277  10.299  0.8891  0.5513 -0.5274
 5534TIP3   OH240796   0.501   4.986  12.469  0.3436 -0.5822  0.6963
 5534TIP3    H140797   0.473   5.043  12.396 -0.8093  0.3515  1.8190
 5534TIP3    H240798   0.597   4.986  12.464  0.4191  1.8525  0.9059
 5535TIP3   OH240799   2.295   2.210  12.176  0.1740  0.3852  0.0597
 5535TIP3    H140800   2.262   2.275  12.238  0.8119 -0.1990  1.0368
 5535TIP3    H240801   2.221   2.151  12.161 -0.6392  1.7037 -1.3916
 5536TIP3   OH240802   3.191   1.858   9.627  0.2623  0.2194 -0.3704
 5536TIP3    H140803   3.175   1.840   9.719 -0.8465  1.6678 -0.2443
 5536TIP3    H240804   3.263   1.922   9.628  1.8158 -1.4517 -0.6486
 5537TIP3   OH240805   2.994   0.152  10.176  0.4083  0.3188  0.3484
 5537TIP3    H140806   2.970   0.244  10.189 -0.4560  0.0313  0.8893
 5537TIP3    H240807   3.005   0.118  10.264 -1.3032 -0.5998  0.2463
 5538TIP3   OH240808   2.234   0.447   9.949 -0.0292 -0.0541  0.0033
 5538TIP3    H140809   2.173   0.492  10.007  0.6557 -0.1949  0.8413
 5538TIP3    H240810   2.190   0.364   9.928  0.0912 -0.3752  1.0029
 5539TIP3   OH240811   6.477   0.907  13.117 -0.0162  0.3021  0.2482
 5539TIP3    H140812   6.438   0.885  13.032 -0.1198  1.4053 -0.0136
 5539TIP3    H240813   6.419   0.867  13.182 -0.2788 -0.0343 -0.1866
 5540TIP3   OH240814   0.137   4.407  11.215 -0.0984  0.1782  0.2896
 5540TIP3    H140815   0.113   4.360  11.295 -2.9918 -2.8786 -2.0868
 5540TIP3    H240816   0.208   4.355  11.177 -0.1385  0.4375 -0.1420
 5541TIP3   OH240817   1.682   2.930   9.576  0.4943  0.3856  0.4173
 5541TIP3    H140818   1.675   2.981   9.495  0.3547  0.2315  0.3302
 5541TIP3    H240819   1.726   2.988   9.638  0.9080  0.3878  0.1273
 5542TIP3   OH240820   1.197   2.968  12.746  0.0840  0.7615 -0.0469
 5542TIP3    H140821   1.136   2.894  12.738  2.1519 -0.9937 -0.3248
 5542TIP3    H240822   1.140   3.044  12.761 -2.1849 -0.7003 -0.7157
 5543TIP3   OH240823   3.911   6.416  11.137 -0.2222  0.3882 -0.0039
 5543TIP3    H140824   4.000   6.446  11.123  0.2912 -0.9256  0.2974
 5543TIP3    H240825   3.862   6.450  11.062  0.6247  0.7237 -0.4167
 5544TIP3   OH240826   2.302   1.540  11.842  0.0050 -0.4296 -0.7090
 5544TIP3    H140827   2.308   1.506  11.932 -0.7634  0.6365 -0.2344
 5544TIP3    H240828   2.241   1.479  11.799 -0.4680 -0.3370 -0.1927
 5545TIP3   OH240829   5.302   2.826  11.469  0.3844  0.0322 -0.1617
 5545TIP3    H140830   5.230   2.789  11.520  1.7057 -2.9340 -0.2173
 5545TIP3    H240831   5.333   2.899  11.522 -1.8093  0.6015  0.4707
 5546TIP3   OH240832   2.303   6.811  10.447  0.1401 -0.0457  0.6606
 5546TIP3    H140833   2.380   6.805  10.503  0.8096  0.0907 -0.2165
 5546TIP3    H240834   2.295   6.905  10.427  1.6248 -0.3235 -1.7177
 5547TIP3   OH240835   1.450   2.626  10.629  0.0535  0.4964  0.4119
 5547TIP3    H140836   1.416   2.647  10.542  0.4359 -0.0316  0.1314
 5547TIP3    H240837   1.545   2.631  10.620  0.1481 -0.8919  0.4496
 5548TIP3   OH240838   0.765   2.567  11.560 -0.1664  0.0138 -0.0278
 5548TIP3    H140839   0.763   2.563  11.465 -1.2724  1.7903 -0.1353
 5548TIP3    H240840   0.675   2.588  11.585  0.2875  0.4550  1.3354
 5549TIP3   OH240841   0.057   3.200   9.592  0.4063 -0.3015  0.1181
 5549TIP3    H140842   0.135   3.176   9.642  0.0371  1.2093  1.5014
 5549TIP3    H240843   0.052   3.295   9.599 -0.1447 -0.1093 -2.1447
 5550TIP3   OH240844   1.002   5.762   9.666  0.2335  0.2690 -0.0387
 5550TIP3    H140845   1.009   5.798   9.578 -1.0892 -0.1986 -0.3634
 5550TIP3    H240846   0.937   5.818   9.710  0.2262 -0.0370  0.3472
 5551TIP3   OH240847   2.817   3.437  11.288 -0.6014 -0.6095  0.2651
 5551TIP3    H140848   2.904   3.451  11.251 -1.2438  0.4152 -0.9302
 5551TIP3    H240849   2.815   3.493  11.366 -1.1850  1.7862 -1.3662
 5552TIP3   OH240850   2.794   1.525  11.191 -0.1098 -0.2747 -1.1977
 5552TIP3    H140851   2.829   1.493  11.273 -0.9016 -0.6339 -0.9887
 5552TIP3    H240852   2.835   1.471  11.124 -0.7773 -1.1688 -0.9074
 5553TIP3   OH240853   0.692   4.126  11.944 -0.1017 -0.1210 -0.4796
 5553TIP3    H140854   0.678   4.157  12.033  0.8108 -1.2217  0.0741
 5553TIP3    H240855   0.757   4.185  11.907 -0.7536  0.5603 -0.5562
 5554TIP3   OH240856   6.163   4.637  12.209 -0.3973 -0.1184 -0.4485
 5554TIP3    H140857   6.148   4.565  12.148 -0.1940 -0.8253  0.3127
 5554TIP3    H240858   6.193   4.710  12.154 -0.9658 -0.4931 -1.2749
 5555TIP3   OH240859   5.074   1.562   9.610 -0.3228  0.3411 -0.3500
 5555TIP3    H140860   5.013   1.526   9.674 -0.4391 -1.8568 -1.5871
 5555TIP3    H240861   5.154   1.581   9.659 -1.1141  0.7705  0.7996
 5556TIP3   OH240862   2.616   2.186  10.227 -0.2202 -0.0494 -0.1698
 5556TIP3    H140863   2.657   2.191  10.141  0.1028 -1.0234 -0.0858
 5556TIP3    H240864   2.634   2.097  10.257 -2.2452 -0.4624 -0.0584
 5557TIP3   OH240865   3.113   2.128   9.962 -0.0508  0.1712  0.0094
 5557TIP3    H140866   3.194   2.093   9.998  0.9800  3.1733  0.9232
 5557TIP3    H240867   3.137   2.158   9.874 -0.2226  0.8296  0.1812
 5558TIP3   OH240868   2.042   6.541  10.202 -0.2104  0.9624 -0.2525
 5558TIP3    H140869   2.005   6.486  10.272 -1.4430  1.7482 -0.2585
 5558TIP3    H240870   2.028   6.491  10.122  0.8223  0.2489 -0.0165
 5559TIP3   OH240871   7.286   7.299  11.630 -0.2108 -0.4619  0.2194
 5559TIP3    H140872   7.282   7.239  11.556 -0.6625 -0.2546  0.0748
 5559TIP3    H240873   7.292   7.243  11.707 -5.4566 -0.9717  0.5778
 5560TIP3   OH240874   6.326   3.143  11.375  0.0061  0.3667  0.2134
 5560TIP3    H140875   6.385   3.213  11.345 -1.5138  1.2914 -0.7449
 5560TIP3    H240876   6.379   3.092  11.437  1.8918  0.9812 -0.8110
 5561TIP3   OH240877   4.656   0.010  11.570 -0.1160  0.2126 -0.4708
 5561TIP3    H140878   4.699   0.000  11.655 -0.5902  0.8867 -0.1409
 5561TIP3    H240879   4.664   0.103  11.549  0.7509 -0.0947 -1.5832
 5562TIP3   OH240880   6.876   3.212  10.097  0.0679  0.1864 -0.5070
 5562TIP3    H140881   6.896   3.121  10.117  2.9926  1.2895  2.4029
 5562TIP3    H240882   6.798   3.232  10.149 -0.3358 -0.4751 -0.8333
 5563TIP3   OH240883   4.696   6.239  11.067 -0.0155 -0.8543  0.1033
 5563TIP3    H140884   4.757   6.253  10.995 -1.0815  3.1115 -0.2641
 5563TIP3    H240885   4.741   6.274  11.144 -1.2085  0.8799  0.0727
 5564TIP3   OH240886   3.669   4.658  12.421  0.5238  0.2545 -0.5332
 5564TIP3    H140887   3.713   4.595  12.479  1.4402  1.7481  0.4695
 5564TIP3    H240888   3.576   4.640  12.432  0.7660 -1.2555 -0.6796
 5565TIP3   OH240889   5.752   1.827  11.036  0.1376  0.9788  0.3423
 5565TIP3    H140890   5.739   1.790  11.123 -1.0300 -1.1546 -0.6787
 5565TIP3    H240891   5.670   1.871  11.016  0.0698  0.6622 -0.0643
 5566TIP3   OH240892   0.809   7.074  11.467  0.0789  0.1437  0.0396
 5566TIP3    H140893   0.842   7.030  11.388 -0.5085  1.4218 -0.9463
 5566TIP3    H240894   0.805   7.004  11.532 -0.1775 -1.1294 -1.2711
 5567TIP3   OH240895   2.553   5.367  11.059 -0.2058  0.3025 -0.2415
 5567TIP3    H140896   2.569   5.423  10.983 -0.6646 -0.0581 -0.6125
 5567TIP3    H240897   2.541   5.429  11.131  2.0057  0.6079 -0.0825
 5568TIP3   OH240898   4.084   6.604  12.280 -0.2147 -0.6940  0.1344
 5568TIP3    H140899   3.998   6.580  12.316 -0.2870  1.4030  1.5297
 5568TIP3    H240900   4.145   6.552  12.332 -0.5616 -1.2196  0.0318
 5569TIP3   OH240901   1.554   3.089  10.910  0.7401 -0.1628 -0.1741
 5569TIP3    H140902   1.491   3.037  10.860 -0.6846  0.3891  0.9661
 5569TIP3    H240903   1.565   3.041  10.992  1.3822  0.0445 -0.1331
 5570TIP3   OH240904   1.354   7.141  12.525 -0.0848  0.1597 -0.0861
 5570TIP3    H140905   1.411   7.203  12.479 -1.3507  2.4264  1.2747
 5570TIP3    H240906   1.408   7.107  12.596  0.5438 -0.1877 -0.7102
 5571TIP3   OH240907   3.531   1.728  11.441 -0.8184  0.0332  0.5537
 5571TIP3    H140908   3.494   1.675  11.370  0.2004  0.5507 -0.4020
 5571TIP3    H240909   3.619   1.690  11.454 -0.3033  1.0989  0.2631
 5572TIP3   OH240910   4.269   3.393  11.244  0.3651  0.4762 -0.7860
 5572TIP3    H140911   4.298   3.313  11.288  2.5228  0.5061 -2.0300
 5572TIP3    H240912   4.175   3.381  11.232  0.2496 -0.8504  1.0772
 5573TIP3   OH240913   4.277   6.568  11.883  0.3200  0.1846 -0.7692
 5573TIP3    H140914   4.364   6.606  11.872  0.8088 -0.9910 -1.1650
 5573TIP3    H240915   4.291   6.473  11.878 -0.9156 -0.0500 -0.3432
 5574TIP3   OH240916   3.794   0.836  11.764 -0.0814 -0.7171 -0.4548
 5574TIP3    H140917   3.724   0.774  11.784  0.4096 -0.6138  2.0225
 5574TIP3    H240918   3.871   0.800  11.810 -0.2309  2.5373  2.8551
 5575TIP3   OH240919   2.433   6.872  11.226  0.2433 -0.3999  0.1441
 5575TIP3    H140920   2.406   6.902  11.139  0.1661  0.0833  0.3365
 5575TIP3    H240921   2.372   6.801  11.246  1.0256 -1.3574 -0.7220
 5576TIP3   OH240922   0.560   2.357  11.669  0.3692  0.5702  0.3116
 5576TIP3    H140923   0.488   2.330  11.612 -0.6575  0.6893  1.4966
 5576TIP3    H240924   0.636   2.361  11.612 -0.8660  1.9511 -1.3264
 5577TIP3   OH240925   2.742   5.090   9.439 -0.0200 -0.2947  0.1172
 5577TIP3    H140926   2.790   5.172   9.439  0.4523 -0.5619  0.3363
 5577TIP3    H240927   2.656   5.111   9.475  0.0736  0.1122  0.0984
 5578TIP3   OH240928   2.080   2.065  12.197 -0.6580 -0.1941 -0.2111
 5578TIP3    H140929   1.989   2.040  12.181 -1.1263  0.5085  1.1808
 5578TIP3    H240930   2.103   2.023  12.279  0.5576 -1.0023 -0.9399
 5579TIP3   OH240931   7.062   3.225  11.360  0.3475 -0.0026 -0.0047
 5579TIP3    H140932   6.972   3.259  11.359  0.3359  0.0167 -1.9541
 5579TIP3    H240933   7.081   3.206  11.269  1.8965 -1.2148  0.5308
 5580TIP3   OH240934   0.795   7.409  11.982 -0.1864 -0.5208  0.3816
 5580TIP3    H140935   0.866   7.358  12.020  0.5237  0.6423  0.6478
 5580TIP3    H240936   0.744   7.440  12.056  0.6465  0.9467  0.3783
 5581TIP3   OH240937   1.204   1.644  11.708  0.0282 -0.6039 -0.2063
 5581TIP3    H140938   1.198   1.566  11.763  0.1557 -1.0341 -0.7884
 5581TIP3    H240939   1.124   1.693  11.727  1.0742  0.4003  2.0291
 5582TIP3   OH240940   3.248   6.864  11.878 -0.0347 -0.2335  0.4647
 5582TIP3    H140941   3.195   6.785  11.873 -0.7118  0.2343  0.1838
 5582TIP3    H240942   3.192   6.933  11.845  1.0055  0.1519 -0.5775
 5583TIP3   OH240943   2.701   0.843  12.636  0.3885  0.1415 -0.7308
 5583TIP3    H140944   2.782   0.793  12.642 -0.5050 -1.2071  1.3195
 5583TIP3    H240945   2.727   0.927  12.599  2.6288 -0.4368 -0.6135
 5584TIP3   OH240946   5.054   5.489  10.571 -0.5796 -0.2664  0.2520
 5584TIP3    H140947   5.026   5.519  10.657 -0.1299 -1.2957  0.7738
 5584TIP3    H240948   4.976   5.498  10.516 -0.8660  0.4066  0.7513
 5585TIP3   OH240949   2.227   1.001  10.520  0.5929 -0.4552 -0.2491
 5585TIP3    H140950   2.303   0.991  10.577  1.5250 -0.8536 -1.5056
 5585TIP3    H240951   2.206   0.912  10.493  0.2255 -0.2649 -0.5915
 5586TIP3   OH240952   2.786   1.037   9.821 -0.2198 -0.0117  0.1901
 5586TIP3    H140953   2.860   0.982   9.798  0.0807 -0.1212  1.3500
 5586TIP3    H240954   2.752   1.069   9.737  0.6325 -0.6088 -0.3932
 5587TIP3   OH240955   7.034   4.348  11.483  0.0765  0.0123  0.2530
 5587TIP3    H140956   7.023   4.432  11.439  1.8677 -0.3731 -0.9891
 5587TIP3    H240957   6.950   4.303  11.470 -0.9808  1.6250  1.1002
 5588TIP3   OH240958   1.715   4.975  10.731  0.2374  0.1962  0.6737
 5588TIP3    H140959   1.629   4.954  10.693  0.6035  0.5638 -0.4171
 5588TIP3    H240960   1.768   4.898  10.714  0.4510  0.4278  0.2536
 5589TIP3   OH240961   4.899   4.201  10.362 -0.2263 -0.0501  0.0893
 5589TIP3    H140962   4.877   4.294  10.366  0.1205  0.0642 -0.5034
 5589TIP3    H240963   4.851   4.169  10.286 -1.2179 -0.6071  0.9306
 5590TIP3   OH240964   3.088   4.548  12.482 -0.1519 -0.3254 -0.4402
 5590TIP3    H140965   3.036   4.528  12.405  0.1813 -1.3532 -0.4075
 5590TIP3    H240966   3.161   4.487  12.478  1.3955  1.4508 -0.7953
 5591TIP3   OH240967   7.027   6.210  10.942 -0.2626 -0.1377 -0.0117
 5591TIP3    H140968   7.054   6.299  10.965  0.6042 -0.8021  1.7212
 5591TIP3    H240969   7.100   6.175  10.891 -0.9247  0.3672 -1.3375
 5592TIP3   OH240970   2.242   3.959  10.997 -0.2850 -0.4810 -0.4132
 5592TIP3    H140971   2.281   4.032  10.950 -0.4137 -1.0148 -1.3837
 5592TIP3    H240972   2.205   3.998  11.077  2.7016 -0.0385  0.8606
 5593TIP3   OH240973   4.748   2.941  10.863 -0.3116  0.1738 -0.0493
 5593TIP3    H140974   4.821   2.968  10.920  1.0648 -0.4295 -1.4396
 5593TIP3    H240975   4.762   2.847  10.850 -2.3820 -0.3344  1.0386
 5594TIP3   OH240976   4.410   0.334  10.884 -0.4023 -0.0784 -0.3498
 5594TIP3    H140977   4.488   0.307  10.835 -1.0250  0.2012 -1.5451
 5594TIP3    H240978   4.338   0.319  10.823 -1.4854 -1.7725  1.2519
 5595TIP3   OH240979   6.354   2.877  10.357 -0.3075  0.0517 -0.3555
 5595TIP3    H140980   6.366   2.802  10.299 -2.7942 -0.3266 -0.4972
 5595TIP3    H240981   6.260   2.897  10.351 -0.5250  0.5378  2.8687
 5596TIP3   OH240982   6.813   0.219   9.808 -0.1464 -0.1678 -0.2485
 5596TIP3    H140983   6.899   0.231   9.768  0.3806  0.9727  1.1174
 5596TIP3    H240984   6.795   0.302   9.851 -1.9676 -0.3776 -0.5142
 5597TIP3   OH240985   3.412   3.394  10.544  0.3650 -0.0050  0.4220
 5597TIP3    H140986   3.330   3.349  10.561  0.8739 -1.0853  0.1286
 5597TIP3    H240987   3.471   3.326  10.511  1.7244  0.5095  1.6670
 5598TIP3   OH240988   3.092   4.405  10.090  0.5389 -0.3459  0.0686
 5598TIP3    H140989   3.172   4.453  10.069  0.2973  0.2053  0.3630
 5598TIP3    H240990   3.098   4.386  10.183 -1.4792  3.4038  1.2059
 5599TIP3   OH240991   2.239   2.110  10.700  0.3929 -0.4699 -0.1726
 5599TIP3    H140992   2.250   2.016  10.718 -0.6690 -0.6094 -0.1676
 5599TIP3    H240993   2.280   2.123  10.614  0.4967 -0.9457 -0.1983
 5600TIP3   OH240994   1.237   5.135   9.746  0.0857 -0.0531  0.0649
 5600TIP3    H140995   1.314   5.184   9.775  0.5175 -0.4302 -0.4117
 5600TIP3    H240996   1.273   5.055   9.706 -0.4110  0.7080 -2.0464
 5601TIP3   OH240997   6.886   0.113  11.481  0.6123  0.3695  0.1037
 5601TIP3    H140998   6.972   0.085  11.513  1.0792  0.5831 -0.9188
 5601TIP3    H240999   6.827   0.043  11.507  1.3609 -0.4924 -0.4423
 5602TIP3   OH241000   0.901   0.229   9.590  0.5095  0.0667 -0.0044
 5602TIP3    H141001   0.832   0.223   9.656 -0.6975 -0.9551 -1.2827
 5602TIP3    H241002   0.923   0.138   9.571  0.8757  0.3398 -0.9519
 5603TIP3   OH241003   3.456   3.440  10.811  0.2120 -0.0710 -0.1101
 5603TIP3    H141004   3.456   3.535  10.801 -1.3459 -0.0434 -0.0277
 5603TIP3    H241005   3.449   3.406  10.722  1.6577 -0.1649 -0.2227
 5604TIP3   OH241006   4.487   7.274  11.179 -0.5369  0.3782 -0.1990
 5604TIP3    H141007   4.453   7.362  11.162 -0.2135  0.5678  0.1167
 5604TIP3    H241008   4.541   7.254  11.102 -1.0095  0.2494 -0.5022
 5605TIP3   OH241009   3.135   0.111  11.400  0.2551  0.1756 -0.2441
 5605TIP3    H141010   3.130   0.170  11.325 -1.8188  0.1629 -0.2002
 5605TIP3    H241011   3.210   0.141  11.451  0.9109  0.9899 -1.6565
 5606TIP3   OH241012   1.107   3.386  10.871  0.4075 -0.8561  0.1596
 5606TIP3    H141013   1.184   3.352  10.823  0.1241  0.3925 -1.2453
 5606TIP3    H241014   1.135   3.472  10.903  0.6335 -1.7148  2.4508
 5607TIP3   OH241015   4.852   0.292   9.926  0.5406 -0.6228  0.2484
 5607TIP3    H141016   4.924   0.262   9.981  0.4523 -0.8716  0.2278
 5607TIP3    H241017   4.776   0.297   9.984  0.6793  0.1052  0.3802
 5608TIP3   OH241018   3.325   4.534  10.024 -0.1299  0.1743 -0.2765
 5608TIP3    H141019   3.302   4.615  10.069 -0.4195 -0.4067  0.6349
 5608TIP3    H241020   3.418   4.522  10.042 -0.1123  0.2431 -0.3207
 5609TIP3   OH241021   5.453   6.643  11.615 -0.1786 -0.3935 -0.0839
 5609TIP3    H141022   5.501   6.681  11.688  0.2881  0.0153 -0.5985
 5609TIP3    H241023   5.516   6.588  11.570 -0.5950 -1.0325  0.0960
 5610TIP3   OH241024   3.860   3.381   9.645 -0.6411  0.0688 -0.0477
 5610TIP3    H141025   3.776   3.426   9.639 -1.1880 -0.5425  2.1527
 5610TIP3    H241026   3.918   3.444   9.687  0.2325  0.7139 -2.1080
 5611TIP3   OH241027   0.798   5.444  10.893  0.0095  0.1999  0.1105
 5611TIP3    H141028   0.882   5.485  10.915  0.0373 -0.4020  1.2063
 5611TIP3    H241029   0.773   5.396  10.972 -1.5441  0.6533 -0.0620
 5612TIP3   OH241030   4.333   7.386  11.938 -0.4820 -0.6886  0.1089
 5612TIP3    H141031   4.260   7.447  11.929 -0.3261 -0.7651 -2.0615
 5612TIP3    H241032   4.295   7.310  11.981 -1.2674 -0.0581  0.5584
 5613TIP3   OH241033   4.298   3.662   9.986 -0.5745  0.2002 -0.0336
 5613TIP3    H141034   4.347   3.744   9.987 -2.3813  1.3929 -1.5971
 5613TIP3    H241035   4.233   3.672  10.055 -0.6172 -0.0379 -0.0394
 5614TIP3   OH241036   5.644   1.119  10.952  0.1700  0.3749 -0.4444
 5614TIP3    H141037   5.551   1.131  10.973  0.2816  2.2744 -0.8773
 5614TIP3    H241038   5.689   1.134  11.035  0.0971 -1.1489 -0.0931
 5615TIP3   OH241039   3.883   5.490  10.556 -0.0273  0.4709  0.1174
 5615TIP3    H141040   3.870   5.579  10.523  0.4402  0.5627  0.1747
 5615TIP3    H241041   3.975   5.470  10.536 -0.3401 -0.3062 -0.6472
 5616TIP3   OH241042   2.391   6.722   9.957  0.0905 -0.1987 -0.2765
 5616TIP3    H141043   2.372   6.634   9.989  0.7967 -0.5944 -0.9222
 5616TIP3    H241044   2.329   6.778  10.003  0.4640 -0.8715  1.0910
 5617TIP3   OH241045   4.835   1.679  11.539 -0.2682 -0.4168  0.4525
 5617TIP3    H141046   4.751   1.710  11.505  0.2321  1.6391  0.9470
 5617TIP3    H241047   4.893   1.755  11.533  1.2089 -1.4182  1.3158
 5618TIP3   OH241048   4.800   3.189  11.782 -0.0425 -0.3936  0.3749
 5618TIP3    H141049   4.883   3.162  11.742 -0.6302 -1.1328 -0.3998
 5618TIP3    H241050   4.809   3.165  11.874  0.6508 -0.3520  0.3236
 5619TIP3   OH241051   6.427   4.957  11.227 -0.1246 -0.0678 -0.3852
 5619TIP3    H141052   6.332   4.951  11.232 -0.0826 -0.6437 -0.1702
 5619TIP3    H241053   6.457   4.941  11.317  0.2492 -1.7001 -0.7600
 5620TIP3   OH241054   1.453   0.063  11.800  0.1910 -0.5873 -0.4866
 5620TIP3    H141055   1.402   0.133  11.760 -0.6819 -0.6651  0.4673
 5620TIP3    H241056   1.496   0.019  11.726  1.0343  1.1482 -1.0740
 5621TIP3   OH241057   7.276   6.996  10.746  0.5716 -0.0391  0.4182
 5621TIP3    H141058   7.327   6.917  10.725 -0.5824 -0.8356  0.5124
 5621TIP3    H241059   7.188   6.963  10.764 -0.5604  1.4943 -1.8511
 5622TIP3   OH241060   0.697   5.979  12.240  0.5167 -0.5429  0.0626
 5622TIP3    H141061   0.731   6.048  12.298 -0.1808  0.3796 -0.5857
 5622TIP3    H241062   0.643   5.925  12.297 -0.1562  0.3436  0.2920
 5623TIP3   OH241063   4.729   1.249   9.346  0.4489  0.0857  0.5222
 5623TIP3    H141064   4.706   1.253   9.253  5.3043  0.8045 -0.9067
 5623TIP3    H241065   4.734   1.156   9.365 -2.8063 -0.1330  0.9110
 5624TIP3   OH241066   2.212   6.819  11.546  0.3793  0.0963 -0.1723
 5624TIP3    H141067   2.197   6.796  11.454  0.5348  0.5797 -0.3215
 5624TIP3    H241068   2.296   6.779  11.568 -0.3567 -1.2898  0.2041
 5625TIP3   OH241069   3.706   0.888   9.798  0.1595 -0.0569  0.6383
 5625TIP3    H141070   3.718   0.801   9.760  2.5995 -0.8775  2.9862
 5625TIP3    H241071   3.682   0.872   9.889 -0.2669  1.7439  0.8866
 5626TIP3   OH241072   6.196   6.479   9.998  0.1496  0.4106  0.1461
 5626TIP3    H141073   6.164   6.409  10.054 -0.1226  0.4617  0.0553
 5626TIP3    H241074   6.147   6.557  10.026  0.6947  0.6395  0.4802
 5627TIP3   OH241075   2.466   5.968   9.538  0.5707 -0.2666 -0.6001
 5627TIP3    H141076   2.551   5.993   9.575 -0.1360  1.1059  0.1543
 5627TIP3    H241077   2.432   5.902   9.599  0.4354  0.2785 -0.0831
 5628TIP3   OH241078   0.031   2.916  10.819 -0.2421 -0.2300  0.0839
 5628TIP3    H141079   0.037   2.840  10.876 -0.2178 -0.5855 -0.3918
 5628TIP3    H241080   0.098   2.903  10.752  1.2982  1.2916  1.2380
 5629TIP3   OH241081   6.109   1.234  11.811  0.5136  0.0837 -0.2383
 5629TIP3    H141082   6.168   1.217  11.738  2.0382 -0.3663  1.0620
 5629TIP3    H241083   6.052   1.157  11.815  1.3925 -0.5634 -0.0459
 5630TIP3   OH241084   4.101   4.045  12.246  0.0156 -0.0955  0.8222
 5630TIP3    H141085   4.139   4.133  12.249  1.0551 -0.5457  1.8608
 5630TIP3    H241086   4.045   4.045  12.169 -0.5833  1.7095  1.2081
 5631TIP3   OH241087   6.029   6.387  11.409  0.6453 -0.0901  0.7023
 5631TIP3    H141088   5.963   6.327  11.374  0.3299 -0.0994  1.3148
 5631TIP3    H241089   6.097   6.389  11.341  0.3950 -0.6960  0.4259
 5632TIP3   OH241090   4.184   1.219  10.252  0.2245 -0.3237 -0.2276
 5632TIP3    H141091   4.151   1.137  10.288  0.4800 -1.7317 -2.9428
 5632TIP3    H241092   4.110   1.279  10.254 -0.7895 -1.5335 -0.7552
 5633TIP3   OH241093   5.612   2.428  10.327  0.7953  0.5196 -0.4709
 5633TIP3    H141094   5.546   2.486  10.289 -0.8628  0.0726  1.5126
 5633TIP3    H241095   5.694   2.475  10.319  0.2780  1.1203 -3.0220
 5634TIP3   OH241096   0.348   6.097  10.089 -0.2123 -0.6118  0.0834
 5634TIP3    H141097   0.318   6.103   9.999 -3.7531 -1.2385  1.0602
 5634TIP3    H241098   0.420   6.160  10.095 -0.2956 -0.1018 -2.9756
 5635TIP3   OH241099   3.208   4.474   9.782  0.3582  0.3623 -0.0750
 5635TIP3    H141100   3.229   4.513   9.867  0.5596  0.8614 -0.3489
 5635TIP3    H241101   3.112   4.473   9.780  0.3515  0.0820  0.2748
 5636TIP3   OH241102   1.937   1.357  10.996 -0.1063 -0.3788  0.1418
 5636TIP3    H141103   1.945   1.261  10.997  0.4604 -0.3761 -1.1692
 5636TIP3    H241104   1.844   1.374  11.007  0.0052 -0.9903  2.4325
 5637TIP3   OH241105   1.875   7.403  12.277 -0.3282  0.6630  0.2089
 5637TIP3    H141106   1.915   7.488  12.292 -1.7063  1.7035 -1.5407
 5637TIP3    H241107   1.785   7.412  12.310 -0.1008 -0.5936  1.2568
 5638TIP3   OH241108   4.995   5.564  11.072 -0.8360  0.3946 -0.8245
 5638TIP3    H141109   4.924   5.521  11.120 -0.4266  0.7311  0.1056
 5638TIP3    H241110   5.013   5.643  11.123  1.5706 -0.6778  0.1386
 5639TIP3   OH241111   1.171   0.778  11.099 -0.3632  0.0225 -0.3508
 5639TIP3    H141112   1.199   0.688  11.079 -0.8854 -0.1984 -0.1082
 5639TIP3    H241113   1.094   0.792  11.044 -1.6400 -0.4907  1.2069
 5640TIP3   OH241114   3.561   5.730  12.042  0.2886 -0.1522 -0.2175
 5640TIP3    H141115   3.533   5.763  11.957  0.5496  0.6626  0.0020
 5640TIP3    H241116   3.594   5.807  12.088  2.4571 -0.9802 -0.2803
 5641TIP3   OH241117   1.447   3.531  10.247 -0.0453  0.1430  0.1002
 5641TIP3    H141118   1.524   3.577  10.213  0.2295  0.3417  0.9794
 5641TIP3    H241119   1.444   3.449  10.197 -0.0154  0.6958 -0.8416
 5642TIP3   OH241120   5.933   7.067  12.597  0.4499 -1.0082  0.3767
 5642TIP3    H141121   6.021   7.105  12.593  0.6945 -1.4925  0.9032
 5642TIP3    H241122   5.909   7.072  12.690 -0.4060 -0.1617  0.1184
 5643TIP3   OH241123   1.566   6.912  12.431  0.1035  0.1694  0.0342
 5643TIP3    H141124   1.655   6.909  12.464 -0.0610 -1.3084  0.4228
 5643TIP3    H241125   1.519   6.846  12.483 -1.3616  1.3567  0.2680
 5644TIP3   OH241126   6.271   6.942  10.360 -0.4877 -0.1953 -0.3775
 5644TIP3    H141127   6.340   6.897  10.312 -0.4943  1.5950 -2.2464
 5644TIP3    H241128   6.317   7.009  10.411 -0.5682 -1.4918  1.4868
 5645TIP3   OH241129   5.713   1.806   9.740  0.3538  0.1087 -0.3185
 5645TIP3    H141130   5.756   1.721   9.754  0.8677  0.4317  0.0954
 5645TIP3    H241131   5.782   1.870   9.757 -0.3650  0.6504  0.6443
 5646TIP3   OH241132   1.152   2.169  10.009  0.0840  0.1130 -1.0256
 5646TIP3    H141133   1.183   2.243  10.061 -0.1332 -1.2056  1.0930
 5646TIP3    H241134   1.057   2.182  10.002 -0.2678 -0.8833  1.0460
 5647TIP3   OH241135   6.589   4.891  11.009  0.2157  0.1193  0.6362
 5647TIP3    H141136   6.593   4.970  10.956  1.7971 -0.3776 -0.0390
 5647TIP3    H241137   6.531   4.914  11.082  0.1199  1.6693  0.1117
 5648TIP3   OH241138   4.170   6.979  10.090  0.0174 -0.3048 -0.0327
 5648TIP3    H141139   4.177   7.072  10.067 -0.2818 -0.3226 -0.2039
 5648TIP3    H241140   4.079   6.968  10.117 -0.5178 -0.9743 -1.9718
 5649TIP3   OH241141   2.059   4.823  11.519  0.7719 -0.0182 -0.2205
 5649TIP3    H141142   2.012   4.743  11.496 -2.5221  1.2504  1.5052
 5649TIP3    H241143   2.069   4.869  11.435 -1.0061 -0.4245 -0.7022
 5650TIP3   OH241144   3.183   2.925  11.381  0.7262  0.2946 -0.1350
 5650TIP3    H141145   3.088   2.936  11.391  0.7463  2.3655 -1.6535
 5650TIP3    H241146   3.195   2.892  11.292  1.3984 -1.7115  0.6342
 5651TIP3   OH241147   5.092   6.857  11.329  0.0644 -0.0659 -0.2996
 5651TIP3    H141148   5.129   6.921  11.269  0.4229 -0.5551 -0.6072
 5651TIP3    H241149   5.003   6.888  11.346  0.0648  0.2383 -0.8470
 5652TIP3   OH241150   1.573   0.585  10.832 -0.1772 -0.3023  0.2738
 5652TIP3    H141151   1.654   0.596  10.882  0.2139 -1.5302 -0.0633
 5652TIP3    H241152   1.575   0.494  10.803  0.0883  0.5757 -2.8044
 5653TIP3   OH241153   2.697   6.497  11.343 -0.0252  0.6882 -0.1143
 5653TIP3    H141154   2.780   6.453  11.364 -0.0198  0.1335 -1.2666
 5653TIP3    H241155   2.723   6.587  11.322  0.2065  0.6811  0.1240
 5654TIP3   OH241156   6.610   0.696  12.378 -0.2164  0.4934  0.4158
 5654TIP3    H141157   6.584   0.613  12.418  1.6169 -0.8122 -0.9083
 5654TIP3    H241158   6.610   0.759  12.450  0.8440 -1.2383  2.0032
 5655TIP3   OH241159   0.709   4.347  10.832 -0.1661 -0.6172  0.1651
 5655TIP3    H141160   0.622   4.337  10.793  0.3977 -0.1141 -1.2810
 5655TIP3    H241161   0.737   4.434  10.806  1.4189 -1.3562 -0.7894
 5656TIP3   OH241162   5.596   5.586  11.088  0.0342  0.5694  0.9385
 5656TIP3    H141163   5.571   5.586  10.995 -0.9344  2.7570  1.1367
 5656TIP3    H241164   5.530   5.531  11.130 -0.2345  0.5395  0.4920
 5657TIP3   OH241165   7.004   3.557  11.540  0.2143 -0.1596  0.0884
 5657TIP3    H141166   6.997   3.633  11.483  1.5939 -0.2121 -0.1839
 5657TIP3    H241167   6.914   3.539  11.567 -0.1559  1.4476  0.0224
 5658TIP3   OH241168   0.276   6.713  11.852 -0.2054 -0.0384 -0.1802
 5658TIP3    H141169   0.255   6.690  11.943 -0.8912 -0.8871 -0.5339
 5658TIP3    H241170   0.315   6.800  11.858 -1.5456  0.5233  0.7835
 5659TIP3   OH241171   3.143   5.673   9.948  0.2246 -0.0454  0.0954
 5659TIP3    H141172   3.196   5.722  10.010 -0.6500  0.2147  0.6678
 5659TIP3    H241173   3.157   5.716   9.864  1.3608 -0.3508  0.1222
 5660TIP3   OH241174   5.576   3.465  11.454 -0.0120 -0.2552 -0.7002
 5660TIP3    H141175   5.554   3.408  11.380 -1.0896 -0.1938 -0.4446
 5660TIP3    H241176   5.501   3.524  11.462  0.4863  0.3131 -0.1072
 5661TIP3   OH241177   2.799   2.345  11.371 -0.4605 -0.0728  0.3712
 5661TIP3    H141178   2.782   2.294  11.450  0.9371 -0.1586  0.6345
 5661TIP3    H241179   2.894   2.357  11.369 -0.4261 -0.3177 -1.4509
 5662TIP3   OH241180   3.348   1.615   9.583 -0.4211 -0.1610 -0.2223
 5662TIP3    H141181   3.301   1.697   9.593 -0.2610 -0.1903  0.8663
 5662TIP3    H241182   3.346   1.575   9.670  0.2061 -0.9256 -0.5440
 5663TIP3   OH241183   2.467   0.828  10.050 -0.0691 -0.1611  0.5011
 5663TIP3    H141184   2.431   0.814  10.138 -1.1009 -0.8139  0.0003
 5663TIP3    H241185   2.554   0.790  10.053 -0.5426 -1.2519  0.9217
 5664TIP3   OH241186   5.952   1.997  10.727 -0.0706 -0.1924 -0.1290
 5664TIP3    H141187   5.967   2.091  10.715 -1.1653 -0.2103 -2.2119
 5664TIP3    H241188   5.975   1.958  10.643 -0.1775 -1.7249  0.5162
 5665TIP3   OH241189   0.796   2.785  11.287 -0.1545 -0.5825  0.1200
 5665TIP3    H141190   0.769   2.874  11.263  0.9576 -0.2233  0.1303
 5665TIP3    H241191   0.790   2.736  11.205  0.2435 -0.2278 -0.1257
 5666TIP3   OH241192   3.333   6.995  10.930 -0.3585 -0.2245 -0.7763
 5666TIP3    H141193   3.316   6.904  10.906 -1.2949  0.0203 -1.0763
 5666TIP3    H241194   3.349   7.038  10.846  0.3723 -0.1678 -0.6108
 5667TIP3   OH241195   1.677   3.949  11.856  0.1323 -0.3920  0.6002
 5667TIP3    H141196   1.612   3.898  11.808 -1.0254  2.0091 -0.5164
 5667TIP3    H241197   1.747   3.964  11.793  0.0546  0.1327  0.6370
 5668TIP3   OH241198   1.107   1.993  10.259 -0.5957 -0.2389 -0.1546
 5668TIP3    H141199   1.146   2.032  10.180  0.6329 -0.2066  0.4312
 5668TIP3    H241200   1.159   2.030  10.331  1.8517 -4.1726  0.4047
 5669TIP3   OH241201   5.070   3.124  10.277  0.5720 -0.4411 -0.1349
 5669TIP3    H141202   5.143   3.067  10.254  0.6807 -0.9087  1.2964
 5669TIP3    H241203   4.992   3.068  10.270  0.4433 -0.2062 -0.6895
 5670TIP3   OH241204   4.292   1.653  11.091  0.1873 -0.4729  0.4289
 5670TIP3    H141205   4.351   1.648  11.015  0.1421 -0.8010  0.4156
 5670TIP3    H241206   4.206   1.632  11.055 -0.3468  2.0570  0.0065
 5671TIP3   OH241207   5.058   0.656  11.146  0.0260  0.2982  0.3327
 5671TIP3    H141208   5.028   0.595  11.078 -0.1350 -0.0351  0.7042
 5671TIP3    H241209   5.084   0.734  11.097  2.0542 -0.7422 -0.3591
 5672TIP3   OH241210   1.130   5.149  12.191 -0.2671 -0.0921 -0.3689
 5672TIP3    H141211   1.050   5.175  12.236 -0.4191 -0.9799 -0.0944
 5672TIP3    H241212   1.101   5.083  12.128  0.1270  0.2296 -0.8957
 5673TIP3   OH241213   5.579   6.603  12.099  0.1410  0.5830 -0.1375
 5673TIP3    H141214   5.550   6.517  12.069 -1.7093  0.5375  1.5276
 5673TIP3    H241215   5.563   6.602  12.193 -1.5489  3.2729 -0.2712
 5674TIP3   OH241216   2.869   0.811  11.217 -0.0659  0.3402 -0.0221
 5674TIP3    H141217   2.874   0.905  11.202  0.6334  0.3009 -0.0751
 5674TIP3    H241218   2.818   0.777  11.143  0.0079  0.6312 -0.2063
 5675TIP3   OH241219   2.096   2.167  11.318 -0.0767  0.0215  0.0421
 5675TIP3    H141220   2.130   2.171  11.228  0.4267  2.6779  0.2683
 5675TIP3    H241221   2.147   2.099  11.360  0.8546 -0.1113 -1.2403
 5676TIP3   OH241222   2.108   2.001   9.703  0.0055 -0.9736 -0.3959
 5676TIP3    H141223   2.167   2.025   9.774  0.7457  0.5132 -1.4496
 5676TIP3    H241224   2.038   1.951   9.745  1.3543 -1.6857  1.0700
 5677TIP3   OH241225   6.037   5.692  11.100  0.6754 -0.5139  0.2832
 5677TIP3    H141226   6.006   5.692  11.190  1.6617 -1.8342  0.6583
 5677TIP3    H241227   5.960   5.715  11.048 -0.3849 -1.5486  1.3285
 5678TIP3   OH241228   4.040   4.028  11.200 -0.6686  0.7482 -0.0228
 5678TIP3    H141229   4.036   4.053  11.108  0.4276  0.1241 -0.2527
 5678TIP3    H241230   4.016   3.935  11.201 -0.6689  0.7496  0.3255
 5679TIP3   OH241231   1.271   5.515  12.483 -0.9394  0.0162 -0.0124
 5679TIP3    H141232   1.344   5.542  12.540  1.5569 -0.5651 -2.7101
 5679TIP3    H241233   1.282   5.567  12.403 -0.9653 -2.9284 -2.0835
 5680TIP3   OH241234   0.224   0.218   9.738 -0.1399 -0.1599 -0.5558
 5680TIP3    H141235   0.210   0.163   9.815  0.5486 -1.3188 -1.2328
 5680TIP3    H241236   0.318   0.212   9.721  0.0307  1.5854 -0.4077
 5681TIP3   OH241237   6.461   6.512   9.887 -0.2872 -0.4085 -0.0574
 5681TIP3    H141238   6.444   6.559   9.969  0.1425 -0.5168  0.0934
 5681TIP3    H241239   6.380   6.465   9.870 -0.4551 -0.2162  0.1915
 5682TIP3   OH241240   4.557   3.507  12.364  0.3128 -0.2841  0.1045
 5682TIP3    H141241   4.472   3.525  12.404  0.2499 -0.8711  0.2457
 5682TIP3    H241242   4.539   3.438  12.300  0.8277 -1.0098  0.7330
 5683TIP3   OH241243   0.881   2.021  11.622  0.2796  0.4117 -0.4046
 5683TIP3    H141244   0.819   2.009  11.551  1.6255 -0.1286 -1.5392
 5683TIP3    H241245   0.967   2.023  11.579  1.0113  1.8616  1.0350
 5684TIP3   OH241246   5.781   0.943  10.512  0.4917  0.0323 -0.1623
 5684TIP3    H141247   5.712   0.987  10.561  0.4636  0.6942 -0.7847
 5684TIP3    H241248   5.856   1.002  10.517  0.7357 -0.2628 -0.2578
 5685TIP3   OH241249   4.671   0.595  11.562 -0.5814 -0.2440 -0.0699
 5685TIP3    H141250   4.583   0.612  11.597  0.4391  1.4565  1.8660
 5685TIP3    H241251   4.727   0.590  11.640  1.2670  0.1515 -1.3241
 5686TIP3   OH241252   5.209   0.692  12.192 -0.4236 -0.1558 -0.5714
 5686TIP3    H141253   5.221   0.600  12.217 -2.8945 -0.0469  1.4069
 5686TIP3    H241254   5.171   0.688  12.105 -0.0980 -0.9863 -0.6909
 5687TIP3   OH241255   3.916   3.772  11.264 -0.4758 -0.3034  0.3254
 5687TIP3    H141256   3.944   3.681  11.263 -0.6206 -0.3517 -0.8462
 5687TIP3    H241257   3.866   3.781  11.345  0.5961 -0.9209  1.0852
 5688TIP3   OH241258   5.302   0.049  11.427 -0.2261 -0.1270 -0.4060
 5688TIP3    H141259   5.362   0.037  11.501 -2.1248  0.4915  1.3173
 5688TIP3    H241260   5.321   0.138  11.396 -1.4177  0.7873  1.3233
 5689TIP3   OH241261   2.264   1.699  11.048 -0.1881  0.1139  0.0694
 5689TIP3    H141262   2.254   1.604  11.053 -2.3265  0.3200  0.8886
 5689TIP3    H241263   2.329   1.713  10.979  1.7314 -1.9601  1.3378
 5690TIP3   OH241264   6.345   5.504  11.718  0.2998  0.0824 -0.4594
 5690TIP3    H141265   6.253   5.507  11.691  0.0941 -1.1892  0.0321
 5690TIP3    H241266   6.346   5.549  11.803 -0.0904 -0.9080  0.0814
 5691TIP3   OH241267   4.470   6.642  11.721 -0.2162  0.2304 -0.7058
 5691TIP3    H141268   4.561   6.642  11.751  0.1238  0.1204 -1.7076
 5691TIP3    H241269   4.460   6.558  11.675 -1.1578 -0.2635  0.3407
 5692TIP3   OH241270   6.790   6.358  11.628  0.3899 -0.2898  0.5339
 5692TIP3    H141271   6.871   6.310  11.647  1.4558  0.4602 -1.7978
 5692TIP3    H241272   6.814   6.450  11.638 -0.3932 -0.0862  0.5499
 5693TIP3   OH241273   5.425   6.856  12.119 -0.1233  0.1356  0.1260
 5693TIP3    H141274   5.346   6.845  12.172 -0.0967  1.6172  0.5239
 5693TIP3    H241275   5.460   6.768  12.110 -1.4103 -0.4563  0.5780
 5694TIP3   OH241276   7.431   5.425  10.133 -0.5419 -0.4197  0.5998
 5694TIP3    H141277   7.416   5.349  10.077 -1.0206 -0.2380  0.4740
 5694TIP3    H241278   7.355   5.481  10.118 -0.9018 -0.5598  1.7475
 5695TIP3   OH241279   4.793   6.730  10.356  0.0860 -0.5767 -0.6092
 5695TIP3    H141280   4.813   6.818  10.324 -0.2162 -0.3076 -0.0731
 5695TIP3    H241281   4.738   6.744  10.433 -0.1866 -1.2408 -0.6710
 5696TIP3   OH241282   0.126   5.466  11.789  0.0719  0.3505 -0.0782
 5696TIP3    H141283   0.173   5.389  11.822 -0.5154  0.3344  0.7400
 5696TIP3    H241284   0.067   5.431  11.722  1.2323  0.3761 -1.1517
 5697TIP3   OH241285   5.046   7.359  10.083 -0.2184 -0.2090  0.3236
 5697TIP3    H141286   4.961   7.363  10.127 -0.6206 -0.2212 -0.4436
 5697TIP3    H241287   5.026   7.332   9.993  0.5618  0.1514  0.0319
 5698TIP3   OH241288   5.111   1.298   9.821  0.0611  0.2508 -0.3089
 5698TIP3    H141289   5.131   1.374   9.874  1.8426 -0.2970 -0.1408
 5698TIP3    H241290   5.196   1.265   9.793 -0.7452 -0.6316 -1.8717
 5699TIP3   OH241291   4.866   2.411  11.095 -0.5457  0.0507  0.6432
 5699TIP3    H141292   4.791   2.469  11.079 -0.1726  0.2363 -0.4560
 5699TIP3    H241293   4.941   2.470  11.100 -0.2232 -0.2996 -0.0489
 5700TIP3   OH241294   2.082   5.969  10.850 -0.6108  0.1748 -0.2221
 5700TIP3    H141295   1.999   5.978  10.805 -0.0309  1.0366 -1.1616
 5700TIP3    H241296   2.102   5.875  10.846 -1.7134 -0.0992  0.3822
 5701TIP3   OH241297   6.980   0.197  10.362  0.0784  0.4196  0.0253
 5701TIP3    H141298   7.054   0.201  10.423 -0.7739 -3.1099  1.6010
 5701TIP3    H241299   6.903   0.193  10.418 -0.7429 -3.1736 -1.0891
 5702TIP3   OH241300   2.937   1.825  10.538 -0.4133  0.3479 -0.2928
 5702TIP3    H141301   2.955   1.908  10.495  0.7222  1.3882  1.9883
 5702TIP3    H241302   3.010   1.769  10.512 -0.2884  0.6202 -0.5341
 5703TIP3   OH241303   1.671   4.700  11.655  0.3991 -0.4649  0.4957
 5703TIP3    H141304   1.725   4.622  11.640  0.7387 -0.3981  1.3074
 5703TIP3    H241305   1.605   4.697  11.586  0.5695 -1.3313  0.3574
 5704TIP3   OH241306   1.901   4.202   9.919  0.6696 -0.0110  0.1132
 5704TIP3    H141307   1.919   4.240  10.005  0.7315 -0.3945  0.2720
 5704TIP3    H241308   1.805   4.195   9.915  0.6844 -0.2897  0.2782
 5705TIP3   OH241309   5.828   4.501  10.335  0.3378 -0.5802  0.0087
 5705TIP3    H141310   5.909   4.551  10.320 -0.1951  0.2329 -0.1834
 5705TIP3    H241311   5.759   4.555  10.299 -0.2514 -1.5236 -0.3189
 5706TIP3   OH241312   5.318   1.609  10.742  0.3779 -0.7725  0.2805
 5706TIP3    H141313   5.324   1.642  10.652 -0.5910 -0.0622  0.4579
 5706TIP3    H241314   5.398   1.558  10.754  1.1063  0.1314 -0.5748
 5707TIP3   OH241315   2.069   6.235  11.863 -0.3015  0.1421  0.1457
 5707TIP3    H141316   2.000   6.182  11.903 -0.3448 -1.4088 -1.7877
 5707TIP3    H241317   2.150   6.190  11.888 -0.2144  0.2000 -0.0303
 5708TIP3   OH241318   1.722   2.074  10.525 -0.2035 -0.3777  0.1252
 5708TIP3    H141319   1.810   2.112  10.519 -1.3098  3.1154  2.6254
 5708TIP3    H241320   1.668   2.127  10.467 -1.0770 -0.9475  0.3905
 5709TIP3   OH241321   0.945   6.827  10.856 -0.3818  0.5006  0.9941
 5709TIP3    H141322   0.943   6.872  10.772  1.2842 -1.1198 -0.0059
 5709TIP3    H241323   0.910   6.740  10.837  0.4193 -0.0289  1.8716
 5710TIP3   OH241324   1.092   6.181  10.290  0.1536 -0.4673  0.1045
 5710TIP3    H141325   1.058   6.259  10.333 -3.4954 -1.5998 -0.4319
 5710TIP3    H241326   1.129   6.129  10.362  0.4765  0.6788  0.7981
 5711TIP3   OH241327   2.700   0.172  10.445  0.5383  0.4294  0.3673
 5711TIP3    H141328   2.656   0.130  10.372  1.7793 -0.2765  0.0048
 5711TIP3    H241329   2.634   0.177  10.514  0.3566 -2.2781  0.4860
 5712TIP3   OH241330   5.771   6.583  10.289  0.0176  0.1990 -0.5342
 5712TIP3    H141331   5.751   6.675  10.274  1.9151  0.4332 -2.1207
 5712TIP3    H241332   5.770   6.544  10.201  1.4707 -0.7821 -0.1476
 5713TIP3   OH241333   6.727   1.516  11.006 -0.3489  0.5980  0.3997
 5713TIP3    H141334   6.777   1.560  10.938  0.7348  0.2592  0.9518
 5713TIP3    H241335   6.765   1.428  11.012 -0.1501  0.7401  1.6827
 5714TIP3   OH241336   1.082   6.758  11.763  0.0322 -0.1992  0.7612
 5714TIP3    H141337   1.089   6.755  11.668 -2.1709 -0.3896  0.5623
 5714TIP3    H241338   1.073   6.851  11.784  1.3050 -0.0899  0.8756
 5715TIP3   OH241339   4.373   3.389   9.998 -0.8578  0.4762 -0.1102
 5715TIP3    H141340   4.292   3.339  10.009 -0.5359 -0.1375 -0.4410
 5715TIP3    H241341   4.345   3.475   9.969 -1.4913  0.8482  1.4919
 5716TIP3   OH241342   3.158   1.426  10.085  0.2694 -0.7683 -0.3363
 5716TIP3    H141343   3.115   1.448  10.003 -0.1571 -0.0361  0.0664
 5716TIP3    H241344   3.175   1.332  10.080  1.5797 -0.4921 -1.8637
 5717TIP3   OH241345   1.924   6.108  12.942  0.9408 -0.7524  0.3626
 5717TIP3    H141346   1.983   6.143  12.875  0.2666  0.4908  0.3844
 5717TIP3    H241347   1.850   6.168  12.943 -0.0159 -1.9015  0.8218
 5718TIP3   OH241348   7.205   2.595  11.592 -0.1609  0.3543  0.2136
 5718TIP3    H141349   7.230   2.687  11.607 -1.4097  0.9826 -1.3345
 5718TIP3    H241350   7.111   2.593  11.608 -0.3225 -0.4313 -0.7457
 5719TIP3   OH241351   0.943   0.690  10.984  0.0605  0.3584 -0.5248
 5719TIP3    H141352   0.983   0.603  10.985 -0.8143 -0.0558  0.4207
 5719TIP3    H241353   0.851   0.674  11.007 -1.2521  1.0066 -4.4910
 5720TIP3   OH241354   1.289   6.879  10.373  0.0929 -0.0562  0.3976
 5720TIP3    H141355   1.320   6.789  10.366 -0.7382 -0.2848 -0.4705
 5720TIP3    H241356   1.252   6.884  10.461  0.0460 -0.5857  0.4104
 5721TIP3   OH241357   1.417   1.093  11.373 -0.0811 -0.5708 -0.5522
 5721TIP3    H141358   1.376   1.149  11.308  0.8341 -0.0551 -0.6919
 5721TIP3    H241359   1.393   1.132  11.457  1.2086  0.5321 -0.6622
 5722TIP3   OH241360   6.622   1.115  11.571  0.4790  0.0322 -0.1298
 5722TIP3    H141361   6.617   1.041  11.631 -0.6906  0.1529 -0.0614
 5722TIP3    H241362   6.667   1.081  11.494  1.9753 -0.1337  0.7670
 5723TIP3   OH241363   1.588   4.677   9.686 -0.1954  0.0665 -0.3508
 5723TIP3    H141364   1.657   4.736   9.716  0.1482 -1.0229  1.1196
 5723TIP3    H241365   1.635   4.598   9.659 -0.6743  0.3063 -1.9538
 5724TIP3   OH241366   0.285   6.337  12.324  0.3529  0.6702  0.1822
 5724TIP3    H141367   0.353   6.271  12.336  0.7559  0.9865 -0.3249
 5724TIP3    H241368   0.332   6.419  12.309 -0.1046  0.6743 -1.4366
 5725TIP3   OH241369   2.954   2.482  11.724 -0.5452  0.1295  0.5668
 5725TIP3    H141370   3.012   2.491  11.648  0.6081 -0.8120  1.3086
 5725TIP3    H241371   2.968   2.393  11.755  0.4747  1.0765  3.0568
 5726TIP3   OH241372   5.801   7.190  12.347 -0.1202 -0.0436  0.1736
 5726TIP3    H141373   5.868   7.130  12.382  1.2029  1.5065  0.3957
 5726TIP3    H241374   5.823   7.275  12.384 -0.5075  1.0771 -2.0272
 5727TIP3   OH241375   4.675   7.332  10.536 -0.1561  0.0457 -0.3109
 5727TIP3    H141376   4.636   7.320  10.622  1.4531  1.0246  0.5850
 5727TIP3    H241377   4.730   7.255  10.523  0.4586  0.4183  0.0335
 5728TIP3   OH241378   1.844   3.895  11.464 -0.7603  0.2258  0.3544
 5728TIP3    H141379   1.867   3.803  11.452 -0.3870  0.1090  1.7939
 5728TIP3    H241380   1.926   3.938  11.485 -0.8425  1.0148 -0.8455
 5729TIP3   OH241381   2.129   3.276  10.507 -0.3912  0.1487 -0.2168
 5729TIP3    H141382   2.090   3.197  10.470 -1.9530  1.0714 -0.6193
 5729TIP3    H241383   2.055   3.326  10.542  0.6787  0.9433  0.9973
 5730TIP3   OH241384   2.566   3.205   9.968  0.2217 -0.3621  0.0260
 5730TIP3    H141385   2.541   3.279  10.023  0.8792 -0.1349  0.0305
 5730TIP3    H241386   2.618   3.149  10.025  0.8082 -0.1838 -0.3169
 5731TIP3   OH241387   3.993   1.320  10.893  0.1002 -0.6363 -0.6330
 5731TIP3    H141388   3.993   1.227  10.916  2.9008 -0.4582  0.4424
 5731TIP3    H241389   4.059   1.328  10.824  1.0257  0.7336  0.3466
 5732TIP3   OH241390   3.462   5.751   9.810 -0.1879 -0.1527 -0.1637
 5732TIP3    H141391   3.405   5.712   9.744  0.3841 -3.6343  1.2170
 5732TIP3    H241392   3.425   5.838   9.825 -3.9910 -1.4990 -0.6879
 5733TIP3   OH241393   6.562   0.342  10.913 -0.3393 -0.4737  0.3531
 5733TIP3    H141394   6.494   0.357  10.847 -0.8377 -0.9310  0.7455
 5733TIP3    H241395   6.579   0.248  10.908 -1.3201 -0.7595  1.7433
 5734TIP3   OH241396   5.278   4.986   9.967 -0.7389  0.6814 -0.2519
 5734TIP3    H141397   5.190   5.000   9.935 -1.5359  0.0489  1.5081
 5734TIP3    H241398   5.331   4.971   9.888 -2.0808  1.5878 -1.3578
 5735TIP3   OH241399   6.788   1.555  11.290 -0.5036  0.2428  0.4068
 5735TIP3    H141400   6.731   1.585  11.220  1.3533  0.5432 -1.0707
 5735TIP3    H241401   6.853   1.500  11.246  0.3624 -0.0674  1.9939
 5736TIP3   OH241402   4.548   5.692  10.266  0.1978  0.1168  0.5375
 5736TIP3    H141403   4.590   5.684  10.181 -0.0251  0.5347  0.3857
 5736TIP3    H241404   4.531   5.785  10.276 -4.5091 -0.2962 -1.2718
 5737TIP3   OH241405   6.414   3.358  10.500  0.0962 -0.0086  0.4528
 5737TIP3    H141406   6.363   3.438  10.490 -1.1815 -0.6411  1.5040
 5737TIP3    H241407   6.393   3.307  10.422 -1.4899 -0.5429  1.1779
 5738TIP3   OH241408   1.184   0.416  12.155  0.0481 -0.0460 -0.6833
 5738TIP3    H141409   1.160   0.429  12.063 -1.0015  0.6965 -0.3155
 5738TIP3    H241410   1.273   0.381  12.151 -1.0351 -2.9895 -2.1107
 5739TIP3   OH241411   1.831   0.154  10.326  0.7706  0.2767 -0.1201
 5739TIP3    H141412   1.763   0.089  10.339  0.2871  0.7280 -0.3813
 5739TIP3    H241413   1.785   0.236  10.315  1.3033  0.4465 -1.2560
 5740TIP3   OH241414   6.563   2.342  10.268 -0.1520 -0.2093 -0.3224
 5740TIP3    H141415   6.495   2.290  10.312  1.2721  0.3952  2.8666
 5740TIP3    H241416   6.645   2.313  10.309  1.1739  1.3369 -1.7619
 5741TIP3   OH241417   2.872   1.301  10.254  0.2510 -0.1159 -0.1419
 5741TIP3    H141418   2.830   1.386  10.238 -0.3051 -0.7167 -2.1045
 5741TIP3    H241419   2.905   1.273  10.169 -2.1287 -3.1647 -0.2703
 5742TIP3   OH241420   6.882   4.492  10.337  0.1879 -0.0271 -0.0486
 5742TIP3    H141421   6.927   4.471  10.254 -2.5570 -4.2593 -0.7791
 5742TIP3    H241422   6.806   4.544  10.310 -0.2660 -0.7134 -0.1125
 5743TIP3   OH241423   5.431   3.408  17.300 -0.1172 -0.0844  0.3278
 5743TIP3    H141424   5.512   3.459  17.302 -0.3077  0.2133  0.6572
 5743TIP3    H241425   5.455   3.324  17.339 -0.2455  0.4254  1.5426
 5744TIP3   OH241426   2.713   1.493  10.439 -0.4742 -0.4469 -0.3793
 5744TIP3    H141427   2.720   1.545  10.519  0.4142  0.2858 -0.9054
 5744TIP3    H241428   2.667   1.414  10.466  1.2500 -0.9789  1.2452
 5745TIP3   OH241429   4.639   6.933  11.960  0.1659 -0.3221  0.1120
 5745TIP3    H141430   4.548   6.960  11.977 -0.0291 -1.4787  0.9773
 5745TIP3    H241431   4.665   6.985  11.884 -0.9557  0.6065  0.3368
 5746TIP3   OH241432   4.963   5.026  11.222 -0.2451 -0.0676 -0.5011
 5746TIP3    H141433   4.938   5.068  11.305  0.1315 -0.1364 -0.3510
 5746TIP3    H241434   5.031   5.083  11.187  0.4275 -0.6699 -0.1886
 5747TIP3   OH241435   5.992   1.103  10.231  0.4970  0.0636 -0.0560
 5747TIP3    H141436   5.957   1.078  10.316  1.0730 -0.1166  0.1358
 5747TIP3    H241437   5.917   1.140  10.184 -0.2291 -1.4342 -0.1215
 5748TIP3   OH241438   6.887   2.644  11.530  0.1407  0.3353 -0.1209
 5748TIP3    H141439   6.860   2.553  11.538  1.5842 -0.0015  1.4131
 5748TIP3    H241440   6.806   2.694  11.540 -0.3678 -0.7002  1.2461
 5749TIP3   OH241441   6.916   4.454  10.047 -0.1914  0.1573  0.2782
 5749TIP3    H141442   6.909   4.500   9.963 -0.6088  0.0642  0.2593
 5749TIP3    H241443   6.994   4.400  10.039 -0.8496 -0.7094 -0.4712
 5750TIP3   OH241444   6.137   3.180  11.064 -0.1590  0.1721  0.1626
 5750TIP3    H141445   6.061   3.125  11.081 -0.0583 -0.8279 -2.1494
 5750TIP3    H241446   6.212   3.120  11.074  0.2386  0.8131  1.1293
 5751TIP3   OH241447   0.428   6.874  10.416 -0.2926  0.7306 -0.2616
 5751TIP3    H141448   0.482   6.821  10.474  0.8308  0.6250 -1.3689
 5751TIP3    H241449   0.347   6.887  10.465 -0.2484 -1.2062  0.4360
 5752TIP3   OH241450   0.840   2.113  10.453 -0.0991  0.3978 -0.4437
 5752TIP3    H141451   0.786   2.187  10.481  1.2262  0.9417  0.7591
 5752TIP3    H241452   0.875   2.077  10.534  0.4573 -0.6424 -1.1297
 5753TIP3   OH241453   5.352   2.114  11.189  0.0390  0.3023  0.3803
 5753TIP3    H141454   5.324   2.050  11.124  0.8381  0.9127 -0.5946
 5753TIP3    H241455   5.441   2.088  11.211  0.4688  1.2055 -0.2223
 5754TIP3   OH241456   6.061   1.231  12.509  0.0213  0.2102 -0.1208
 5754TIP3    H141457   6.050   1.168  12.580  1.5799 -1.7480 -1.5079
 5754TIP3    H241458   5.985   1.215  12.451  0.8793 -1.1345 -0.9388
 5755TIP3   OH241459   5.207   1.887  11.379 -0.0661  0.6468  0.1739
 5755TIP3    H141460   5.222   1.797  11.350  0.8081  0.4909  1.0364
 5755TIP3    H241461   5.285   1.935  11.351 -0.5165  1.1326 -0.2606
 5756TIP3   OH241462   0.236   4.315   9.522  0.2256 -0.4214  0.3295
 5756TIP3    H141463   0.199   4.253   9.585  1.7019  0.4558  2.2080
 5756TIP3    H241464   0.331   4.310   9.538  0.3954  2.2661  0.5968
 5757TIP3   OH241465   0.867   3.567  11.001  0.0054 -0.1151 -0.3114
 5757TIP3    H141466   0.933   3.581  11.069  0.3013 -0.6094 -0.4925
 5757TIP3    H241467   0.823   3.652  10.993  1.3521  0.5599 -0.9630
 5758TIP3   OH241468   0.036   5.376  12.247 -0.5097 -0.3251 -0.0651
 5758TIP3    H141469   0.035   5.465  12.281  0.9987 -0.1782 -0.3437
 5758TIP3    H241470   0.014   5.321  12.322 -1.2737  0.2526  0.1466
 5759TIP3   OH241471   2.999   5.795  10.653  0.3713  0.1655 -0.4982
 5759TIP3    H141472   3.016   5.803  10.747  1.6431  2.6252 -0.8339
 5759TIP3    H241473   2.913   5.754  10.648  0.8473 -1.2928  1.6756
 5760TIP3   OH241474   7.278   3.135   9.559  0.4745  0.4931 -0.0857
 5760TIP3    H141475   7.363   3.158   9.520  0.1200  0.1847 -1.0743
 5760TIP3    H241476   7.238   3.219   9.581  0.2377  0.7429 -1.3827
 5761TIP3   OH241477   2.762   0.573   9.803  0.5236  0.5913 -0.1891
 5761TIP3    H141478   2.814   0.602   9.728  0.3284 -1.1667 -1.0534
 5761TIP3    H241479   2.672   0.599   9.782  0.4461 -0.0289 -0.6540
 5762TIP3   OH241480   1.387   0.188  12.086 -0.4821 -0.6570 -0.1622
 5762TIP3    H141481   1.384   0.101  12.126  0.6508 -0.7493 -0.2331
 5762TIP3    H241482   1.427   0.173  12.001  1.6751  0.1731  0.6270
 5763TIP3   OH241483   6.098   3.958  11.143 -0.1007  0.1265 -0.1447
 5763TIP3    H141484   6.061   3.938  11.057  0.0788  2.8213 -0.9219
 5763TIP3    H241485   6.026   4.001  11.190  0.0677 -0.5621  0.7584
 5764TIP3   OH241486   1.831   0.236  11.393 -0.0233 -0.5757  0.1587
 5764TIP3    H141487   1.814   0.164  11.333 -0.5663 -0.1357 -0.2293
 5764TIP3    H241488   1.819   0.315  11.340  1.0598 -0.2054  0.4549
 5765TIP3   OH241489   2.289   3.322  11.412 -0.4329 -0.3816  0.2009
 5765TIP3    H141490   2.230   3.288  11.344 -0.0418  0.4468 -0.5718
 5765TIP3    H241491   2.272   3.267  11.488 -1.5350 -0.7546 -0.2962
 5766TIP3   OH241492   5.736   6.241  11.688 -0.2428  0.2396  0.2127
 5766TIP3    H141493   5.819   6.283  11.711 -0.7479  0.2888  2.1314
 5766TIP3    H241494   5.713   6.190  11.766 -1.5041 -0.5998 -0.6853
 5767TIP3   OH241495   6.493   4.636  10.462  0.1097 -0.0515  0.1782
 5767TIP3    H141496   6.538   4.662  10.382  0.6925 -0.0604  0.4924
 5767TIP3    H241497   6.421   4.698  10.471  2.0473  2.2082  1.4363
 5768TIP3   OH241498   6.136   0.270  10.794 -0.0961  0.0450  0.0579
 5768TIP3    H141499   6.178   0.204  10.850  0.7702 -0.0913 -0.7217
 5768TIP3    H241500   6.048   0.236  10.780 -0.4354  0.2348  1.5728
 5769TIP3   OH241501   5.455   6.860  11.001 -0.3639  0.2553  0.1466
 5769TIP3    H141502   5.449   6.934  11.062  1.6305 -0.1405  0.8952
 5769TIP3    H241503   5.497   6.790  11.051  0.6623 -0.3384 -1.4434
 5770TIP3   OH241504   2.336   6.349  10.986 -0.8428  0.1627 -0.2407
 5770TIP3    H141505   2.275   6.412  10.949  1.3014  1.2870 -2.1247
 5770TIP3    H241506   2.368   6.299  10.911  1.0132  0.0484  0.5682
 5771TIP3   OH241507   2.670   6.008  10.456  1.2819 -0.0937  0.5836
 5771TIP3    H141508   2.763   6.004  10.435  1.9287  0.4123  3.0252
 5771TIP3    H241509   2.667   6.004  10.552 -1.2385 -0.4269  0.5597
 5772TIP3   OH241510   1.291   5.862  10.810 -0.5050  0.5477 -0.2582
 5772TIP3    H141511   1.212   5.907  10.841 -0.0392  1.0180  0.3028
 5772TIP3    H241512   1.270   5.769  10.815 -1.0996  0.6755 -0.3279
 5773TIP3   OH241513   3.292   0.622  10.621  0.3277  0.0274  0.0804
 5773TIP3    H141514   3.319   0.636  10.712 -2.2441  1.0026  0.8009
 5773TIP3    H241515   3.372   0.633  10.570  1.6375  0.6215  2.1334
 5774TIP3   OH241516   1.139   6.833  11.046 -0.7727 -0.5522 -0.2068
 5774TIP3    H141517   1.064   6.825  10.987 -0.5438  0.4606 -0.6593
 5774TIP3    H241518   1.136   6.754  11.100 -1.7330 -0.8745 -0.7135
 5775TIP3   OH241519   2.518   4.442  11.553 -0.3136  0.0497 -0.1273
 5775TIP3    H141520   2.442   4.493  11.524 -0.7414 -0.0925  0.7212
 5775TIP3    H241521   2.531   4.378  11.482 -1.0547  0.0060 -0.2373
 5776TIP3   OH241522   0.581   4.711  10.325  0.7430 -0.0170  0.5100
 5776TIP3    H141523   0.507   4.721  10.265  0.3817  2.9156  1.2901
 5776TIP3    H241524   0.656   4.692  10.268 -0.2537 -1.3664 -0.4322
 5777TIP3   OH241525   0.848   0.669  10.492  0.2151 -0.1107 -0.2520
 5777TIP3    H141526   0.931   0.717  10.488  1.0577 -1.4572  0.4707
 5777TIP3    H241527   0.807   0.687  10.407  0.0821  2.5305  0.2720
 5778TIP3   OH241528   2.752   5.935  12.658 -0.4043 -0.7829  0.3895
 5778TIP3    H141529   2.801   6.009  12.621 -1.5413 -0.7525 -1.1294
 5778TIP3    H241530   2.792   5.857  12.619 -1.1848 -0.7886 -0.4174
 5779TIP3   OH241531   5.537   6.358  11.961  0.1521  0.0224 -0.1100
 5779TIP3    H141532   5.601   6.289  11.972 -3.4855 -3.6786  0.0906
 5779TIP3    H241533   5.491   6.337  11.880 -1.1770  2.1854 -0.0336
 5780TIP3   OH241534   0.119   5.756  11.487  0.1972  0.2663 -0.6834
 5780TIP3    H141535   0.089   5.737  11.575  0.6905  1.7490 -0.1659
 5780TIP3    H241536   0.040   5.748  11.433 -0.2767  0.1424  0.0100
 5781TIP3   OH241537   1.393   7.473  11.027  0.4584  0.0811  0.3090
 5781TIP3    H141538   1.312   7.494  11.073  0.7083  0.1952  0.6967
 5781TIP3    H241539   1.364   7.437  10.943  0.0072  0.6441  0.2162
 5782TIP3   OH241540   7.323   5.668  11.394  0.6926 -0.2546 -0.4735
 5782TIP3    H141541   7.261   5.658  11.321 -0.3334 -0.7706  0.4296
 5782TIP3    H241542   7.268   5.691  11.469  1.7192  0.1998  0.1628
 5783TIP3   OH241543   0.302   0.288  11.080 -0.0438 -0.0319 -0.1580
 5783TIP3    H141544   0.375   0.269  11.140  0.7546  1.8723 -0.4658
 5783TIP3    H241545   0.226   0.250  11.123  1.0740 -1.9457  0.2596
 5784TIP3   OH241546   0.710   6.527  11.783  1.0979 -0.2103  0.3632
 5784TIP3    H141547   0.689   6.437  11.757 -0.8063  0.4600 -0.6136
 5784TIP3    H241548   0.684   6.581  11.708  0.7959  1.2894  1.4902
 5785TIP3   OH241549   5.023   4.480  10.066 -0.1927 -0.2034 -0.5911
 5785TIP3    H141550   5.025   4.574  10.087 -1.2854 -0.4786  0.8598
 5785TIP3    H241551   5.079   4.439  10.132 -0.9618 -0.7258 -0.2495
 5786TIP3   OH241552   1.556   5.387  12.087 -0.3518  0.6421  0.1093
 5786TIP3    H141553   1.609   5.352  12.158  0.4623  2.4813  0.4556
 5786TIP3    H241554   1.467   5.389  12.122  0.0940  1.8785  1.2473
 5787TIP3   OH241555   6.159   3.400  10.661 -0.5321  0.0795  0.3961
 5787TIP3    H141556   6.157   3.378  10.569 -0.3274  1.0541  0.1407
 5787TIP3    H241557   6.228   3.345  10.698 -0.8060 -0.5165  0.0317
 5788TIP3   OH241558   1.865   4.495  10.419  0.4257 -0.3870 -0.3389
 5788TIP3    H141559   1.935   4.557  10.402  0.5755 -0.5088 -0.1756
 5788TIP3    H241560   1.904   4.431  10.479 -0.3769  0.6198  1.3407
 5789TIP3   OH241561   0.027   6.822   9.805  0.2959 -0.1136 -0.0524
 5789TIP3    H141562   0.018   6.856   9.895  0.4856 -1.5757  0.5426
 5789TIP3    H241563  -0.043   6.758   9.797 -0.1913  0.5375 -1.2368
 5790TIP3   OH241564   2.307   2.060   9.894  0.4668  0.1275 -0.1508
 5790TIP3    H141565   2.374   1.992   9.900 -0.7463 -1.0338  1.2367
 5790TIP3    H241566   2.303   2.098   9.982  1.4644  2.4346 -1.0100
 5791TIP3   OH241567   7.389   5.778  10.714 -0.3950  0.2573 -1.0998
 5791TIP3    H141568   7.445   5.701  10.723 -0.0757  0.6880  1.2410
 5791TIP3    H241569   7.343   5.783  10.797 -0.4773  2.5407 -1.2401
 5792TIP3   OH241570   4.717   2.054  11.621 -0.1165  0.2171 -0.3008
 5792TIP3    H141571   4.802   2.025  11.587  0.3524 -0.4565  1.3117
 5792TIP3    H241572   4.694   1.987  11.687 -2.1370  0.1180 -1.0250
 5793TIP3   OH241573   5.704   5.156  10.388 -0.4136  0.2008 -0.5037
 5793TIP3    H141574   5.776   5.138  10.450 -1.3323 -0.1466  0.4927
 5793TIP3    H241575   5.666   5.070  10.371  0.5257  0.1276 -2.4855
 5794TIP3   OH241576   3.579   1.062  12.204  0.7886  0.4276  0.5570
 5794TIP3    H141577   3.669   1.060  12.234  0.2898  0.1307  2.1225
 5794TIP3    H241578   3.530   1.100  12.277 -0.3171  0.8261 -0.3650
 5795TIP3   OH241579   0.913   5.051  10.738 -0.5771  0.0210  0.1254
 5795TIP3    H141580   0.961   5.106  10.676  1.0061  1.0348  2.1473
 5795TIP3    H241581   0.823   5.084  10.734 -0.3864  0.4495 -1.1635
 5796TIP3   OH241582   4.527   5.607  11.349  0.1321  0.0756 -0.9944
 5796TIP3    H141583   4.562   5.585  11.263 -0.2581 -0.4829 -1.0131
 5796TIP3    H241584   4.432   5.609  11.337  0.0673 -0.1496 -0.5463
 5797TIP3   OH241585   1.496   5.532  10.851 -0.5591 -0.0743  0.2716
 5797TIP3    H141586   1.523   5.467  10.786 -1.2530 -0.8441  0.7385
 5797TIP3    H241587   1.406   5.553  10.829 -0.6837 -0.0704  0.7572
 5798TIP3   OH241588   5.590   7.279  11.782 -0.0266  0.3019 -0.0690
 5798TIP3    H141589   5.573   7.299  11.874 -0.7335  0.4754 -0.2310
 5798TIP3    H241590   5.644   7.352  11.752 -0.7954  0.8785 -0.0950
 5799TIP3   OH241591   2.268   2.362  10.836  0.2920  0.6533  0.1577
 5799TIP3    H141592   2.256   2.267  10.829  0.6193  0.4735  1.7134
 5799TIP3    H241593   2.328   2.383  10.764  1.9935 -0.6970  1.1021
 5800TIP3   OH241594   0.943   1.064  11.955 -0.3679 -0.1024  0.9330
 5800TIP3    H141595   0.959   0.971  11.940  0.1080 -0.0259  0.9400
 5800TIP3    H241596   0.989   1.108  11.882  0.8309  0.2044  1.8352
 5801TIP3   OH241597   6.588   6.196  11.688  0.0332  0.2677 -0.1608
 5801TIP3    H141598   6.645   6.121  11.673 -1.8140 -0.9865 -1.4752
 5801TIP3    H241599   6.637   6.271  11.656  1.3142 -0.6200 -0.3379
 5802TIP3   OH241600   5.778   6.201  11.255 -0.2101  0.1365 -0.0838
 5802TIP3    H141601   5.782   6.274  11.192  0.2899 -0.0793 -0.3046
 5802TIP3    H241602   5.689   6.204  11.289 -0.8377 -0.4195 -1.6066
 5803TIP3   OH241603   3.096   4.715  10.173 -0.1071  0.3107 -0.0905
 5803TIP3    H141604   3.158   4.787  10.169 -1.1453  1.2084 -0.2805
 5803TIP3    H241605   3.032   4.734  10.105  0.8686 -2.0208 -1.7942
 5804TIP3   OH241606   3.054   3.588  10.925  0.3029  0.2142  0.1250
 5804TIP3    H141607   3.000   3.545  10.859 -0.5878  0.5281  0.6266
 5804TIP3    H241608   3.080   3.517  10.984 -1.5714  0.3565  1.2323
 5805TIP3   OH241609   1.717   0.041  10.933  0.2987 -0.4168  0.4931
 5805TIP3    H141610   1.626   0.058  10.959 -0.1263 -2.5398  0.5874
 5805TIP3    H241611   1.717   0.054  10.838  0.2682  1.0070  0.6745
 5806TIP3   OH241612   5.691   4.620  11.010 -0.4976 -0.1335 -0.0274
 5806TIP3    H141613   5.661   4.685  11.073  0.0986  0.5773 -0.4626
 5806TIP3    H241614   5.747   4.561  11.060 -2.5303 -1.4748  0.7987
 5807TIP3   OH241615   3.811   1.452  10.715 -0.3591 -0.3927 -0.5603
 5807TIP3    H141616   3.859   1.390  10.770  0.0864  0.5052  0.0846
 5807TIP3    H241617   3.805   1.409  10.630  1.0310 -0.7916 -0.4748
 5808TIP3   OH241618   2.981   3.829   9.896  0.1193  0.2136  0.4685
 5808TIP3    H141619   2.994   3.913   9.853  0.5630  0.2142  0.6024
 5808TIP3    H241620   3.021   3.838   9.982  3.0778 -1.1008 -0.6107
 5809TIP3   OH241621   6.078   5.446  11.901 -0.1001  0.1759 -0.5742
 5809TIP3    H141622   6.105   5.368  11.948 -0.2745  0.0764 -0.6393
 5809TIP3    H241623   6.154   5.504  11.905  0.0427 -0.0123 -0.5614
 5810TIP3   OH241624   0.516   5.093  12.188 -0.4621  0.2359  0.6385
 5810TIP3    H141625   0.489   5.131  12.104 -0.6632 -0.4990  0.3617
 5810TIP3    H241626   0.603   5.130  12.204 -0.6992  0.9053  0.4423
 5811TIP3   OH241627   7.301   6.483  10.039 -0.5658 -0.5758 -0.2351
 5811TIP3    H141628   7.380   6.430  10.029 -1.1103 -1.2150 -1.3292
 5811TIP3    H241629   7.274   6.470  10.130  1.9927  1.7022  0.9736
 5812TIP3   OH241630   1.156   3.323  11.138  0.9319  0.5072  0.4955
 5812TIP3    H141631   1.156   3.343  11.045  1.1630 -1.0192  0.1381
 5812TIP3    H241632   1.245   3.294  11.156  0.0704 -2.5873  0.3564
 5813TIP3   OH241633   7.446   5.293  11.165 -0.3111  0.1253 -0.3346
 5813TIP3    H141634   7.380   5.257  11.226 -0.1726  0.5488  0.0714
 5813TIP3    H241635   7.499   5.351  11.219  0.0107  0.2684 -0.8000
 5814TIP3   OH241636   1.529   0.148  10.344 -0.3615 -0.3538 -0.9140
 5814TIP3    H141637   1.545   0.117  10.255 -2.4027  0.4680 -1.6280
 5814TIP3    H241638   1.441   0.186  10.341 -0.6748 -0.7044  1.5709
 5815TIP3   OH241639   4.628   1.411  12.362  0.6729 -0.0442 -0.3111
 5815TIP3    H141640   4.554   1.368  12.318 -0.6629  0.4298  1.3449
 5815TIP3    H241641   4.682   1.339  12.394  0.3271 -0.4347 -0.5901
 5816TIP3   OH241642   7.449   5.686  11.706 -0.1623  0.5138 -0.2492
 5816TIP3    H141643   7.496   5.620  11.758 -0.4486 -0.7001 -1.4713
 5816TIP3    H241644   7.368   5.702  11.756  0.5062  0.9496  0.7299
 5817TIP3   OH241645   3.773   6.067   9.939 -0.4398  0.3058 -0.3178
 5817TIP3    H141646   3.716   6.022  10.001  1.0960  0.0088  0.9138
 5817TIP3    H241647   3.714   6.128   9.893 -1.5404  0.9022  1.7704
 5818TIP3   OH241648   2.030   2.762  11.384  0.6863 -0.0986 -0.3283
 5818TIP3    H141649   2.030   2.830  11.317 -1.7531 -0.1299 -0.4527
 5818TIP3    H241650   1.994   2.805  11.462 -0.1448 -1.0256 -0.1848
 5819TIP3   OH241651   3.547   5.608  10.047 -0.2951 -0.2155  0.5081
 5819TIP3    H141652   3.623   5.666  10.051 -0.0400 -0.5276  0.2280
 5819TIP3    H241653   3.489   5.649   9.983  0.5609 -1.0523 -0.8419
 5820TIP3   OH241654   2.807   5.727  12.479 -0.0116  0.5445 -0.7875
 5820TIP3    H141655   2.881   5.738  12.539  0.6313  2.0351 -1.8055
 5820TIP3    H241656   2.801   5.632  12.465  0.5230  0.2575  0.7218
 5821TIP3   OH241657   6.861   6.558  10.612 -0.6106  0.8058 -0.1266
 5821TIP3    H141658   6.819   6.472  10.608  1.2829 -0.1639 -0.3518
 5821TIP3    H241659   6.792   6.617  10.642 -1.5317 -1.0795  1.7099
 5822TIP3   OH241660   1.046   0.158  10.805  0.1725 -0.1068 -0.4747
 5822TIP3    H141661   1.100   0.123  10.734 -0.0206  1.5560 -1.4848
 5822TIP3    H241662   0.956   0.145  10.776  0.0866  1.6988 -1.1915
 5823TIP3   OH241663   3.876   2.292  11.529  0.3042  0.1775  0.2349
 5823TIP3    H141664   3.921   2.307  11.446  0.0345 -0.5747 -0.0453
 5823TIP3    H241665   3.798   2.242  11.506 -0.6830  1.4379  0.7253
 5824TIP3   OH241666   5.401   7.367  11.200  1.1142 -0.4558  0.4056
 5824TIP3    H141667   5.365   7.451  11.230 -2.1867 -1.4512 -0.4059
 5824TIP3    H241668   5.344   7.301  11.239  1.8849 -2.1888 -1.2496
 5825TIP3   OH241669   3.418   0.018   9.771  0.4600 -0.6258  0.1856
 5825TIP3    H141670   3.327   0.041   9.789  0.4959 -1.5941  1.8476
 5825TIP3    H241671   3.456   0.096   9.731 -0.1744  1.1757  2.7880
 5826TIP3   OH241672   2.938   6.925  11.271  0.6567 -0.2296  0.3647
 5826TIP3    H141673   2.925   6.976  11.191 -0.6974 -1.0854  0.0143
 5826TIP3    H241674   3.032   6.906  11.273  1.6850  3.7627  1.4427
 5827TIP3   OH241675   3.042   4.173  10.739  0.2069  0.3410 -0.1442
 5827TIP3    H141676   2.982   4.196  10.810  2.2359  2.2593  1.0880
 5827TIP3    H241677   2.996   4.200  10.659 -0.9418  0.8294  0.6503
 5828TIP3   OH241678   4.582   1.055   9.936  0.0964  0.4392  0.2356
 5828TIP3    H141679   4.512   1.012   9.985 -0.0734  0.7401  0.2626
 5828TIP3    H241680   4.651   1.070  10.000  0.2134  0.0834  0.1952
 5829TIP3   OH241681   1.841   2.451   9.966 -0.2996  0.1047 -0.1355
 5829TIP3    H141682   1.804   2.379   9.915 -0.4582  0.0968 -0.0096
 5829TIP3    H241683   1.837   2.527   9.907  1.4177 -0.3392 -0.8945
 5830TIP3   OH241684   0.916   2.300  12.732  0.1122 -0.2595 -0.4355
 5830TIP3    H141685   0.924   2.295  12.636  0.3748  0.4814 -0.4535
 5830TIP3    H241686   0.996   2.343  12.761  0.1414 -0.6903  0.1460
 5831TIP3   OH241687   5.838   1.336  10.831 -0.5174 -0.7869  0.1195
 5831TIP3    H141688   5.922   1.291  10.819  0.3619  0.9443 -0.6606
 5831TIP3    H241689   5.801   1.342  10.743 -0.9944 -0.6754  0.3260
 5832TIP3   OH241690   1.430   4.116  11.594 -0.3496  0.1051  0.4410
 5832TIP3    H141691   1.381   4.034  11.604 -0.9814  0.4484  0.1900
 5832TIP3    H241692   1.491   4.116  11.668 -0.3827 -0.5613  0.4779
 5833TIP3   OH241693   6.468   0.098  11.122  0.0561 -0.6983 -0.3045
 5833TIP3    H141694   6.502   0.177  11.163  0.2687 -0.8157 -0.2571
 5833TIP3    H241695   6.449   0.038  11.195  1.0848 -1.1698 -0.4111
 5834TIP3   OH241696   4.960   2.797   9.651 -0.2119 -0.2128  0.2409
 5834TIP3    H141697   4.915   2.869   9.607 -0.3727 -0.4708 -0.0245
 5834TIP3    H241698   4.902   2.722   9.638 -0.6953 -0.1157  1.6283
 5835TIP3   OH241699   3.920   4.728  11.533 -0.3764  0.3894  0.0502
 5835TIP3    H141700   3.884   4.671  11.465 -0.7000  1.3600 -0.6134
 5835TIP3    H241701   3.998   4.682  11.564 -1.8534 -1.5083  1.1553
 5836TIP3   OH241702   3.872   7.316  10.569 -0.1391  0.3102 -0.5529
 5836TIP3    H141703   3.827   7.247  10.520 -0.1333 -1.0764  1.2715
 5836TIP3    H241704   3.806   7.349  10.630  0.3499  0.7153 -0.2400
 5837TIP3   OH241705   0.730   1.970  11.379  0.0201 -0.5394 -0.6371
 5837TIP3    H141706   0.669   2.003  11.313  0.3723 -0.3193 -0.8514
 5837TIP3    H241707   0.755   1.883  11.348 -3.1001 -2.3613  1.3021
 5838TIP3   OH241708   4.403   4.651  10.723  0.3888  0.0393 -0.6222
 5838TIP3    H141709   4.470   4.719  10.725  0.6105 -0.1464 -1.4380
 5838TIP3    H241710   4.322   4.697  10.705  0.3502  0.2228  0.0095
 5839TIP3   OH241711   0.303   3.744  12.341  0.1910  0.3161 -0.1007
 5839TIP3    H141712   0.214   3.759  12.371  0.1395 -0.9611  0.4872
 5839TIP3    H241713   0.316   3.807  12.271 -1.2933  0.2956 -0.4273
 5840TIP3   OH241714   0.207   0.746   9.789  0.1285  0.2980  0.6905
 5840TIP3    H141715   0.250   0.722   9.871  0.9276  0.8081  0.4298
 5840TIP3    H241716   0.237   0.679   9.726  0.6111  0.6916  0.4934
 5841TIP3   OH241717   3.980   1.769   9.753  1.0584 -1.0175 -0.1281
 5841TIP3    H141718   4.075   1.779   9.744  0.9793 -1.9651 -3.7415
 5841TIP3    H241719   3.969   1.682   9.792  1.7137 -1.5082 -0.9933
 5842TIP3   OH241720   1.492   4.689  11.998  0.0838 -0.0454 -0.2955
 5842TIP3    H141721   1.492   4.760  11.933  1.4037 -1.4687 -1.9526
 5842TIP3    H241722   1.428   4.716  12.063  0.2029  2.4441 -1.1026
 5843TIP3   OH241723   5.941   0.922  11.506  0.3558  0.0942 -0.0192
 5843TIP3    H141724   5.870   0.957  11.559 -0.3105 -0.5299 -0.4753
 5843TIP3    H241725   5.979   0.999  11.464  0.8598  0.5843  1.2994
 5844TIP3   OH241726   3.656   6.739  11.553  0.7078 -0.1882 -0.4716
 5844TIP3    H141727   3.702   6.799  11.496  0.1125 -1.1348 -2.0163
 5844TIP3    H241728   3.622   6.794  11.624 -1.4519  1.7163 -2.7698
 5845TIP3   OH241729   2.292   1.010  11.205 -0.2785  0.0018  0.1708
 5845TIP3    H141730   2.255   0.935  11.158  1.1095 -0.1988 -0.6648
 5845TIP3    H241731   2.340   0.970  11.278  0.4882  0.0627 -0.2931
 5846TIP3   OH241732   4.792   0.279  11.555  0.2996 -0.3895 -0.1024
 5846TIP3    H141733   4.880   0.243  11.565  0.9525  1.3471  0.8657
 5846TIP3    H241734   4.804   0.353  11.494 -0.6205 -0.5544 -0.4944
 5847TIP3   OH241735   6.021   5.937  10.836  0.0179 -0.1885 -0.1199
 5847TIP3    H141736   5.931   5.940  10.804 -0.8694 -2.0818  1.8760
 5847TIP3    H241737   6.013   5.900  10.924  2.8596 -1.5870 -0.3319
 5848TIP3   OH241738   2.321   2.369  11.697  0.6178  0.0958 -0.2352
 5848TIP3    H141739   2.356   2.426  11.766 -0.1212 -0.3627  0.5404
 5848TIP3    H241740   2.309   2.427  11.622  0.3170  0.8706  0.3960
 5849TIP3   OH241741   1.411   1.855  11.945  0.0542 -0.3130  0.4216
 5849TIP3    H141742   1.488   1.882  11.995  0.2919 -0.0087 -0.0995
 5849TIP3    H241743   1.433   1.767  11.914  1.1965  0.6273 -1.6659
 5850TIP3   OH241744   6.636   5.330   9.592 -0.2316  0.2053 -0.3000
 5850TIP3    H141745   6.552   5.286   9.603 -0.0844  0.0052  0.0357
 5850TIP3    H241746   6.613   5.423   9.582 -0.4785  0.1961  0.1169
 5851TIP3   OH241747   0.585   2.919  10.195  0.6843 -0.0884 -0.1313
 5851TIP3    H141748   0.548   2.831  10.198 -0.0444  0.1866 -0.5731
 5851TIP3    H241749   0.656   2.918  10.259  0.1650 -0.7630  0.4506
 5852TIP3   OH241750   1.752   0.229  12.207 -0.1470  0.3858  0.1573
 5852TIP3    H141751   1.694   0.177  12.262 -1.1189  0.2478 -0.9576
 5852TIP3    H241752   1.840   0.201  12.232 -0.6345 -1.9019 -0.4524
 5853TIP3   OH241753   4.382   7.416   9.658  0.4510 -0.0127 -0.0146
 5853TIP3    H141754   4.457   7.466   9.626  0.9585 -1.8035 -1.8539
 5853TIP3    H241755   4.312   7.480   9.667  1.8840  1.5106  0.6806
 5854TIP3   OH241756   1.599   0.611  10.074  0.2706 -0.3879 -0.3717
 5854TIP3    H141757   1.520   0.637  10.026 -1.1328 -1.1073  1.4065
 5854TIP3    H241758   1.591   0.516  10.081  0.0078 -0.2460  1.8840
 5855TIP3   OH241759   3.892   4.999  11.177 -0.0958  0.1183 -0.5510
 5855TIP3    H141760   3.893   5.093  11.158 -2.0070  0.0889 -0.9578
 5855TIP3    H241761   3.919   4.994  11.269  1.6875  0.8893 -0.9851
 5856TIP3   OH241762   0.277   5.551  10.092  0.4153 -0.2232  0.5942
 5856TIP3    H141763   0.340   5.553  10.164  0.6174  0.0432  0.4132
 5856TIP3    H241764   0.224   5.474  10.109  1.4577 -1.0610  0.1918
 5857TIP3   OH241765   1.262   1.338  10.681 -0.4361 -0.3203  0.3668
 5857TIP3    H141766   1.278   1.408  10.745 -2.9513  0.2884  0.4547
 5857TIP3    H241767   1.255   1.384  10.598  1.8560 -1.0044 -0.2828
 5858TIP3   OH241768   4.593   0.988  10.292  0.0832  0.2899  0.1870
 5858TIP3    H141769   4.603   0.932  10.369 -2.0683 -3.2088 -1.8181
 5858TIP3    H241770   4.660   0.957  10.231 -1.2729 -0.3299 -1.0320
 5859TIP3   OH241771   4.046   0.293  11.892  0.0384  0.2564 -0.6041
 5859TIP3    H141772   3.974   0.348  11.923 -0.7180 -1.3494  0.6370
 5859TIP3    H241773   4.004   0.230  11.833  0.5800 -0.0989 -0.6144
 5860TIP3   OH241774   4.350   4.040  11.269 -0.4936  0.4675 -0.1186
 5860TIP3    H141775   4.319   3.990  11.345 -0.1689 -1.8736 -1.4281
 5860TIP3    H241776   4.275   4.093  11.242 -0.4702  1.7267  2.0723
 5861TIP3   OH241777   1.580   1.620  11.425  0.0519  0.2189 -0.1726
 5861TIP3    H141778   1.497   1.571  11.422 -1.3758  2.4963 -0.7276
 5861TIP3    H241779   1.605   1.629  11.333 -0.2395  1.3175 -0.1571
 5862TIP3   OH241780   4.287   6.475  10.757 -0.6291  0.0002 -0.4490
 5862TIP3    H141781   4.228   6.516  10.820  0.9507  2.3675 -0.3802
 5862TIP3    H241782   4.314   6.393  10.799 -1.0868  0.6048  1.0990
 5863TIP3   OH241783   7.075   5.405  11.139 -0.1589  0.5183  0.1858
 5863TIP3    H141784   7.160   5.407  11.093 -0.3492  0.6368 -0.1643
 5863TIP3    H241785   7.075   5.321  11.185 -0.5938 -0.3083 -1.2570
 5864TIP3   OH241786   1.198   7.176  11.172 -0.1108 -0.0749  0.3312
 5864TIP3    H141787   1.244   7.202  11.252  1.8034 -1.7277 -0.1480
 5864TIP3    H241788   1.105   7.177  11.196  0.3764  0.1218  2.3631
 5865TIP3   OH241789   5.985   4.828   9.847  0.3825 -0.5910  0.0710
 5865TIP3    H141790   6.067   4.859   9.809 -0.2658  0.5124 -0.4761
 5865TIP3    H241791   6.009   4.749   9.896  2.0737  0.6622  1.3799
 5866TIP3   OH241792   6.279   4.852  12.072  0.0316  0.1062 -0.4299
 5866TIP3    H141793   6.262   4.936  12.113 -0.8489 -0.2621 -0.0215
 5866TIP3    H241794   6.367   4.861  12.034  0.5117  0.7344  0.7817
 5867TIP3   OH241795   5.020   1.063   9.999  0.3111 -0.2243 -0.1717
 5867TIP3    H141796   5.066   0.981   9.979  0.2538 -0.1755 -0.5035
 5867TIP3    H241797   5.049   1.123   9.931 -2.1651 -0.8919 -1.9442
 5868TIP3   OH241798   0.839   4.036  10.411  0.5159 -0.1887  0.4752
 5868TIP3    H141799   0.827   4.040  10.506  0.4698  2.1294  0.4209
 5868TIP3    H241800   0.751   4.031  10.375  0.4810  0.0943  0.5224
 5869TIP3   OH241801   1.838   5.228  10.593  0.0686 -0.4772  0.2336
 5869TIP3    H141802   1.830   5.133  10.592  0.7800 -0.5555 -1.2968
 5869TIP3    H241803   1.924   5.244  10.632  0.2007 -0.4966 -0.0462
 5870TIP3   OH241804   6.993   2.335  10.822 -0.2850  0.1073  0.1997
 5870TIP3    H141805   7.085   2.315  10.802 -0.0969  0.3288  0.8018
 5870TIP3    H241806   6.956   2.250  10.848 -0.8416 -0.4230 -2.0985
 5871TIP3   OH241807   5.775   2.631  10.306 -0.0172  0.6582  0.2069
 5871TIP3    H141808   5.773   2.652  10.399 -2.2206  0.2797  0.3053
 5871TIP3    H241809   5.698   2.675  10.269  0.5212  0.3876 -1.3465
 5872TIP3   OH241810   3.698   5.784  10.556 -0.3028 -0.0417 -0.1252
 5872TIP3    H141811   3.613   5.748  10.582  0.4998 -1.9229  0.0253
 5872TIP3    H241812   3.747   5.792  10.639  0.2928 -0.6844 -0.4095
 5873TIP3   OH241813   5.121   4.917  11.608 -0.2161 -0.3282 -0.3518
 5873TIP3    H141814   5.078   4.848  11.557 -1.0605  0.0152 -0.1113
 5873TIP3    H241815   5.214   4.894  11.604 -0.5158 -1.7101  0.0652
 5874TIP3   OH241816   6.652   3.461  10.635  0.3230  0.4119 -0.3038
 5874TIP3    H141817   6.610   3.524  10.577 -2.1220  0.5609  1.5078
 5874TIP3    H241818   6.612   3.377  10.613 -0.3822  0.4145  0.8774
 5875TIP3   OH241819   5.470   2.381  10.782  0.0690  0.0097  0.0655
 5875TIP3    H141820   5.505   2.383  10.693 -0.2189 -0.0064 -0.0502
 5875TIP3    H241821   5.420   2.299  10.786 -0.4050  0.2967  0.0560
 5876TIP3   OH241822   6.683   1.200   9.983 -0.2062 -0.4151 -0.2630
 5876TIP3    H141823   6.591   1.181   9.995 -0.5227  0.2490 -1.5207
 5876TIP3    H241824   6.725   1.115   9.972 -0.5920 -0.7420  0.6601
 5877TIP3   OH241825   1.685   2.503  11.537  0.3154  0.3476  0.7312
 5877TIP3    H141826   1.751   2.508  11.467  0.3410 -2.8587  0.3579
 5877TIP3    H241827   1.722   2.554  11.608  2.4482  0.0363 -0.0650
 5878TIP3   OH241828   7.266   5.967  11.378 -0.1192 -0.5252 -0.2649
 5878TIP3    H141829   7.226   5.888  11.413 -0.2860 -0.7440 -0.9430
 5878TIP3    H241830   7.218   6.039  11.420 -1.3195 -0.7812 -1.1351
 5879TIP3   OH241831   2.032   4.996  10.929  0.5226  0.6241 -0.2463
 5879TIP3    H141832   2.114   5.002  10.978  0.0828  1.0783  0.4594
 5879TIP3    H241833   2.040   5.062  10.861  0.6481  0.8241 -0.0386
 5880TIP3   OH241834   1.990   0.603  12.423  0.5191 -0.0177  0.2521
 5880TIP3    H141835   2.034   0.518  12.411  0.3768  0.1801 -2.2816
 5880TIP3    H241836   2.058   0.660  12.459  1.3597 -0.5851 -0.4011
 5881TIP3   OH241837   3.676   1.114  11.890 -0.2024  0.0016 -0.0442
 5881TIP3    H141838   3.656   1.093  11.982 -0.1995  1.5556  0.3503
 5881TIP3    H241839   3.679   1.029  11.846 -1.9822 -0.6897  1.0265
 5882TIP3   OH241840   4.896   5.573  10.822 -0.0712 -0.5102  0.3175
 5882TIP3    H141841   4.808   5.536  10.820 -0.0901 -0.4447 -0.3065
 5882TIP3    H241842   4.917   5.581  10.915 -1.1728  0.5354  0.4964
 5883TIP3   OH241843   5.424   3.233  11.288 -0.2832  0.1023  0.6645
 5883TIP3    H141844   5.426   3.204  11.197  1.7894 -1.0208  1.0026
 5883TIP3    H241845   5.463   3.161  11.337 -0.3659  1.1202  2.3114
 5884TIP3   OH241846   7.326   7.110   9.822  0.3768 -0.0807  0.9225
 5884TIP3    H141847   7.391   7.113   9.892 -0.3146 -1.7521  1.6987
 5884TIP3    H241848   7.249   7.071   9.863 -0.0662 -1.0691 -0.7410
 5885TIP3   OH241849   1.147   5.442   9.659  0.8447 -0.0425  0.1635
 5885TIP3    H141850   1.206   5.459   9.733 -0.0459 -0.8735  1.0900
 5885TIP3    H241851   1.163   5.351   9.636  0.2868 -0.1248  0.0845
 5886TIP3   OH241852   4.363   1.567  11.348 -0.0317  0.2346 -0.3040
 5886TIP3    H141853   4.325   1.570  11.260 -2.0556  0.5077  0.5276
 5886TIP3    H241854   4.288   1.567  11.407  1.2696 -0.0455  1.4483
 5887TIP3   OH241855   0.011   3.453   9.524  0.3151 -0.0021 -0.2521
 5887TIP3    H141856  -0.042   3.437   9.446  1.0694  0.4678 -0.8877
 5887TIP3    H241857  -0.035   3.524   9.570 -0.8195 -1.1378  0.4246
 5888TIP3   OH241858   4.370   5.340  11.186  0.1949 -0.4537  0.4482
 5888TIP3    H141859   4.344   5.423  11.147 -0.0936 -0.3114  0.9327
 5888TIP3    H241860   4.288   5.299  11.212  0.4242 -0.0675  1.8612
 5889TIP3   OH241861   0.188   3.752  11.405  0.0852 -0.0015 -0.1600
 5889TIP3    H141862   0.224   3.668  11.431 -0.3242 -0.5633 -1.3400
 5889TIP3    H241863   0.264   3.811  11.403  0.3714 -0.3236  0.6651
 5890TIP3   OH241864   4.672   0.062  10.373 -0.0323 -0.4439  0.3203
 5890TIP3    H141865   4.687  -0.019  10.420  0.2105 -1.1686 -0.9555
 5890TIP3    H241866   4.578   0.079  10.383  0.0948 -0.3437  1.4085
 5891TIP3   OH241867   1.175   1.557  11.243  0.1398 -0.3769 -0.0812
 5891TIP3    H141868   1.233   1.633  11.251  0.0318 -0.4394  1.7163
 5891TIP3    H241869   1.119   1.578  11.168  2.0967 -0.0872 -1.5405
 5892TIP3   OH241870   0.453   4.388  10.675 -0.2897  0.5030 -0.8945
 5892TIP3    H141871   0.458   4.430  10.589 -1.6546 -0.4493 -1.4692
 5892TIP3    H241872   0.479   4.297  10.659 -1.4816  0.0742 -0.5102
 5893TIP3   OH241873   7.393   5.952   9.967 -0.1718  0.3933  0.1227
 5893TIP3    H141874   7.440   5.870   9.983 -0.2461  0.3356  0.0460
 5893TIP3    H241875   7.344   5.968  10.048  1.3864  1.4057  0.9174
 5894TIP3   OH241876   4.832   1.251   9.734 -0.2341  0.5909 -0.1809
 5894TIP3    H141877   4.925   1.259   9.754 -0.2478  1.7712 -0.5193
 5894TIP3    H241878   4.788   1.278   9.815 -0.3221 -2.0694  0.7412
 5895TIP3   OH241879   7.328   4.781   9.708  0.1538  0.0094  0.0963
 5895TIP3    H141880   7.249   4.785   9.655 -1.4022 -2.4107  1.9829
 5895TIP3    H241881   7.315   4.847   9.776  0.7612  1.0408 -0.7659
 5896TIP3   OH241882   4.814   2.397  10.136  0.4238 -0.3070  0.4256
 5896TIP3    H141883   4.865   2.418  10.214  0.8533 -0.5786  0.2228
 5896TIP3    H241884   4.736   2.451  10.144  1.8912  2.1019 -0.5569
 5897TIP3   OH241885   2.406   3.081  10.541  0.7268 -0.6869 -0.2489
 5897TIP3    H141886   2.349   3.040  10.475 -1.5887  2.4611 -0.4208
 5897TIP3    H241887   2.485   3.105  10.492 -0.4881  0.5834 -1.6891
 5898TIP3   OH241888   1.461   6.510  10.009 -0.4124  0.6361 -0.0023
 5898TIP3    H141889   1.544   6.528   9.964 -1.4745  2.7902 -1.2516
 5898TIP3    H241890   1.394   6.528   9.944 -1.9354  0.1391  1.3543
 5899TIP3   OH241891   2.370   2.165   9.599 -0.3267  0.0434 -0.5733
 5899TIP3    H141892   2.286   2.125   9.577 -0.7680  1.8171 -2.4105
 5899TIP3    H241893   2.403   2.112   9.672 -3.6757  0.1348  1.2122
 5900TIP3   OH241894   5.185   5.168  11.150 -0.1321  0.3966 -0.0395
 5900TIP3    H141895   5.266   5.119  11.165 -0.1087 -0.5775 -2.7928
 5900TIP3    H241896   5.212   5.244  11.098 -0.9315  0.1066 -0.9181
 5901TIP3   OH241897   1.621   3.780  10.446  0.2368 -0.0496 -0.8197
 5901TIP3    H141898   1.607   3.749  10.536 -1.4334 -1.1690 -1.4168
 5901TIP3    H241899   1.554   3.848  10.433  0.4197  0.0516 -1.2400
 5902TIP3   OH241900   2.965   6.801  12.074 -0.3841 -0.0795 -0.1729
 5902TIP3    H141901   2.909   6.805  12.151  2.1238 -2.3838  1.9541
 5902TIP3    H241902   3.050   6.832  12.103 -0.3361  3.6085 -3.3837
 5903TIP3   OH241903   4.736   4.910  12.331  0.1084  0.3498 -0.2224
 5903TIP3    H141904   4.814   4.863  12.301  1.1061  1.5217  0.4460
 5903TIP3    H241905   4.768   4.967  12.401 -0.9504  2.2809 -1.2273
 5904TIP3   OH241906   6.176   6.172  10.832  0.5054  0.1749 -0.7845
 5904TIP3    H141907   6.137   6.087  10.810  0.8042  0.2935 -1.8045
 5904TIP3    H241908   6.106   6.235  10.814  0.4859  0.1984 -0.6243
 5905TIP3   OH241909   1.101   1.722  10.339 -0.2295  0.2945  0.5088
 5905TIP3    H141910   1.011   1.695  10.321  0.5166 -1.5551 -0.6301
 5905TIP3    H241911   1.107   1.811  10.303 -1.8821  0.9144  1.6391
 5906TIP3   OH241912   5.245   7.433  10.977 -0.3189 -0.0689 -0.6687
 5906TIP3    H141913   5.290   7.430  10.893 -0.2111 -0.6555 -0.5957
 5906TIP3    H241914   5.309   7.401  11.041 -0.3084  0.6353 -0.3192
 5907TIP3   OH241915   4.383   3.369  10.902 -0.3698  0.0376  0.2944
 5907TIP3    H141916   4.401   3.278  10.926 -0.9268 -0.5469 -1.3627
 5907TIP3    H241917   4.317   3.397  10.965 -1.5418 -1.3150 -0.2722
 5908TIP3   OH241918   0.276   7.342   9.620  0.1391 -0.3950  0.0430
 5908TIP3    H141919   0.190   7.384   9.619  0.6687  0.8489  2.3458
 5908TIP3    H241920   0.336   7.408   9.586  1.0574  1.1327  4.1618
 5909TIP3   OH241921   2.167   6.072   9.941 -0.1859  0.9679  0.0318
 5909TIP3    H141922   2.208   6.074  10.027  0.4905 -3.3317  0.0184
 5909TIP3    H241923   2.233   6.108   9.882  0.4001  1.4416  0.9562
 5910TIP3   OH241924   1.868   5.503  10.995 -0.0451  0.1304  0.3543
 5910TIP3    H141925   1.916   5.435  11.043 -0.9000  0.4574  1.7560
 5910TIP3    H241926   1.836   5.561  11.064 -1.6726  0.4122 -0.5938
 5911TIP3   OH241927   0.668   0.060  11.447  0.3137 -0.3501 -0.5905
 5911TIP3    H141928   0.579   0.024  11.453 -0.0202  0.6460  1.6857
 5911TIP3    H241929   0.725  -0.014  11.468 -0.1341 -0.4748  0.2280
 5912TIP3   OH241930   1.090   1.093  10.542  0.3641 -0.5058  0.0746
 5912TIP3    H141931   1.021   1.055  10.488  1.6071 -0.9726 -1.2541
 5912TIP3    H241932   1.044   1.130  10.617 -1.3093 -0.8633 -0.7252
 5913TIP3   OH241933   5.307   2.590  10.736  0.3647 -0.0708 -0.2261
 5913TIP3    H141934   5.254   2.519  10.701  1.1388 -0.1765 -1.1995
 5913TIP3    H241935   5.376   2.547  10.786 -0.9194  0.0793  1.8151
 5914TIP3   OH241936   7.088   1.190  10.894 -0.3926  0.0094 -0.1494
 5914TIP3    H141937   7.025   1.151  10.955 -1.4973  0.4044 -0.9865
 5914TIP3    H241938   7.118   1.269  10.938  2.2338 -1.8734  1.7790
 5915TIP3   OH241939   4.652   1.570  10.637 -0.1320 -0.0888 -0.5639
 5915TIP3    H141940   4.570   1.620  10.635  0.7472  1.3959 -0.7098
 5915TIP3    H241941   4.662   1.537  10.548 -0.2222  0.3278 -0.7336
 5916TIP3   OH241942   4.398   6.978  12.679  0.1381  0.3406  0.0446
 5916TIP3    H141943   4.486   6.985  12.716 -0.3656  0.2252  1.3013
 5916TIP3    H241944   4.363   7.066  12.683  0.4225  0.5234 -1.0902
 5917TIP3   OH241945   5.593   0.530  12.013  0.1810 -0.5054 -0.7499
 5917TIP3    H141946   5.524   0.494  12.068 -0.3549 -0.3532 -1.3152
 5917TIP3    H241947   5.622   0.609  12.059 -0.7093 -0.0230 -0.9983
 5918TIP3   OH241948   6.823   1.071  10.241  0.0972  0.0655  0.1147
 5918TIP3    H141949   6.761   1.131  10.283 -1.8823  0.8848 -3.5855
 5918TIP3    H241950   6.860   1.121  10.169 -1.0282 -2.7747 -2.6750
 5919TIP3   OH241951   0.971   0.850  10.763 -0.0052 -0.0326  0.0433
 5919TIP3    H141952   0.979   0.785  10.833 -0.2865  1.2390  1.3005
 5919TIP3    H241953   1.061   0.878  10.747 -0.0073  0.2367  0.4698
 5920TIP3   OH241954   3.268   6.200  11.746  0.9977  0.7664  0.2354
 5920TIP3    H141955   3.202   6.162  11.687  0.1333  2.4054  0.0948
 5920TIP3    H241956   3.217   6.251  11.809  2.0707  1.0505  0.8918
 5921TIP3   OH241957   7.336   3.157  11.917  0.5371  0.0984  0.3390
 5921TIP3    H141958   7.266   3.096  11.938  0.1320  0.8328  1.1729
 5921TIP3    H241959   7.360   3.136  11.827  0.7060 -1.5803  0.7386
 5922TIP3   OH241960   7.428   1.646   9.684  0.0080 -0.1273  0.3978
 5922TIP3    H141961   7.418   1.732   9.725  1.1230  0.0142  0.3987
 5922TIP3    H241962   7.347   1.634   9.634 -0.1460  0.9461  0.3624
 5923TIP3   OH241963   3.978   5.775  10.489  0.6352 -0.2785  0.4164
 5923TIP3    H141964   4.023   5.824  10.558  2.7340 -1.4459 -0.0355
 5923TIP3    H241965   3.887   5.802  10.496  1.4779  2.7973  0.9061
 5924TIP3   OH241966   6.411   5.883  10.719 -0.4794 -0.3648  0.3982
 5924TIP3    H141967   6.461   5.803  10.704 -1.2688 -0.6955 -0.5522
 5924TIP3    H241968   6.339   5.857  10.776  0.5818  0.1904  2.0899
 5925TIP3   OH241969   4.627   3.845  11.106  0.0577  0.2617 -0.5033
 5925TIP3    H141970   4.665   3.759  11.127  1.2705  1.0759  0.8502
 5925TIP3    H241971   4.549   3.851  11.161  1.5357  1.1196  1.6522
 5926TIP3   OH241972   4.505   0.575  12.136  0.4346 -0.2800 -0.2288
 5926TIP3    H141973   4.520   0.667  12.115 -0.2251 -0.2347 -0.5327
 5926TIP3    H241974   4.580   0.529  12.099  0.6702  0.1165 -0.2430
 5927TIP3   OH241975   6.180   6.253   9.536 -0.6729  0.1807 -0.5480
 5927TIP3    H141976   6.247   6.300   9.486  0.1078 -0.4698 -0.1474
 5927TIP3    H241977   6.172   6.303   9.618 -1.0711  0.5599 -0.8148
 5928TIP3   OH241978   0.185   4.342  11.765  0.3211  0.3069  0.5102
 5928TIP3    H141979   0.269   4.367  11.728 -0.2918 -0.1188 -1.2703
 5928TIP3    H241980   0.193   4.360  11.858  2.4032  0.1845  0.3895
 5929TIP3   OH241981   0.810   0.897  11.351 -0.1771  0.1892  0.5561
 5929TIP3    H141982   0.878   0.831  11.368  1.9226  2.0941  0.0364
 5929TIP3    H241983   0.783   0.926  11.437  1.2554  0.8771  0.8148
 5930TIP3   OH241984   2.142   5.317  12.865  0.0005 -0.3823  0.0434
 5930TIP3    H141985   2.172   5.408  12.864 -2.2158  0.4641  1.7163
 5930TIP3    H241986   2.222   5.265  12.868  1.3241  1.5854  1.1927
 5931TIP3   OH241987   4.022   5.956  11.822 -0.4090 -0.0348  0.0496
 5931TIP3    H141988   4.040   6.048  11.803 -1.2025 -0.1802 -1.6532
 5931TIP3    H241989   3.927   5.953  11.838 -1.0096 -0.9294 -2.9985
 5932TIP3   OH241990   4.689   3.802  11.667  0.1839  0.0275  0.0364
 5932TIP3    H141991   4.676   3.836  11.756 -0.4662 -0.0894 -0.0037
 5932TIP3    H241992   4.729   3.717  11.679 -2.0790 -1.0790  0.3723
 5933TIP3   OH241993   2.529   4.670  11.202 -0.0655  0.1290 -0.3589
 5933TIP3    H141994   2.557   4.748  11.154 -0.3134  0.7079  0.4166
 5933TIP3    H241995   2.457   4.700  11.257  0.5744 -0.3865  0.7890
 5934TIP3   OH241996   0.071   3.461  10.027  0.0961 -0.3686  0.2185
 5934TIP3    H141997   0.079   3.482   9.934 -0.3203 -0.1562  0.2276
 5934TIP3    H241998   0.139   3.512  10.069 -0.5644  0.5601  0.1793
 5935TIP3   OH241999   0.824   4.916   9.740  0.0757 -0.4173  0.0144
 5935TIP3    H142000   0.833   4.964   9.823  0.4674 -1.3721  0.5419
 5935TIP3    H242001   0.755   4.852   9.757 -0.8251  0.3046 -0.8581
 5936TIP3   OH242002   3.824   6.489  10.199  0.5542 -0.2698 -0.0536
 5936TIP3    H142003   3.897   6.551  10.210  0.4383 -0.0433 -0.5472
 5936TIP3    H242004   3.746   6.541  10.217  0.3749  0.0441 -1.6203
 5937TIP3   OH242005   0.021   4.044  11.585  0.1094  0.1966 -0.1499
 5937TIP3    H142006  -0.061   4.023  11.539 -0.0252 -0.8353  0.5279
 5937TIP3    H242007   0.033   4.137  11.570 -0.0807 -0.0419 -2.0489
 5938TIP3   OH242008   4.138   0.955  10.395 -0.8506 -0.5591 -0.1052
 5938TIP3    H142009   4.157   0.876  10.446 -0.1778 -0.2572  0.1174
 5938TIP3    H242010   4.167   0.934  10.306  0.1474 -0.2644  0.1351
 5939TIP3   OH242011   4.542   4.848  10.981  0.5625  0.4244 -0.0927
 5939TIP3    H142012   4.638   4.848  10.980  0.5808  1.3810  0.5782
 5939TIP3    H242013   4.518   4.935  11.013 -0.4612 -0.8337  2.9550
 5940TIP3   OH242014   0.531   2.415   9.952  0.0095 -0.6107 -0.5943
 5940TIP3    H142015   0.529   2.470  10.031 -0.9116  0.6903 -1.4742
 5940TIP3    H242016   0.624   2.400   9.935  0.2223 -0.6458  0.5527
 5941TIP3   OH242017   1.796   3.385  11.019  0.3748  0.3509 -0.1821
 5941TIP3    H142018   1.750   3.378  10.936  0.2992 -2.2176  0.0104
 5941TIP3    H242019   1.888   3.378  10.996  0.4648  1.3315 -0.1730
 5942TIP3   OH242020   2.331   3.124  11.899 -0.3331  0.1413 -0.0293
 5942TIP3    H142021   2.419   3.154  11.919 -0.3936  1.0769 -1.0869
 5942TIP3    H242022   2.290   3.110  11.985  0.5577  0.5377  0.4653
 5943TIP3   OH242023   2.748   7.045  10.142 -0.2405  0.0419 -0.5925
 5943TIP3    H142024   2.675   7.006  10.093  1.7637 -1.2171 -2.7874
 5943TIP3    H242025   2.787   6.972  10.190  0.5225  0.3536 -0.7197
 5944TIP3   OH242026   6.929   1.329  11.934  0.3741  0.4977 -0.1080
 5944TIP3    H142027   7.004   1.299  11.985  0.2455  0.6477  0.1673
 5944TIP3    H242028   6.961   1.329  11.843  0.9778  1.4051  0.0922
 5945TIP3   OH242029   0.412   4.734  11.251  0.0866  0.5236 -0.1270
 5945TIP3    H142030   0.394   4.655  11.303 -1.2759  0.2831 -0.9187
 5945TIP3    H242031   0.470   4.786  11.306  0.9736 -0.9986  0.4428
 5946TIP3   OH242032   0.241   2.501  11.891 -0.6494  0.3665  0.0091
 5946TIP3    H142033   0.332   2.508  11.918 -1.0109 -0.1213  1.4460
 5946TIP3    H242034   0.241   2.527  11.799  0.9363  0.3293 -0.0255
 5947TIP3   OH242035   4.973   5.469  10.158  0.1583 -0.4453 -0.5657
 5947TIP3    H142036   4.911   5.401  10.132  1.5787 -2.0579  0.0565
 5947TIP3    H242037   4.976   5.528  10.083 -2.0638 -0.3306 -0.6249
 5948TIP3   OH242038   4.356   1.167  11.411 -0.1720  0.3701 -0.5757
 5948TIP3    H142039   4.412   1.105  11.457  0.2353  0.9740 -0.2457
 5948TIP3    H242040   4.365   1.249  11.460 -1.6308  0.3907 -0.2909
 5949TIP3   OH242041   6.611   4.149  11.735  0.1710  0.1798  0.1971
 5949TIP3    H142042   6.561   4.206  11.794 -0.2967  1.5930 -1.4707
 5949TIP3    H242043   6.702   4.161  11.762  0.1397  2.1258 -0.3556
 5950TIP3   OH242044   6.462   0.890  10.758 -0.5671 -0.1525 -0.4400
 5950TIP3    H142045   6.366   0.883  10.757 -0.7568  1.8691 -0.3570
 5950TIP3    H242046   6.492   0.813  10.711 -2.1838 -1.4432  0.5207
 5951TIP3   OH242047   6.357   2.166  12.271  0.2286 -0.0362 -0.2709
 5951TIP3    H142048   6.432   2.134  12.220  2.7563  2.0525  1.8324
 5951TIP3    H242049   6.343   2.098  12.337  0.9486 -0.0041 -0.0777
 5952TIP3   OH242050   7.367   7.249  10.711 -0.2075  0.0890 -0.6483
 5952TIP3    H142051   7.346   7.156  10.708  0.0279 -0.0392  0.9211
 5952TIP3    H242052   7.406   7.268  10.626  0.5559 -1.4509 -0.6701
 5953TIP3   OH242053   0.810   4.533  11.065  0.5041  0.0088 -0.3430
 5953TIP3    H142054   0.780   4.509  10.978 -2.7933  0.9145  0.3855
 5953TIP3    H242055   0.782   4.461  11.121 -0.1195  0.7903  0.3716
 5954TIP3   OH242056   0.976   6.082  11.873  0.6360 -0.2984  0.3602
 5954TIP3    H142057   0.931   6.047  11.796 -0.3321 -0.4153  0.9594
 5954TIP3    H242058   0.961   6.016  11.941 -0.9633  1.0611  1.4315
 5955TIP3   OH242059   7.266   5.266   9.925 -0.3280  0.2749  0.3075
 5955TIP3    H142060   7.174   5.293   9.925 -0.2776  0.4423  0.2520
 5955TIP3    H242061   7.313   5.340   9.888 -0.4454 -0.7653 -2.1353
 5956TIP3   OH242062   6.210   1.274  18.735  0.4105  0.0956 -0.6833
 5956TIP3    H142063   6.156   1.251  18.659  0.1744  1.1141 -0.8448
 5956TIP3    H242064   6.155   1.254  18.810  0.6013 -0.8118 -0.7771
 5957TIP3   OH242065   0.108   0.150  11.253  0.6913 -0.0537 -0.2033
 5957TIP3    H142066   0.126   0.202  11.332  0.0516 -1.6347  1.0359
 5957TIP3    H242067   0.012   0.144  11.250  0.4572  2.4896 -2.8571
 5958TIP3   OH242068   1.373   0.691   9.948  0.0517 -0.5518  0.4775
 5958TIP3    H142069   1.350   0.764  10.006 -2.5225  0.3575 -1.4804
 5958TIP3    H242070   1.327   0.711   9.866  1.3685 -3.1114 -0.9817
 5959TIP3   OH242071   2.728   3.049  10.762 -0.0896 -0.5949 -0.6016
 5959TIP3    H142072   2.795   2.981  10.754  0.4869 -0.1333  0.1765
 5959TIP3    H242073   2.761   3.122  10.709  1.1688  0.4832  1.5272
 5960TIP3   OH242074   7.116   2.449  10.223  0.1232  0.3664 -0.2908
 5960TIP3    H142075   7.075   2.507  10.287 -1.4754  0.1278 -1.0341
 5960TIP3    H242076   7.080   2.478  10.139 -0.3490 -1.3859 -0.7272
 5961TIP3   OH242077   3.386   5.018   9.813  0.2623  0.2614  0.6135
 5961TIP3    H142078   3.428   4.971   9.885 -0.1286 -0.9144  0.1061
 5961TIP3    H242079   3.372   4.951   9.746  0.4391  1.2860 -0.4800
 5962TIP3   OH242080   3.796   7.367   9.893  0.1166  0.4451 -0.7383
 5962TIP3    H142081   3.844   7.443   9.862 -0.1763  1.4444  1.1806
 5962TIP3    H242082   3.850   7.330   9.962 -0.2454 -0.4772 -0.9282
 5963TIP3   OH242083   1.116   4.988  11.446 -0.1818 -0.4409  0.4506
 5963TIP3    H142084   1.193   5.036  11.414 -1.4265  0.9688 -0.5561
 5963TIP3    H242085   1.140   4.961  11.534  1.3814  0.1734  0.2514
 5964TIP3   OH242086   5.499   5.050  11.554  0.2717 -0.5623  0.6304
 5964TIP3    H142087   5.565   4.997  11.598 -0.0355 -0.9368  0.6415
 5964TIP3    H242088   5.425   4.992  11.543 -0.4371  0.1276  1.5192
 5965TIP3   OH242089   1.605   2.803  10.140 -0.5435 -0.2311  0.5073
 5965TIP3    H142090   1.623   2.709  10.145 -0.2759 -0.3150 -1.3564
 5965TIP3    H242091   1.692   2.843  10.128 -0.6975  0.2265  0.8888
 5966TIP3   OH242092   1.654   0.877  11.159  0.2434 -0.4892  0.3423
 5966TIP3    H142093   1.696   0.912  11.238 -0.2334  0.4433  0.1889
 5966TIP3    H242094   1.646   0.952  11.100  0.6005 -1.1725 -0.6128
 5967TIP3   OH242095   1.306   5.957   9.588 -0.5882  0.3493 -0.0663
 5967TIP3    H142096   1.308   5.862   9.573  0.2381  0.1735  1.0564
 5967TIP3    H242097   1.232   5.988   9.535 -0.7991 -0.9019 -0.5359
 5968TIP3   OH242098   2.712   6.913   9.739  0.0663  0.3496 -0.6365
 5968TIP3    H142099   2.660   6.839   9.707  0.8290  0.2790 -1.7461
 5968TIP3    H242100   2.670   6.937   9.822 -0.7037 -0.7798 -0.6757
 5969TIP3   OH242101   4.728   1.417  10.873  0.4506 -0.3418  0.0553
 5969TIP3    H142102   4.651   1.361  10.870  0.3056 -0.1325 -0.1527
 5969TIP3    H242103   4.711   1.485  10.808  0.5395  0.0522  0.4427
 5970TIP3   OH242104   6.319   4.252  10.706 -0.0054  0.1092  0.3995
 5970TIP3    H142105   6.255   4.293  10.648 -0.4130 -2.4308 -1.0926
 5970TIP3    H242106   6.331   4.165  10.670  1.7126 -0.6884  2.6912
 5971TIP3   OH242107   5.164   1.184  10.506  0.4902 -0.1319 -0.3044
 5971TIP3    H142108   5.114   1.137  10.438  1.5240 -0.2584 -0.9914
 5971TIP3    H242109   5.109   1.259  10.527 -0.1041 -0.3819 -0.8949
 5972TIP3   OH242110   3.030   1.166   9.509  0.1119  0.0983 -0.2008
 5972TIP3    H142111   3.111   1.216   9.516 -0.0202  0.3735 -0.6165
 5972TIP3    H242112   3.058   1.075   9.508  0.3876  0.1792  0.0506
 5973TIP3   OH242113   7.120   2.187  11.556  0.4942  0.4909 -0.7798
 5973TIP3    H142114   7.186   2.215  11.619 -0.2630 -0.5618  0.5400
 5973TIP3    H242115   7.170   2.157  11.480  1.4840  0.5602 -0.1763
 5974TIP3   OH242116   4.854   7.025  11.359 -0.2254 -0.6165  0.0096
 5974TIP3    H142117   4.807   6.954  11.403 -0.0616 -0.4808  0.4049
 5974TIP3    H242118   4.826   7.104  11.404 -0.9416 -0.3446 -0.8845
 5975TIP3   OH242119   0.781   4.719  10.115 -0.1138  0.1543  0.3488
 5975TIP3    H142120   0.757   4.636  10.073 -0.3460  1.6280 -2.6973
 5975TIP3    H242121   0.870   4.736  10.083 -0.3226  1.3860  0.3795
 5976TIP3   OH242122   3.837   5.854  10.179 -0.4434  0.3878  0.0716
 5976TIP3    H142123   3.883   5.875  10.097 -0.5997 -0.4050 -0.2358
 5976TIP3    H242124   3.789   5.934  10.201  1.4081  1.4090  0.6551
 5977TIP3   OH242125   6.861   6.410   9.519  0.4314 -0.2275 -0.2863
 5977TIP3    H142126   6.922   6.482   9.531 -1.6552  1.8239 -1.2880
 5977TIP3    H242127   6.838   6.383   9.607 -1.3380  2.7169  0.2594
 5978TIP3   OH242128   5.757   6.986  11.837  0.8550 -0.1787 -0.0241
 5978TIP3    H142129   5.710   7.016  11.914 -0.6989 -2.2773 -0.0524
 5978TIP3    H242130   5.703   6.915  11.802  2.0565 -0.0316 -2.4245
 5979TIP3   OH242131   7.020   1.234  10.467 -0.3484 -0.4388 -0.3926
 5979TIP3    H142132   6.935   1.273  10.446 -0.6229 -0.7054  0.2125
 5979TIP3    H242133   7.073   1.306  10.500 -0.4572 -0.3411 -0.4319
 5980TIP3   OH242134   7.304   3.518  10.748 -0.1914  0.6016 -0.2981
 5980TIP3    H142135   7.303   3.456  10.675 -0.3367 -0.2235  0.3889
 5980TIP3    H242136   7.391   3.508  10.787 -0.5933  0.0001  0.4883
 5981TIP3   OH242137   3.585   7.203  11.318  0.0999 -0.1481  0.1303
 5981TIP3    H142138   3.581   7.298  11.319  0.0581 -0.1526  0.3789
 5981TIP3    H242139   3.645   7.180  11.389  0.2909 -0.2988 -0.0752
 5982TIP3   OH242140   4.301   0.072  11.270 -0.6839  0.7051  0.4359
 5982TIP3    H142141   4.296   0.069  11.174 -0.1852 -1.8692  0.4225
 5982TIP3    H242142   4.219   0.032  11.299 -0.3017  0.3566  1.0529
 5983TIP3   OH242143   1.363   4.342  10.374  0.3569  0.3020  0.0830
 5983TIP3    H142144   1.347   4.433  10.398  1.3211  0.8021 -1.0782
 5983TIP3    H242145   1.439   4.317  10.427  0.3188  0.2822  0.1289
 5984TIP3   OH242146   2.357   2.516  10.055 -0.3470  0.2945 -0.1777
 5984TIP3    H142147   2.280   2.552  10.011 -0.4105 -0.5647 -0.8093
 5984TIP3    H242148   2.336   2.423  10.067  0.3029  0.2028  0.2962
 5985TIP3   OH242149   3.292   4.563  11.836 -0.1458  0.2993 -0.1074
 5985TIP3    H142150   3.270   4.523  11.752 -2.2571 -1.0883  1.0299
 5985TIP3    H242151   3.225   4.630  11.849  0.5537  0.9550  0.1977
 5986TIP3   OH242152   0.378   2.491  12.181  0.5051  0.1080 -0.6080
 5986TIP3    H142153   0.416   2.570  12.219  1.0205  0.5431 -1.9834
 5986TIP3    H242154   0.284   2.510  12.175  0.7592  1.0542 -1.9062
 5987TIP3   OH242155   3.591   0.455  12.468 -0.5319  0.0478  0.0141
 5987TIP3    H142156   3.564   0.367  12.495 -0.0376  0.2024  1.0686
 5987TIP3    H242157   3.675   0.442  12.425  0.9384  0.2452  2.6176
 5988TIP3   OH242158   3.870   5.579  10.086 -0.0074 -0.3204  0.3045
 5988TIP3    H142159   3.795   5.521  10.075 -0.4528  0.1144  1.0171
 5988TIP3    H242160   3.837   5.666  10.063  0.6356 -0.3188 -0.6887
 5989TIP3   OH242161   2.647   5.103  11.546  0.1050 -0.1460 -0.3982
 5989TIP3    H142162   2.696   5.162  11.603  0.1766 -0.7153  0.1419
 5989TIP3    H242163   2.635   5.024  11.598 -1.2750 -0.0677 -0.5630
 5990TIP3   OH242164   0.047   1.479  11.913 -0.1222 -0.1613 -0.2459
 5990TIP3    H142165   0.062   1.405  11.972 -1.6438  0.4853  1.0194
 5990TIP3    H242166  -0.046   1.474  11.892  0.2064  0.1672 -1.8854
 5991TIP3   OH242167   6.202   4.027  10.528 -0.1530  0.0032  0.1335
 5991TIP3    H142168   6.119   3.979  10.535 -1.0913  1.6711  0.9484
 5991TIP3    H242169   6.182   4.100  10.470  0.9544  0.0591 -0.2016
 5992TIP3   OH242170   6.959   2.189  11.110  0.0587  0.0560 -0.4543
 5992TIP3    H142171   6.942   2.152  11.197 -0.2989 -0.9173 -0.9362
 5992TIP3    H242172   6.874   2.220  11.080  0.1273  0.1082 -0.5967
 5993TIP3   OH242173   6.679   2.432   9.944  0.4468  0.0170 -0.4018
 5993TIP3    H142174   6.618   2.359   9.942 -0.1429  0.5014 -1.2047
 5993TIP3    H242175   6.627   2.507   9.911  1.3982  0.4845 -0.8856
 5994TIP3   OH242176   6.852   5.986   9.449 -0.0112  0.1129  0.3465
 5994TIP3    H142177   6.916   6.037   9.399  0.3328 -1.2093 -0.6141
 5994TIP3    H242178   6.892   5.974   9.535 -0.4008  2.0135  0.8462
 5995TIP3   OH242179   0.305   3.209   9.721 -0.1981  0.3360  0.1765
 5995TIP3    H142180   0.339   3.133   9.673  1.6012  1.3474 -0.2675
 5995TIP3    H242181   0.328   3.191   9.812  0.9998  0.6988 -0.0346
 5996TIP3   OH242182   7.200   1.259  12.064  0.3765  0.6496 -0.2638
 5996TIP3    H142183   7.240   1.340  12.034  1.2485  0.2671 -0.1746
 5996TIP3    H242184   7.205   1.200  11.989 -0.1894  0.6495 -0.3062
 5997TIP3   OH242185   7.224   0.559  12.523  0.3567  0.3312 -0.3146
 5997TIP3    H142186   7.263   0.592  12.605 -2.4644 -0.8543  1.6526
 5997TIP3    H242187   7.226   0.634  12.464  1.7877  1.4642  1.0705
 5998TIP3   OH242188   4.985   1.322  11.345 -1.0248 -0.2453 -0.6478
 5998TIP3    H142189   4.906   1.371  11.323 -1.4151 -1.3031 -1.7287
 5998TIP3    H242190   4.970   1.235  11.310  1.4032  0.0357 -2.7496
 5999TIP3   OH242191   2.944   3.989  11.786 -0.0287  0.2008 -0.0030
 5999TIP3    H142192   2.913   3.907  11.747 -0.9797  0.1900  0.7467
 5999TIP3    H242193   2.868   4.024  11.833 -0.0283  2.1385 -1.3024
 6000TIP3   OH242194   2.986   5.553   9.529  0.0507  0.5104  0.3418
 6000TIP3    H142195   3.053   5.496   9.566 -0.7090  0.0472  1.0419
 6000TIP3    H242196   3.035   5.625   9.488  0.9851 -0.1953  0.2004
 6001TIP3   OH242197   3.570   1.035  10.082 -0.0253  0.1140  0.6350
 6001TIP3    H142198   3.660   1.010  10.100  0.0047  0.8088  1.4917
 6001TIP3    H242199   3.517   0.970  10.128  0.0089 -0.8335 -0.6086
 6002TIP3   OH242200   6.244   4.877  10.223  0.4029  1.0808 -0.1962
 6002TIP3    H142201   6.167   4.933  10.217 -0.0074  0.5143 -0.3394
 6002TIP3    H242202   6.235   4.815  10.151  1.8683  2.0409 -1.2483
 6003TIP3   OH242203   0.649   6.500  10.296  0.2385  0.9173 -0.2859
 6003TIP3    H142204   0.613   6.549  10.222  1.0420  0.2055 -1.1755
 6003TIP3    H242205   0.677   6.416  10.258  1.7297  0.9880  0.5773
 6004TIP3   OH242206   3.855   5.240   9.898 -0.3036 -0.2157  0.5476
 6004TIP3    H142207   3.861   5.189   9.818 -0.3591  1.0165 -0.2813
 6004TIP3    H242208   3.762   5.237   9.922 -0.3689 -0.2112  0.2980
 6005TIP3   OH242209   0.094   5.490  11.335  0.4444 -0.1005 -0.0188
 6005TIP3    H142210   0.008   5.515  11.370 -0.1651 -0.1530 -1.4220
 6005TIP3    H242211   0.139   5.449  11.410 -0.6700  0.0935  0.7889
 6006TIP3   OH242212   1.537   4.579  10.195 -0.2218 -0.1663  0.6082
 6006TIP3    H142213   1.487   4.635  10.136 -1.5032 -1.0121  0.8646
 6006TIP3    H242214   1.514   4.610  10.283  1.6883  1.1009  0.7152
 6007TIP3   OH242215   2.263   2.906  10.380 -0.3893  0.7989  0.1983
 6007TIP3    H142216   2.284   2.947  10.296 -1.3113  1.9701  0.5085
 6007TIP3    H242217   2.245   2.814  10.359  0.4378  0.8283 -0.7076
 6008TIP3   OH242218   1.379   6.511  11.917 -0.3164 -0.4236  0.4233
 6008TIP3    H142219   1.305   6.450  11.910  0.3587 -1.3953  1.4064
 6008TIP3    H242220   1.387   6.528  12.011  1.1996 -0.9740  0.4143
 6009TIP3   OH242221   2.396   3.809   9.818 -0.0140  0.2007 -0.5802
 6009TIP3    H142222   2.462   3.745   9.845 -0.0908  0.1082 -0.6093
 6009TIP3    H242223   2.313   3.772   9.848  0.0854  1.0296  0.7877
 6010TIP3   OH242224   2.158   1.825  10.414 -0.1958 -0.5068  0.2918
 6010TIP3    H142225   2.239   1.773  10.410  0.2977  0.2504  0.2791
 6010TIP3    H242226   2.094   1.766  10.454  0.2266 -1.2849 -0.1543
 6011TIP3   OH242227   6.250   2.381   9.929  0.3783  0.0831  0.5051
 6011TIP3    H142228   6.201   2.315   9.879  0.4768 -0.8682  1.6155
 6011TIP3    H242229   6.332   2.337   9.952  0.6025  0.7260  0.9394
 6012TIP3   OH242230   6.499   2.910  12.054  0.6114 -0.5737  0.0335
 6012TIP3    H142231   6.496   2.875  12.143  1.6334  1.0417  0.7413
 6012TIP3    H242232   6.412   2.892  12.018  0.3076 -1.5888  1.2163
 6013TIP3   OH242233   2.643   1.254  11.248  0.3770  0.3209 -0.7729
 6013TIP3    H142234   2.670   1.281  11.336  0.8654  0.4915 -0.9665
 6013TIP3    H242235   2.693   1.174  11.231 -1.7887 -1.3363  0.1855
 6014TIP3   OH242236   5.270   7.042  12.667  0.0124 -0.0824  0.5935
 6014TIP3    H142237   5.193   7.067  12.615  2.3814  2.1824 -2.2394
 6014TIP3    H242238   5.259   7.089  12.749 -1.2221  0.9439 -0.1116
 6015TIP3   OH242239   1.771   6.137  11.914  0.6549  0.1820  0.5200
 6015TIP3    H142240   1.761   6.073  11.844 -1.1169 -0.8690  1.6441
 6015TIP3    H242241   1.690   6.187  11.913  0.5342  0.0560  1.8809
 6016TIP3   OH242242   2.934   1.473  11.442 -0.0358  0.4870  0.1044
 6016TIP3    H142243   2.937   1.568  11.437  0.8053  0.4543 -0.1423
 6016TIP3    H242244   3.015   1.449  11.486 -0.7089 -0.0660  1.0776
 6017TIP3   OH242245   4.086   7.330   9.706  0.5587  0.0793 -0.8138
 6017TIP3    H142246   4.029   7.366   9.638 -0.2496 -0.2991 -0.3460
 6017TIP3    H242247   4.174   7.340   9.671  0.3150  1.8560 -1.0170
 6018TIP3   OH242248   1.251   1.274  11.230 -0.8110 -0.0952 -0.0914
 6018TIP3    H142249   1.215   1.252  11.316 -0.8742 -0.9192 -0.3253
 6018TIP3    H242250   1.231   1.367  11.220  1.4171  0.6997  1.8711
 6019TIP3   OH242251   3.984   3.997  11.972  0.4210  0.1388  0.2605
 6019TIP3    H142252   3.960   3.920  11.919  0.9719  0.3240 -0.2668
 6019TIP3    H242253   4.074   4.017  11.946  0.4707  0.6343  0.7976
 6020TIP3   OH242254   6.847   2.709  10.177  0.6022 -0.0538 -0.0876
 6020TIP3    H142255   6.760   2.676  10.199  0.9779 -0.3120  1.1132
 6020TIP3    H242256   6.901   2.687  10.253  1.8797 -0.4663 -1.0722
 6021TIP3   OH242257   4.184   0.117   9.701  0.4342 -0.6631  0.5615
 6021TIP3    H142258   4.167   0.105   9.794  0.4954  1.8326  0.9551
 6021TIP3    H242259   4.192   0.212   9.689  0.1971 -0.8784 -2.0346
 6022TIP3   OH242260   7.124   1.577  12.210  0.6603  0.4962  0.0898
 6022TIP3    H142261   7.198   1.618  12.165 -0.2543  2.3816  0.2088
 6022TIP3    H242262   7.046   1.613  12.166 -0.2088  0.0140  1.1843
 6023TIP3   OH242263   5.735   3.628  10.067  0.5078 -0.4008  1.0915
 6023TIP3    H142264   5.650   3.616  10.109  0.0529  1.5110  0.8217
 6023TIP3    H242265   5.744   3.553  10.009 -1.5153 -0.0862  0.3020
 6024TIP3   OH242266   1.656   5.439  11.582 -0.1916 -0.4577 -0.4578
 6024TIP3    H142267   1.639   5.424  11.675  0.0902 -0.6114 -0.4299
 6024TIP3    H242268   1.659   5.351  11.544  0.4650 -0.4309 -0.4754
 6025TIP3   OH242269   6.795   5.233  10.185 -0.7090 -0.2977 -0.3009
 6025TIP3    H142270   6.717   5.283  10.161 -1.1335 -1.3573 -1.2440
 6025TIP3    H242271   6.824   5.271  10.268 -3.2297 -0.9785  0.9825
 6026TIP3   OH242272   4.909   1.903  10.296  0.8093  0.1627 -0.0623
 6026TIP3    H142273   4.906   1.985  10.248 -0.3514  0.6784  0.8544
 6026TIP3    H242274   4.819   1.870  10.295  1.2395 -1.0826 -0.3763
 6027TIP3   OH242275   2.433   0.787  11.779 -0.3051  0.7701 -0.2558
 6027TIP3    H142276   2.469   0.752  11.698  0.2496  1.8644 -0.4877
 6027TIP3    H242277   2.397   0.710  11.824  1.8899 -0.3046 -0.2203
 6028TIP3   OH242278   7.208   5.604  11.847  0.2162  0.4677 -0.0516
 6028TIP3    H142279   7.177   5.694  11.853  1.4070  0.9273 -0.5177
 6028TIP3    H242280   7.194   5.568  11.934 -0.6345  0.9719  0.0313
 6029TIP3   OH242281   0.483   0.883  12.136  0.4029 -0.2712 -0.2303
 6029TIP3    H142282   0.462   0.791  12.124  0.5139 -0.2816 -0.3450
 6029TIP3    H242283   0.533   0.886  12.217 -0.1084 -0.2361  0.0896
 6030TIP3   OH242284   3.900   0.355   9.695 -0.0006  0.7464  1.1981
 6030TIP3    H142285   3.946   0.379   9.614 -0.0098 -0.8377  0.6972
 6030TIP3    H242286   3.967   0.360   9.762  0.3122  0.8531  0.8831
 6031TIP3   OH242287   2.394   0.421  11.637  0.3652 -0.2679 -0.0071
 6031TIP3    H142288   2.382   0.439  11.731 -0.4969 -1.3988  0.1289
 6031TIP3    H242289   2.320   0.464  11.595  2.1523  2.5016 -0.5190
 6032TIP3   OH242290   3.740   3.736  11.056  0.5324 -0.9385  0.2542
 6032TIP3    H142291   3.722   3.828  11.038 -0.8875 -1.3172 -0.4488
 6032TIP3    H242292   3.794   3.737  11.135  0.3950  0.4863  0.3609
 6033TIP3   OH242293   3.710   0.016  10.148 -0.0304  0.5865 -0.0361
 6033TIP3    H142294   3.661  -0.051  10.100 -0.1127  0.6584 -0.0525
 6033TIP3    H242295   3.649   0.089  10.156  0.6898  1.4437 -1.7593
 6034TIP3   OH242296   1.507   0.348  10.123 -0.8735  0.0757  0.1945
 6034TIP3    H142297   1.550   0.267  10.096 -0.5558 -0.2248  1.5262
 6034TIP3    H242298   1.427   0.320  10.166 -1.4808  0.5491 -0.6127
 6035TIP3   OH242299   2.927   3.515  11.558  0.2751  0.4944 -0.0080
 6035TIP3    H142300   2.934   3.441  11.619  0.0606  0.1423 -0.4006
 6035TIP3    H242301   3.009   3.513  11.508  0.3107  0.5788  0.0485
 6036TIP3   OH242302   1.819   5.619  10.755 -0.4887 -0.4063 -0.5626
 6036TIP3    H142303   1.735   5.621  10.708 -1.5254  1.0046  1.1998
 6036TIP3    H242304   1.802   5.565  10.832 -0.5866  1.7421  1.0437
 6037TIP3   OH242305   2.789   0.199  10.938 -0.3669  0.4274  0.3612
 6037TIP3    H142306   2.716   0.206  10.999 -0.2540 -0.7823  0.6598
 6037TIP3    H242307   2.764   0.129  10.877  0.6977 -0.3010  0.7299
 6038TIP3   OH242308   1.298   2.916  10.510  0.3944  0.1141  0.1144
 6038TIP3    H142309   1.367   2.943  10.571  1.2495  0.6699 -1.0564
 6038TIP3    H242310   1.344   2.900  10.427 -0.2129 -3.9296  0.3822
 6039TIP3   OH242311   5.521   6.212  11.372 -0.4743  0.3090  0.0674
 6039TIP3    H142312   5.526   6.248  11.460 -0.4089  1.2514 -0.3103
 6039TIP3    H242313   5.517   6.117  11.385 -1.7567  0.4765  1.1344
 6040TIP3   OH242314   2.452   6.469   9.578  0.2238  0.0658 -0.2438
 6040TIP3    H142315   2.543   6.450   9.559  0.3757 -0.3632  0.8234
 6040TIP3    H242316   2.404   6.394   9.541  0.3675 -0.0420 -0.2137
 6041TIP3   OH242317   7.433   7.477   9.583 -0.1726  0.1670  0.0873
 6041TIP3    H142318   7.415   7.486   9.677 -0.5788  1.3847 -0.0846
 6041TIP3    H242319   7.355   7.434   9.547  0.2667 -0.9236  0.3900
 6042TIP3   OH242320   4.539   0.211  10.024 -0.0716  0.0872 -0.0025
 6042TIP3    H142321   4.455   0.254  10.039 -0.2747 -0.8352  1.7165
 6042TIP3    H242322   4.521   0.118  10.035  0.5501 -0.4659 -2.7758
 6043TIP3   OH242323   6.394   1.498  11.668  0.1639 -0.0448 -0.3644
 6043TIP3    H142324   6.351   1.416  11.643  1.6227 -0.5801 -1.2771
 6043TIP3    H242325   6.363   1.515  11.757 -0.3565 -1.4755 -0.2414
 6044TIP3   OH242326   2.702   7.071  12.400 -0.1137 -0.0650  0.1682
 6044TIP3    H142327   2.653   7.127  12.339  0.3791 -0.6876 -0.8271
 6044TIP3    H242328   2.667   7.094  12.486 -1.7015 -0.0187 -0.4363
 6045TIP3   OH242329   4.504   4.093   9.854  0.1789 -0.2415 -0.0653
 6045TIP3    H142330   4.587   4.048   9.867  0.4624 -0.2556 -1.7092
 6045TIP3    H242331   4.438   4.026   9.872  0.5700 -0.8969 -0.9958
 6046TIP3   OH242332   5.704   3.376  11.653 -0.5052  0.2578  1.1125
 6046TIP3    H142333   5.644   3.303  11.668 -1.1347  1.0338  2.4577
 6046TIP3    H242334   5.672   3.418  11.574  0.7542 -1.7634 -0.6141
 6047TIP3   OH242335   2.933   4.437   9.784  0.1857  0.4668 -0.0704
 6047TIP3    H142336   2.929   4.341   9.790 -0.1806  0.1443 -3.5746
 6047TIP3    H242337   2.841   4.464   9.775  0.2916  1.1736  0.8678
 6048TIP3   OH242338   4.459   2.504   9.286 -0.1910 -0.8873  1.1354
 6048TIP3    H142339   4.475   2.505   9.191 -0.8450  1.4278  0.9828
 6048TIP3    H242340   4.479   2.415   9.313 -0.4998 -1.7571 -1.2752
 6049TIP3   OH242341   2.772   1.330  10.700 -0.1910 -0.0221  0.1355
 6049TIP3    H142342   2.682   1.364  10.707  0.7541  2.9728 -0.8375
 6049TIP3    H242343   2.769   1.269  10.626 -1.2579  0.6675 -0.4159
 6050TIP3   OH242344   7.022   5.162   9.995  0.0110  0.5482 -0.1601
 6050TIP3    H142345   6.940   5.179  10.041  0.0157  1.2671 -0.4018
 6050TIP3    H242346   6.996   5.146   9.904  0.0606 -0.2095 -0.0488
 6051TIP3   OH242347   1.799   5.351  11.318 -0.6739  0.0554 -0.1042
 6051TIP3    H142348   1.717   5.345  11.269 -0.9931 -1.3260  0.5568
 6051TIP3    H242349   1.798   5.276  11.377 -0.3089  1.6136  2.0574
 6052TIP3   OH242350   4.207   1.489  10.439 -0.0173 -0.1948  0.3034
 6052TIP3    H142351   4.248   1.411  10.400  0.7056  0.7678 -0.9492
 6052TIP3    H242352   4.206   1.553  10.368 -2.0224  0.4406  0.8628
 6053TIP3   OH242353   3.143   0.739  10.228 -0.2984 -0.6770  0.3171
 6053TIP3    H142354   3.062   0.723  10.180 -0.2282 -0.8825  0.2684
 6053TIP3    H242355   3.114   0.761  10.317 -0.3913 -1.1706  0.4110
 6054TIP3   OH242356   3.979   0.240  12.348 -0.2968  0.0728 -0.8948
 6054TIP3    H142357   3.911   0.300  12.375 -0.4629  0.0577 -1.2712
 6054TIP3    H242358   4.033   0.290  12.287 -0.8165 -0.3435 -1.7214
 6055TIP3   OH242359   3.760   4.763  10.387 -0.1671 -0.2827 -0.6294
 6055TIP3    H142360   3.772   4.847  10.342 -0.2095  1.2709  2.0628
 6055TIP3    H242361   3.670   4.737  10.365  0.4598 -0.6876 -3.0336
 6056TIP3   OH242362   5.317   0.571  11.221 -0.0483  0.5916  0.1775
 6056TIP3    H142363   5.363   0.641  11.268  1.2094  0.5999 -1.0010
 6056TIP3    H242364   5.227   0.602  11.215  0.4967  2.1976 -0.4170
 6057TIP3   OH242365   4.995   3.362  10.125  0.0505  0.5908  0.1549
 6057TIP3    H142366   5.010   3.268  10.138  0.7584  0.6474 -0.1994
 6057TIP3    H242367   4.935   3.367  10.051  0.6788  0.4365 -0.3699
 6058TIP3   OH242368   3.994   7.011  10.780 -0.6065 -0.0901  0.2699
 6058TIP3    H142369   4.030   7.032  10.866  0.9391 -0.4005 -0.2681
 6058TIP3    H242370   3.947   6.929  10.793 -0.1241 -0.2976  0.7562
 6059TIP3   OH242371   5.418   1.806  11.580 -0.2823 -0.1267 -0.3309
 6059TIP3    H142372   5.446   1.732  11.526  0.2587 -1.4639  1.6686
 6059TIP3    H242373   5.490   1.821  11.641 -0.8814  1.3010  0.0769
 6060TIP3   OH242374   1.593   3.268  10.141  0.4743 -0.0910  0.2265
 6060TIP3    H142375   1.628   3.211  10.072 -0.4145  0.4312 -0.6795
 6060TIP3    H242376   1.641   3.242  10.219  2.6141  0.3506 -0.8676
 6061TIP3   OH242377   4.407   0.939  10.717  0.2021  0.2991  0.5718
 6061TIP3    H142378   4.403   0.870  10.651  1.8633 -0.6320  1.3810
 6061TIP3    H242379   4.498   0.939  10.746 -0.7555 -0.3302  3.9152
 6062TIP3   OH242380   7.027   3.927  11.355 -0.2071 -0.2336 -0.1026
 6062TIP3    H142381   6.968   3.851  11.346  1.0754 -1.4001  0.9804
 6062TIP3    H242382   7.036   3.960  11.266 -1.2125 -1.0321 -0.5256
 6063TIP3   OH242383   2.471   3.767  10.793 -0.6908  0.2129 -0.0846
 6063TIP3    H142384   2.437   3.738  10.708 -0.5401  0.6798 -0.3122
 6063TIP3    H242385   2.412   3.838  10.818 -0.3670  0.4853 -0.0935
 6064TIP3   OH242386   1.040   1.059  10.015 -0.0830  0.4458 -0.0404
 6064TIP3    H142387   1.032   1.146  10.054 -1.6155 -0.1007  0.9598
 6064TIP3    H242388   0.990   1.065   9.933 -0.1516  0.5185  0.0061
 6065TIP3   OH242389   6.790   0.182  10.142  0.2869  0.4252 -0.2857
 6065TIP3    H142390   6.814   0.179  10.234 -0.4848  0.7529 -0.0612
 6065TIP3    H242391   6.822   0.266  10.111  0.2548  0.4584 -0.2292
 6066TIP3   OH242392   3.195   5.326  12.275 -0.0387  0.7476 -0.1256
 6066TIP3    H142393   3.120   5.274  12.305  1.1078 -0.6022  0.4823
 6066TIP3    H242394   3.268   5.295  12.328  1.6879 -0.3653 -2.9709
 6067TIP3   OH242395   0.840   5.957  10.187  0.1401  0.2069  0.2488
 6067TIP3    H142396   0.763   5.958  10.131  0.9636  0.0057 -0.9319
 6067TIP3    H242397   0.908   5.999  10.135  1.4229 -1.6218  0.3321
 6068TIP3   OH242398   7.428   5.139  10.256 -0.4217  0.0012  0.4214
 6068TIP3    H142399   7.347   5.187  10.270 -1.0498 -1.5913  3.0842
 6068TIP3    H242400   7.443   5.143  10.162 -4.4943 -1.0375 -0.4615
 6069TIP3   OH242401   7.381   3.701  11.450 -0.4567 -0.1705 -0.1509
 6069TIP3    H142402   7.418   3.613  11.440 -1.7637 -0.7922  0.2330
 6069TIP3    H242403   7.455   3.760  11.437  0.7462 -1.3660  1.0450
 6070TIP3   OH242404   7.193   5.768   9.850  0.2849  0.1374  0.3076
 6070TIP3    H142405   7.128   5.767   9.780  1.0182  1.4999 -0.4110
 6070TIP3    H242406   7.218   5.859   9.859  0.2924 -0.0088  2.2938
 6071TIP3   OH242407   3.768   0.113  10.948  0.5606  0.5243  0.4531
 6071TIP3    H142408   3.764   0.054  11.024 -2.6467 -0.4509 -0.3445
 6071TIP3    H242409   3.741   0.198  10.982 -0.6906  0.1308  0.4647
 6072TIP3   OH242410   5.245   4.458   9.708  0.1529 -0.6491 -0.0010
 6072TIP3    H142411   5.154   4.487   9.717 -0.3008 -1.5630 -1.2704
 6072TIP3    H242412   5.244   4.367   9.737  0.5423 -0.8246 -0.5074
 6073TIP3   OH242413   1.659   6.764  10.816  0.0381  0.2421  0.2120
 6073TIP3    H142414   1.675   6.822  10.741  1.8979 -0.0164  0.3524
 6073TIP3    H242415   1.673   6.819  10.893  2.3980 -0.4374  0.3521
 6074TIP3   OH242416   3.440   5.945  11.142  0.2968 -0.4411  0.3176
 6074TIP3    H142417   3.360   5.986  11.108  1.7695  0.8649 -1.7935
 6074TIP3    H242418   3.408   5.873  11.196 -2.3073 -1.1530 -1.9327
 6075TIP3   OH242419   5.936   7.164  10.432 -0.8055 -0.9023  0.1390
 6075TIP3    H142420   5.842   7.180  10.424 -0.3638  1.2101 -1.6558
 6075TIP3    H242421   5.955   7.100  10.363 -0.7862 -0.5600 -0.1785
 6076TIP3   OH242422   1.849   2.563  12.005 -0.6008  0.4943  0.1888
 6076TIP3    H142423   1.836   2.621  12.080 -0.4395  0.3188  0.3539
 6076TIP3    H242424   1.879   2.481  12.044  1.4995  1.0177 -0.2138
 6077TIP3   OH242425   4.090   0.599  11.315  0.2160  0.0552  0.5179
 6077TIP3    H142426   4.031   0.621  11.387  0.1781  0.4672  0.3590
 6077TIP3    H242427   4.166   0.559  11.358  0.4979  0.9187  0.8468
 6078TIP3   OH242428   5.700   1.844  11.638  0.0191  0.2684 -0.6449
 6078TIP3    H142429   5.772   1.796  11.679  0.5141  2.5092  1.3944
 6078TIP3    H242430   5.707   1.824  11.545  2.1782 -0.9923 -0.2762
 6079TIP3   OH242431   4.290   2.382  10.494  0.3950 -0.3231 -0.3329
 6079TIP3    H142432   4.300   2.380  10.589  0.9997  0.2497 -0.3783
 6079TIP3    H242433   4.308   2.292  10.465  0.4883 -0.4318  0.0676
 6080TIP3   OH242434   6.516   4.870  10.273  0.4042  0.5493  0.3904
 6080TIP3    H142435   6.432   4.889  10.314  0.0883 -0.0052  0.0161
 6080TIP3    H242436   6.509   4.910  10.186  0.2062 -0.1780  0.0588
 6081TIP3   OH242437   2.256   4.751  11.305 -0.0837  0.1771 -0.0989
 6081TIP3    H142438   2.322   4.813  11.333  0.1428  0.3909 -1.0656
 6081TIP3    H242439   2.182   4.805  11.277 -1.3211 -0.0753  2.3807
 6082TIP3   OH242440   3.192   6.148  12.339  0.9973 -0.0585  0.0824
 6082TIP3    H142441   3.261   6.213  12.357  2.0492 -0.7872 -1.1937
 6082TIP3    H242442   3.160   6.123  12.426  1.7210  0.9532  0.6610
 6083TIP3   OH242443   0.025   4.732  10.885 -0.1561 -0.2532 -0.3214
 6083TIP3    H142444   0.051   4.767  10.800  0.4612 -0.3226 -0.1642
 6083TIP3    H242445   0.104   4.735  10.938 -0.7366  0.6512  0.5487
 6084TIP3   OH242446   4.261   3.257  10.693 -0.0949  0.1144 -0.1414
 6084TIP3    H142447   4.306   3.312  10.756  0.5977  1.0609 -1.4039
 6084TIP3    H242448   4.221   3.320  10.631 -2.3501 -0.7077  0.3736
 6085TIP3   OH242449   6.365   6.768  11.111  0.6223 -0.4114  0.0201
 6085TIP3    H142450   6.291   6.828  11.100  1.8543  1.6993  2.2089
 6085TIP3    H242451   6.423   6.787  11.037  0.4282  0.2569  0.0349
 6086TIP3   OH242452   2.249   1.423  11.323 -0.1173  0.0186  0.0920
 6086TIP3    H142453   2.212   1.425  11.235 -0.4067 -0.4895  0.1983
 6086TIP3    H242454   2.191   1.365  11.373 -2.2668  3.2116  1.6817
 6087TIP3   OH242455   0.073   6.177  12.241  0.1766  0.2460 -0.7060
 6087TIP3    H142456   0.142   6.239  12.264 -0.3856 -0.0217  1.9969
 6087TIP3    H242457   0.023   6.221  12.172  2.2401  0.9679 -1.8256
 6088TIP3   OH242458   5.444   0.850  12.135  0.3345  0.3449 -0.6921
 6088TIP3    H142459   5.407   0.904  12.065 -0.8675  1.5809  0.8043
 6088TIP3    H242460   5.369   0.802  12.170  0.4547  1.3513  1.0835
 6089TIP3   OH242461   2.764   5.016  10.223 -0.3133  0.0098  0.2005
 6089TIP3    H142462   2.810   4.988  10.303 -0.6494 -1.8395 -0.2153
 6089TIP3    H242463   2.727   5.101  10.246  1.7736  0.7445  1.1515
 6090TIP3   OH242464   2.748   5.877   9.879 -0.3938 -0.0613 -0.1522
 6090TIP3    H142465   2.775   5.921   9.959  1.0131 -0.3702 -0.4336
 6090TIP3    H242466   2.714   5.792   9.907  0.0734 -0.1575  0.1175
 6091TIP3   OH242467   6.421   5.150   9.597 -0.2121  0.3519 -0.8639
 6091TIP3    H142468   6.334   5.183   9.616  0.7078  2.1536  0.4907
 6091TIP3    H242469   6.409   5.089   9.524 -2.4250  1.3802 -1.4102
 6092TIP3   OH242470   2.052   0.245   9.889  0.0176 -0.0015  0.0276
 6092TIP3    H142471   2.106   0.186   9.837 -2.7381 -0.6456 -2.3546
 6092TIP3    H242472   2.066   0.217   9.979  3.1506 -0.4352 -0.4929
 6093TIP3   OH242473   1.676   1.812  10.546  0.5532 -0.0997  0.2699
 6093TIP3    H142474   1.587   1.787  10.519  0.6778  1.3926 -1.7295
 6093TIP3    H242475   1.686   1.902  10.517  2.5096 -0.0035  1.0721
 6094TIP3   OH242476   7.139   4.352  10.511 -0.3176  0.1983 -0.1635
 6094TIP3    H142477   7.177   4.341  10.423 -0.1624 -0.1938 -0.0488
 6094TIP3    H242478   7.197   4.303  10.569 -0.6144  0.1678  0.1117
 6095TIP3   OH242479   2.495   0.656  11.203  0.2684 -0.9300 -0.0691
 6095TIP3    H142480   2.456   0.647  11.290 -0.8897 -0.8095 -0.5566
 6095TIP3    H242481   2.420   0.664  11.144  1.0203  2.7886 -0.7212
 6096TIP3   OH242482   1.411   2.743  11.651 -0.6063 -0.0075 -0.0714
 6096TIP3    H142483   1.326   2.786  11.656 -1.0176 -0.6578 -1.0770
 6096TIP3    H242484   1.455   2.767  11.732 -0.7616  2.3599 -0.6144
 6097TIP3   OH242485   5.236   1.405  12.171  0.5285  0.5655  0.4642
 6097TIP3    H142486   5.230   1.312  12.191  2.4635 -0.0091 -1.2868
 6097TIP3    H242487   5.312   1.435  12.222 -0.2649  1.2829  1.2536
 6098TIP3   OH242488   0.908   0.125  10.025  0.2056  0.1050  0.3653
 6098TIP3    H142489   0.928   0.211  10.063  3.8606 -1.6301  2.9407
 6098TIP3    H242490   0.993   0.086  10.007 -1.3232 -2.9367 -0.9733
 6099TIP3   OH242491   6.712   7.190  12.471  0.0938  0.3202 -0.3395
 6099TIP3    H142492   6.726   7.279  12.440 -0.6927  0.2104 -1.0714
 6099TIP3    H242493   6.617   7.178  12.466  0.2714 -0.9660 -1.4995
 6100TIP3   OH242494   3.791   1.386  11.119  0.2440 -0.1707 -0.1598
 6100TIP3    H142495   3.823   1.337  11.194 -0.5688  0.2612  0.4747
 6100TIP3    H242496   3.856   1.370  11.050  1.5981  0.3215  0.9576
 6101TIP3   OH242497   3.132   6.509  10.368  0.4112 -0.0135  0.0888
 6101TIP3    H142498   3.107   6.594  10.403  1.0907 -0.1088  0.8442
 6101TIP3    H242499   3.161   6.527  10.279  0.9128  0.6069  0.3705
 6102TIP3   OH242500   5.608   0.931  11.426 -0.2402 -0.2437  0.3123
 6102TIP3    H142501   5.670   0.866  11.393 -0.3039 -0.7997  1.2653
 6102TIP3    H242502   5.640   1.014  11.391  0.0890 -0.7274 -0.5634
 6103TIP3   OH242503   5.259   3.509  11.064  0.3381 -0.0389  0.6075
 6103TIP3    H142504   5.344   3.508  11.109  0.6480 -0.3591  0.0310
 6103TIP3    H242505   5.259   3.429  11.012  0.1167  0.4735 -0.1953
 6104TIP3   OH242506   0.383   7.207  10.772  0.1146 -0.3625  0.2315
 6104TIP3    H142507   0.353   7.298  10.771  3.0427  0.7476  1.2138
 6104TIP3    H242508   0.304   7.155  10.786 -1.6646  2.0033 -0.4653
 6105TIP3   OH242509   6.662   2.697  10.494 -0.2006  0.4006 -0.2671
 6105TIP3    H142510   6.727   2.719  10.560 -0.7136  0.3397  0.2688
 6105TIP3    H242511   6.612   2.625  10.532  0.3238 -0.5260 -1.2678
 6106TIP3   OH242512   1.675   6.255  11.030  0.0664 -0.0372  0.5062
 6106TIP3    H142513   1.746   6.231  11.090 -1.9855 -1.2616  2.6590
 6106TIP3    H242514   1.656   6.347  11.050  1.9007  0.7600 -1.1284
 6107TIP3   OH242515   4.126   4.720  10.105 -0.1793 -0.1122 -0.0830
 6107TIP3    H142516   4.139   4.736  10.199 -0.9280  0.3085 -0.0391
 6107TIP3    H242517   4.205   4.675  10.077 -0.0571 -0.4818  0.8123
 6108TIP3   OH242518   0.171   2.220  10.746 -0.1270 -0.0177  0.2456
 6108TIP3    H142519   0.175   2.183  10.658 -2.1073 -1.7246  0.7871
 6108TIP3    H242520   0.123   2.302  10.735 -2.6023 -1.3999 -0.0348
 6109TIP3   OH242521   1.958   1.711  11.095  1.0229  0.1259 -0.3846
 6109TIP3    H142522   2.052   1.710  11.074  1.6790  2.7009  1.9146
 6109TIP3    H242523   1.954   1.737  11.187 -2.0201  2.1058 -0.9474
 6110TIP3   OH242524   5.151   1.568  11.969 -0.0178 -0.1906 -0.2271
 6110TIP3    H142525   5.179   1.511  12.040 -1.5976  0.1962  0.7525
 6110TIP3    H242526   5.202   1.648  11.980  0.1215 -0.3334  0.1607
 6111TIP3   OH242527   2.245   4.411   9.962  0.1520 -0.1347  0.0346
 6111TIP3    H142528   2.158   4.444   9.986 -0.4053 -1.4754 -0.0538
 6111TIP3    H242529   2.243   4.407   9.866  0.4276  0.1405  0.0179
 6112TIP3   OH242530   7.041   2.025   9.726  0.0729  0.3521  0.0929
 6112TIP3    H142531   6.959   1.980   9.702 -0.0040  0.8684 -0.6515
 6112TIP3    H242532   7.017   2.080   9.801 -0.1797  0.2585  0.0826
 6113TIP3   OH242533   3.395   4.575   9.590 -0.1009  0.1211 -0.2326
 6113TIP3    H142534   3.333   4.617   9.531 -0.4845  0.0427  0.1039
 6113TIP3    H242535   3.339   4.529   9.654  0.2742 -1.6731 -1.1256
 6114TIP3   OH242536   6.331   1.323  12.442 -0.7139 -0.3219  0.0714
 6114TIP3    H142537   6.242   1.311  12.475 -1.0870  0.5639 -0.5676
 6114TIP3    H242538   6.386   1.323  12.520 -1.4951  1.0313  0.6583
 6115TIP3   OH242539   3.075   4.605  11.280 -0.6999  0.0451 -0.0679
 6115TIP3    H142540   3.031   4.641  11.203  1.4677 -0.7825 -1.8014
 6115TIP3    H242541   3.090   4.513  11.258  0.6455 -0.0198  0.9856
 6116TIP3   OH242542   4.393   7.384  10.361 -0.1304  0.3936  0.3268
 6116TIP3    H142543   4.343   7.307  10.333 -1.4383  0.3433  2.5920
 6116TIP3    H242544   4.420   7.364  10.451  0.4424  2.1523  0.5890
 6117TIP3   OH242545   6.504   0.322  11.274  0.7375 -0.2270 -0.1656
 6117TIP3    H142546   6.479   0.390  11.212 -0.2904 -1.2389 -0.8886
 6117TIP3    H242547   6.499   0.365  11.359 -0.9797  0.3150 -0.5064
 6118TIP3   OH242548   6.420   4.266  10.320 -0.1356 -0.0559 -0.3128
 6118TIP3    H142549   6.388   4.180  10.290  0.0603 -0.3014  0.1814
 6118TIP3    H242550   6.410   4.322  10.243 -1.1900 -0.2763 -0.3560
 6119TIP3   OH242551   2.309   4.419   9.695 -0.1990  0.6456 -0.2626
 6119TIP3    H142552   2.396   4.379   9.705  0.9483  2.7564 -0.9880
 6119TIP3    H242553   2.280   4.392   9.608 -0.6240 -0.6353  0.2526
 6120TIP3   OH242554   0.310   5.150  10.794  0.0672  0.4973 -0.2644
 6120TIP3    H142555   0.352   5.068  10.817  1.0024  0.9392 -0.3609
 6120TIP3    H242556   0.331   5.164  10.702 -0.2322  0.7554 -0.2979
 6121TIP3   OH242557   0.281   1.108  10.352 -0.1824 -0.2232  0.0382
 6121TIP3    H142558   0.292   1.201  10.367  1.8117 -0.1176 -1.5818
 6121TIP3    H242559   0.251   1.101  10.261  0.9860 -1.1590 -0.3117
 6122TIP3   OH242560   1.572   4.967  11.650  0.1621  0.5549 -0.4613
 6122TIP3    H142561   1.641   4.902  11.664 -1.5088 -0.8166  2.0836
 6122TIP3    H242562   1.536   4.944  11.564  1.4100 -0.0799 -0.8495
 6123TIP3   OH242563   3.186   4.665  10.524  0.0504 -0.2254 -0.2258
 6123TIP3    H142564   3.223   4.676  10.611 -1.3887 -0.2544  0.4136
 6123TIP3    H242565   3.159   4.753  10.498  0.9704 -0.1242 -0.8957
 6124TIP3   OH242566   1.793   0.927  10.092  0.3559  0.1550 -0.0096
 6124TIP3    H142567   1.818   0.841  10.059  1.1807  0.0289  0.9014
 6124TIP3    H242568   1.730   0.909  10.162  0.6459  0.2736  0.2877
 6125TIP3   OH242569   6.092   1.934  10.446 -0.3585  0.3261 -0.2668
 6125TIP3    H142570   6.106   2.000  10.379  2.2993 -0.7103 -0.8361
 6125TIP3    H242571   6.050   1.861  10.400 -0.1983  0.3102 -0.3853
 6126TIP3   OH242572   6.893   3.036  10.858 -0.9118  0.2123 -0.0408
 6126TIP3    H142573   6.906   3.126  10.829  0.3825 -0.2880 -1.1720
 6126TIP3    H242574   6.811   3.009  10.817  0.4881 -0.2236 -2.7859
 6127TIP3   OH242575   1.548   2.787  11.879  0.1729  0.0529  0.0295
 6127TIP3    H142576   1.506   2.730  11.944 -0.7450  0.0549 -0.5599
 6127TIP3    H242577   1.590   2.856  11.932  2.8920 -2.0876  0.9232
 6128TIP3   OH242578   6.237   0.843  10.315 -0.2681  0.3496 -0.2231
 6128TIP3    H142579   6.275   0.756  10.307 -1.3887 -0.1516 -0.3398
 6128TIP3    H242580   6.309   0.899  10.345  0.3174 -0.7226  0.4069
 6129TIP3   OH242581   4.774   0.585  10.343 -0.1326  0.2651  0.1805
 6129TIP3    H142582   4.864   0.575  10.372 -0.3478 -3.3647  0.1449
 6129TIP3    H242583   4.779   0.578  10.247 -0.3713  1.1024  0.1034
 6130TIP3   OH242584   5.473   7.056  11.205 -0.0352  0.0209 -0.5059
 6130TIP3    H142585   5.510   7.136  11.242 -1.1466  1.0315 -1.4859
 6130TIP3    H242586   5.392   7.042  11.254  0.4905 -0.9006  0.1184
 6131TIP3   OH242587   4.268   2.116  10.506  0.3703 -0.0089 -0.0187
 6131TIP3    H142588   4.227   2.132  10.591  0.2247  0.7761 -0.2281
 6131TIP3    H242589   4.224   2.038  10.473  0.8367 -0.6734  0.8778
 6132TIP3   OH242590   1.745   5.181  11.544  0.0316  0.1001  0.5562
 6132TIP3    H142591   1.718   5.196  11.635 -0.3276 -1.1753  0.6720
 6132TIP3    H242592   1.700   5.100  11.519  0.4487  0.2264 -0.6311
 6133TIP3   OH242593   2.749   0.866  11.459 -0.1574  0.1334 -0.4055
 6133TIP3    H142594   2.791   0.854  11.374 -1.5068 -2.5659 -0.7885
 6133TIP3    H242595   2.799   0.936  11.501  0.6957  1.3894 -3.2909
 6134TIP3   OH242596   0.213   5.943  10.246  0.9032  0.4066 -0.0841
 6134TIP3    H142597   0.247   5.943  10.336 -1.0274  0.2664  0.6950
 6134TIP3    H242598   0.269   6.006  10.200  1.2354  1.3348  1.5020
 6135TIP3   OH242599   4.442   7.348  11.502  0.3106  0.3656  0.1334
 6135TIP3    H142600   4.514   7.406  11.528  0.2905  1.3492 -1.7980
 6135TIP3    H242601   4.446   7.346  11.406 -1.6566 -0.3137  0.0086
 6136TIP3   OH242602   5.527   5.688  11.498  1.0531  0.3284  0.0199
 6136TIP3    H142603   5.489   5.615  11.548  1.7027  0.8378  1.3204
 6136TIP3    H242604   5.609   5.654  11.463 -0.1280 -0.5165 -2.0934
 6137TIP3   OH242605   1.257   5.890  10.126 -0.2175 -0.2813  0.4629
 6137TIP3    H142606   1.301   5.915  10.045 -1.3300  0.4317  0.0539
 6137TIP3    H242607   1.326   5.892  10.193  0.3464  0.9439 -0.1274
 6138TIP3   OH242608   1.199   7.098  10.816  0.4014  0.3265 -0.5328
 6138TIP3    H142609   1.208   7.192  10.827  2.3259  0.1290 -0.2043
 6138TIP3    H242610   1.163   7.067  10.899 -0.8827  0.8210 -0.8816
 6139TIP3   OH242611   0.178   4.642   9.690  0.6358  0.1687 -0.7033
 6139TIP3    H142612   0.101   4.626   9.745  0.6127 -0.6907 -0.9649
 6139TIP3    H242613   0.159   4.595   9.608  1.2976  0.2207 -0.8932
 6140TIP3   OH242614   5.916   3.814  10.864 -0.2908  0.6284  0.4664
 6140TIP3    H142615   5.958   3.730  10.845 -1.0339 -0.0288  1.5885
 6140TIP3    H242616   5.971   3.878  10.820  1.1360 -0.3208  0.7655
 6141TIP3   OH242617   3.265   6.704  10.907 -0.1924 -0.1069  1.0030
 6141TIP3    H142618   3.209   6.627  10.906  1.0216 -1.0270  1.0831
 6141TIP3    H242619   3.354   6.669  10.898  0.4189  1.2498  1.4920
 6142TIP3   OH242620   5.651   6.357  12.349 -0.8479  0.0498  1.1812
 6142TIP3    H142621   5.656   6.452  12.346 -1.1580  0.0493  0.2470
 6142TIP3    H242622   5.668   6.334  12.440 -0.5145  0.9818  1.3588
 6143TIP3   OH242623   1.503   7.448  11.550 -0.1815  0.0540 -0.6505
 6143TIP3    H142624   1.466   7.360  11.558 -0.0758  0.0951  0.4913
 6143TIP3    H242625   1.578   7.438  11.491 -0.3624 -0.5559 -0.7822
 6144TIP3   OH242626   4.959   1.945  11.490  0.3516 -0.0744 -0.1946
 6144TIP3    H142627   5.027   1.920  11.428 -0.1054  1.5396 -1.4255
 6144TIP3    H242628   4.959   2.041  11.487 -1.4705 -0.0249  0.3341
 6145TIP3   OH242629   4.632   4.845  10.614 -0.3198 -0.0675 -0.1404
 6145TIP3    H142630   4.712   4.824  10.662  0.2919 -1.6187 -1.7141
 6145TIP3    H242631   4.634   4.940  10.604  0.7534  0.0245  0.7925
 6146TIP3   OH242632   3.997   7.386  10.210 -0.0947  0.1382 -0.0781
 6146TIP3    H142633   3.915   7.428  10.184 -0.6174 -0.1158  1.0718
 6146TIP3    H242634   4.048   7.457  10.251 -1.2388 -0.3734  2.4487
 6147TIP3   OH242635   5.869   5.481  11.036 -0.4361 -0.0766 -0.1547
 6147TIP3    H142636   5.805   5.539  10.994  1.1465 -0.7265 -3.8050
 6147TIP3    H242637   5.942   5.538  11.059 -0.9331  0.1200  1.0507
 6148TIP3   OH242638   5.466   2.381  11.146 -0.4931  0.3446  0.2313
 6148TIP3    H142639   5.466   2.418  11.235  0.2412  2.0488 -0.4425
 6148TIP3    H242640   5.425   2.295  11.157  0.9226 -0.1586  2.4882
 6149TIP3   OH242641   4.959   0.740   9.595 -0.1636 -0.0393 -0.3031
 6149TIP3    H142642   4.888   0.792   9.634  1.3343  0.3596  2.1222
 6149TIP3    H242643   4.914   0.668   9.551 -2.1255  1.0263 -0.1797
 6150TIP3   OH242644   2.522   2.694   9.600  0.3626 -0.6078  0.1071
 6150TIP3    H142645   2.509   2.600   9.584  0.5682 -0.5534 -0.4074
 6150TIP3    H242646   2.601   2.716   9.551  1.0918 -0.4478  1.3388
 6151TIP3   OH242647   1.645   5.617  10.241  0.1898  0.4292  0.3528
 6151TIP3    H142648   1.646   5.542  10.302 -1.6015 -0.3254 -0.4641
 6151TIP3    H242649   1.727   5.609  10.193 -0.0221 -1.1343  0.1772
 6152TIP3   OH242650   2.635   3.664   9.845  0.3198 -0.4837 -0.2303
 6152TIP3    H142651   2.684   3.595   9.890  1.7772  0.7324  0.1672
 6152TIP3    H242652   2.677   3.670   9.758  0.4991  0.1667 -0.1059
 6153TIP3   OH242653   1.741   4.424   9.726 -0.5746  0.0848  0.0789
 6153TIP3    H142654   1.809   4.454   9.786  0.7865 -3.0293  0.2753
 6153TIP3    H242655   1.695   4.355   9.774  0.4383 -2.3933 -2.2378
 6154TIP3   OH242656   2.422   2.594  11.308  0.0864 -0.0882  0.8057
 6154TIP3    H142657   2.510   2.571  11.340 -0.2427 -3.2539 -0.2315
 6154TIP3    H242658   2.431   2.596  11.213 -1.1085 -1.3753  0.6369
 6155TIP3   OH242659   2.233   7.183  11.216 -0.1314 -0.1675  1.1165
 6155TIP3    H142660   2.258   7.160  11.306 -0.9963 -2.2209  0.8867
 6155TIP3    H242661   2.138   7.168  11.213 -0.5376  2.2211  0.4949
 6156TIP3   OH242662   0.031   2.073  10.185  0.3389  0.2475  0.2974
 6156TIP3    H142663   0.119   2.111  10.192  1.1552 -1.3261 -0.8050
 6156TIP3    H242664  -0.014   2.129  10.123  1.3767 -0.2530 -0.9623
 6157TIP3   OH242665   0.112   6.040  11.429 -0.0027  0.7325  0.2560
 6157TIP3    H142666   0.159   6.064  11.509  0.0834  1.6675 -0.0609
 6157TIP3    H242667   0.117   5.945  11.426  1.6010  0.7797  0.4003
 6158TIP3   OH242668   5.855   5.960  11.160  0.1972  0.4438 -0.1113
 6158TIP3    H142669   5.769   5.950  11.121 -1.0224 -0.5086  2.5508
 6158TIP3    H242670   5.853   6.048  11.199  0.5289  0.5345 -0.3007
 6159TIP3   OH242671   5.458   4.703  12.284  0.3819  0.1435 -0.7263
 6159TIP3    H142672   5.384   4.731  12.338 -1.1536 -0.8272 -2.2327
 6159TIP3    H242673   5.440   4.611  12.265  2.8714 -0.6048  0.2187
 6160TIP3   OH242674   5.872   0.810  11.923 -0.0893  0.2371 -0.5750
 6160TIP3    H142675   5.809   0.777  11.987  0.7013 -0.8371 -0.3097
 6160TIP3    H242676   5.903   0.731  11.878  1.9802  0.5709  0.1533
 6161TIP3   OH242677   2.688   6.801  11.292  0.4346 -0.3719  0.5587
 6161TIP3    H142678   2.606   6.850  11.281 -0.1336 -0.6982  2.8086
 6161TIP3    H242679   2.757   6.865  11.275 -0.2865  0.2307 -0.1742
 6162TIP3   OH242680   2.614   0.338  11.438  1.2772 -0.2757  0.5971
 6162TIP3    H142681   2.671   0.414  11.450  0.8294  0.0767  0.5425
 6162TIP3    H242682   2.542   0.353  11.499  0.7818 -0.2480  0.0154
 6163TIP3   OH242683   5.070   6.930  12.084 -0.3517 -0.4250  0.1139
 6163TIP3    H142684   5.089   6.924  12.177  1.3620  0.3386 -0.1412
 6163TIP3    H242685   5.058   6.840  12.056  1.1008 -0.8388  0.7246
 6164TIP3   OH242686   5.435   4.954  10.910 -0.0912 -0.2150  0.3342
 6164TIP3    H142687   5.484   4.953  10.828 -1.5601  0.3655 -0.5807
 6164TIP3    H242688   5.451   5.041  10.946  0.3025 -0.3602  0.5144
 6165TIP3   OH242689   2.557   5.879  12.406 -0.2003 -0.6221  0.3063
 6165TIP3    H142690   2.502   5.802  12.392 -1.5319  0.2665  0.4342
 6165TIP3    H242691   2.614   5.855  12.479 -0.9229 -1.3231  0.6599
 6166TIP3   OH242692   0.349   3.503  11.559  0.0349 -0.2988 -0.1347
 6166TIP3    H142693   0.313   3.422  11.595  0.7269 -0.8959 -0.7688
 6166TIP3    H242694   0.427   3.476  11.511  0.4913  0.7950 -0.0395
 6167TIP3   OH242695   0.450   6.305  11.221 -0.1967 -0.1199 -0.6377
 6167TIP3    H142696   0.370   6.357  11.214 -0.2862  0.0458  1.0921
 6167TIP3    H242697   0.428   6.220  11.184 -0.8113  0.2841 -1.2123
 6168TIP3   OH242698   3.386   6.928  10.138  0.3037  0.3262  0.2231
 6168TIP3    H142699   3.346   6.856  10.089  1.4434  0.6158 -1.2134
 6168TIP3    H242700   3.436   6.885  10.207  2.4122 -0.4728 -1.6669
 6169TIP3   OH242701   4.073   7.275  18.053 -0.2034  0.6079 -0.0723
 6169TIP3    H142702   3.990   7.278  18.101  0.2544  1.3703  0.7001
 6169TIP3    H242703   4.047   7.262  17.962 -1.1581  0.5312  0.1970
 6170TIP3   OH242704   1.906   6.540  10.992  0.2703  0.5352 -0.8299
 6170TIP3    H142705   1.843   6.522  10.923  0.0667 -0.3347 -0.4245
 6170TIP3    H242706   1.990   6.511  10.955 -0.1106 -1.7876 -0.0258
 6171TIP3   OH242707   1.235   3.047  10.898  0.6358  0.2441  0.1105
 6171TIP3    H142708   1.273   3.122  10.853 -0.1151  0.5777  0.0205
 6171TIP3    H242709   1.144   3.043  10.868  1.3352 -2.3724 -2.0474
 6172TIP3   OH242710   0.474   5.846   9.835  0.6610 -0.4227  0.1495
 6172TIP3    H142711   0.494   5.797   9.755  1.6268  0.7905 -0.3800
 6172TIP3    H242712   0.392   5.890   9.816  0.5157 -0.7132  0.0991
 6173TIP3   OH242713   6.823   6.345  11.943  0.2342  0.3310 -0.2985
 6173TIP3    H142714   6.813   6.360  12.037  0.5580  1.8331 -0.4714
 6173TIP3    H242715   6.738   6.369  11.906  0.6506  1.4946 -0.5501
 6174TIP3   OH242716   3.464   1.513  10.774  0.1851 -0.4078  0.3329
 6174TIP3    H142717   3.531   1.513  10.705 -2.6106 -1.3276 -2.6132
 6174TIP3    H242718   3.407   1.587  10.752 -1.2444 -1.2273  1.1821
 6175TIP3   OH242719   2.387   5.401   8.959  0.2961 -0.3627 -0.5058
 6175TIP3    H142720   2.324   5.334   8.988  0.1822  0.7233  2.0341
 6175TIP3    H242721   2.467   5.380   9.007  0.0883  1.5813  0.8025
 6176TIP3   OH242722   3.577   5.223  11.647  0.0083  0.0549 -0.4453
 6176TIP3    H142723   3.514   5.261  11.708  1.6239  1.9762  0.1273
 6176TIP3    H242724   3.620   5.154  11.696 -0.5733 -0.2200 -0.3230
 6177TIP3   OH242725   2.526   6.856  10.616  0.4153  0.3008 -0.3739
 6177TIP3    H142726   2.490   6.929  10.666  0.6592 -1.3233  2.3378
 6177TIP3    H242727   2.621   6.866  10.624  0.4588  0.1059 -0.6359
 6178TIP3   OH242728   3.930   0.674   9.914 -0.3589 -0.1693 -0.0820
 6178TIP3    H142729   3.872   0.649   9.986 -1.2196 -2.7939 -1.5394
 6178TIP3    H242730   3.977   0.593   9.892 -1.1362  0.1169 -3.3072
 6179TIP3   OH242731   3.506   2.066  10.469 -0.3411  0.0076 -0.3630
 6179TIP3    H142732   3.488   1.984  10.423 -0.2858 -1.2634  1.7338
 6179TIP3    H242733   3.599   2.063  10.490 -0.4139  0.4121  0.0599
 6180TIP3   OH242734   2.713   6.338   9.602  0.1117 -0.4914 -0.3261
 6180TIP3    H142735   2.798   6.381   9.613  0.8113 -1.6384 -0.9929
 6180TIP3    H242736   2.732   6.260   9.550 -1.3875 -0.6872 -0.6445
 6181TIP3   OH242737   2.081   4.144  11.166 -0.6339  0.4624 -0.0740
 6181TIP3    H142738   2.041   4.168  11.082 -1.3990 -0.7237 -0.0640
 6181TIP3    H242739   2.007   4.126  11.223 -0.1106  0.9586  0.7849
 6182TIP3   OH242740   6.278   5.710  10.908 -0.2772 -0.3457 -0.1472
 6182TIP3    H142741   6.353   5.653  10.928  0.8850  1.0178 -0.5205
 6182TIP3    H242742   6.214   5.689  10.976  0.5141 -1.3804  0.3133
 6183TIP3   OH242743   6.596   2.546  10.984 -0.5650  0.1313 -0.3572
 6183TIP3    H142744   6.546   2.511  10.911  0.4097  0.4144 -1.1779
 6183TIP3    H242745   6.613   2.637  10.961 -1.0428  0.4935  0.6624
 6184TIP3   OH242746   6.027   5.528  10.519  0.2322  0.2275 -0.1642
 6184TIP3    H142747   6.085   5.603  10.535 -1.4680  1.3536  1.1438
 6184TIP3    H242748   5.981   5.552  10.439  0.4656  0.0593 -0.3494
 6185TIP3   OH242749   1.656   2.509  10.168 -0.3099  0.6976 -0.8187
 6185TIP3    H142750   1.644   2.419  10.197  1.4336  0.7875  0.3214
 6185TIP3    H242751   1.741   2.510  10.124  0.1630  1.9691  0.0632
 6186TIP3   OH242752   1.946   0.091  13.038 -0.5160 -0.2183  0.2125
 6186TIP3    H142753   2.041   0.108  13.038 -0.5009 -0.3022  0.0244
 6186TIP3    H242754   1.938   0.004  13.078 -0.5751  0.1170  0.9557
 6187TIP3   OH242755   6.933   4.441  10.797 -0.3288  0.7416 -0.0083
 6187TIP3    H142756   7.003   4.478  10.850 -0.9628  3.0579 -0.6919
 6187TIP3    H242757   6.859   4.433  10.857 -0.7235  2.3582 -0.2308
 6188TIP3   OH242758   5.399   1.321   9.685 -0.3959  0.3570  0.1609
 6188TIP3    H142759   5.401   1.261   9.610 -1.6051  0.4864 -0.0012
 6188TIP3    H242760   5.480   1.371   9.679 -0.6796  0.6797 -1.3336
 6189TIP3   OH242761   6.425   5.914  11.332 -0.7526  0.1855 -0.2447
 6189TIP3    H142762   6.353   5.867  11.374 -0.3171  0.2422  0.5868
 6189TIP3    H242763   6.394   5.930  11.243 -0.9743 -1.5191 -0.5000
 6190TIP3   OH242764   4.643   1.383  11.996 -0.2383 -0.0137  0.1853
 6190TIP3    H142765   4.632   1.423  11.910 -1.5432  0.0274  0.3591
 6190TIP3    H242766   4.676   1.454  12.052  1.3256 -0.2246 -0.4296
 6191TIP3   OH242767   3.105   6.250  10.642 -0.1059 -0.1348  0.1149
 6191TIP3    H142768   3.048   6.284  10.573 -0.4563  1.5050  1.1468
 6191TIP3    H242769   3.050   6.190  10.692  0.0918 -1.1754 -0.8801
 6192TIP3   OH242770   1.587   5.574   9.877 -0.1352 -0.2420 -0.5609
 6192TIP3    H142771   1.604   5.533   9.792 -0.2375 -1.8600  0.1600
 6192TIP3    H242772   1.673   5.592   9.914 -0.0059 -2.3269  0.2549
 6193TIP3   OH242773   3.547   7.410  12.591 -0.0485 -0.0304 -0.1230
 6193TIP3    H142774   3.462   7.370  12.574  0.1659 -1.1121  1.2254
 6193TIP3    H242775   3.607   7.336  12.597  0.6819  0.6079  0.6332
 6194TIP3   OH242776   4.790   3.469  11.574 -0.8986 -0.1085 -0.1484
 6194TIP3    H142777   4.867   3.523  11.594 -1.5827  0.3638  1.4005
 6194TIP3    H242778   4.824   3.396  11.523  1.1159 -1.4593  2.8914
 6195TIP3   OH242779   7.085   6.483  11.009 -0.4424 -0.3233 -0.2779
 6195TIP3    H142780   7.147   6.509  10.940  0.1029 -0.2296  0.2419
 6195TIP3    H242781   7.022   6.555  11.011 -0.2298 -0.1297 -0.4013
 6196TIP3   OH242782   4.392   1.268   9.524  0.6128  0.0025  0.9144
 6196TIP3    H142783   4.435   1.326   9.461  2.2549 -1.2662  0.7957
 6196TIP3    H242784   4.455   1.197   9.537 -1.7424 -2.3651  0.1925
 6197TIP3   OH242785   0.908   7.395   9.684 -0.9586 -0.5303  0.2142
 6197TIP3    H142786   0.896   7.311   9.639  1.3374 -2.0918  2.2664
 6197TIP3    H242787   0.873   7.380   9.772  0.3033  0.3275  0.8921
 6198TIP3   OH242788   1.702   4.944  10.187 -0.3590  0.0773 -0.3120
 6198TIP3    H142789   1.727   4.895  10.265  1.4438 -0.2307 -1.0253
 6198TIP3    H242790   1.612   4.974  10.204 -1.0386 -2.3378  0.6865
 6199TIP3   OH242791   2.683   7.207  10.564  0.2495 -0.5536  0.4093
 6199TIP3    H142792   2.617   7.201  10.494 -0.6093  0.1458  1.1428
 6199TIP3    H242793   2.757   7.156  10.531 -0.4331 -0.8707 -0.6861
 6200TIP3   OH242794   5.446   6.679  10.676  0.0928  0.5225  0.5646
 6200TIP3    H142795   5.404   6.626  10.609 -0.2508 -0.8615  1.8316
 6200TIP3    H242796   5.508   6.733  10.628  0.6128 -1.1787 -0.7660
 6201TIP3   OH242797   4.529   2.615   9.601 -0.2295  0.6800  0.3090
 6201TIP3    H142798   4.478   2.617   9.520  0.0767  0.6667  0.1127
 6201TIP3    H242799   4.496   2.689   9.652 -1.5476 -0.2693  0.8727
 6202TIP3   OH242800   3.008   7.354  10.490  1.0215  0.0591  0.9685
 6202TIP3    H142801   2.955   7.421  10.531 -1.0137  0.1458 -1.5672
 6202TIP3    H242802   3.073   7.402  10.438  0.2010  0.0818 -0.0578
 6203TIP3   OH242803   5.371   0.263  10.106 -0.6029 -0.7333  0.0030
 6203TIP3    H142804   5.413   0.193  10.056  1.7755  1.2969 -1.0060
 6203TIP3    H242805   5.419   0.265  10.189 -1.2949 -0.8696  0.4195
 6204TIP3   OH242806   7.005   6.293  10.354 -0.3074  0.3385 -0.0910
 6204TIP3    H142807   6.937   6.230  10.329 -1.5252  0.5882  2.2887
 6204TIP3    H242808   7.087   6.248  10.336 -1.1175 -0.7771 -1.1424
 6205TIP3   OH242809   2.227   1.517  10.114 -0.1654 -0.0758 -0.4395
 6205TIP3    H142810   2.158   1.477  10.061  0.4850 -0.5085 -0.9789
 6205TIP3    H242811   2.208   1.489  10.204  0.1713 -1.4863 -0.7840
 6206TIP3   OH242812   1.462   6.139  10.441  0.3161 -0.3755 -0.5170
 6206TIP3    H142813   1.534   6.079  10.458  0.0819 -1.0766 -1.8617
 6206TIP3    H242814   1.385   6.083  10.433 -0.0587  0.1799 -0.9314
 6207TIP3   OH242815   0.463   1.157   9.910 -0.3149 -0.0800  0.2633
 6207TIP3    H142816   0.477   1.199   9.995  0.9982 -1.3486  0.7064
 6207TIP3    H242817   0.551   1.151   9.872 -0.5812 -1.5470 -0.1801
 6208TIP3   OH242818   4.923   6.539   9.991  0.2930 -0.3978 -0.2449
 6208TIP3    H142819   4.838   6.519   9.951  0.7822 -0.0221 -1.5044
 6208TIP3    H242820   4.960   6.607   9.936  1.0688  0.0345  0.7819
 6209TIP3   OH242821   3.866   0.955  10.367 -0.2529  0.2711  0.6076
 6209TIP3    H142822   3.956   0.957  10.401 -0.2447  0.9984  0.5520
 6209TIP3    H242823   3.847   1.046  10.344 -1.4209  0.3448  1.7205
 6210TIP3   OH242824   6.372   0.917  12.646  0.2663  0.0977 -0.2813
 6210TIP3    H142825   6.388   0.878  12.732  0.6694  0.1642 -0.3223
 6210TIP3    H242826   6.452   0.900  12.596  0.0242  0.0371 -0.6531
 6211TIP3   OH242827   4.619   5.194  12.220 -0.2470 -0.0109  0.5401
 6211TIP3    H142828   4.531   5.166  12.197  0.0787 -0.1052 -0.6842
 6211TIP3    H242829   4.674   5.117  12.205  0.1780  0.3224  0.3572
 6212TIP3   OH242830   7.387   0.998  10.006  0.4224  0.0706  0.4873
 6212TIP3    H142831   7.375   1.041   9.921  0.4635  0.0741  0.4830
 6212TIP3    H242832   7.299   0.991  10.042  0.0702 -2.1881 -0.6625
 6213TIP3   OH242833   2.365   5.179  11.267 -0.4796  0.4898 -0.7210
 6213TIP3    H142834   2.432   5.240  11.296  1.1199 -2.2555  2.0721
 6213TIP3    H242835   2.285   5.206  11.313  0.1687  0.5871  0.3660
 6214TIP3   OH242836   3.151   1.739  11.185  0.2695 -0.5855  0.4302
 6214TIP3    H142837   3.204   1.760  11.108  1.2232 -2.3688  0.5405
 6214TIP3    H242838   3.062   1.766  11.162  0.7842  0.1828 -0.7366
 6215TIP3   OH242839   1.102   5.671  10.078  0.7701 -0.8922  0.3556
 6215TIP3    H142840   1.079   5.638   9.991 -0.0144  0.3869  0.0559
 6215TIP3    H242841   1.154   5.749  10.061 -0.1203 -0.1355  1.0214
 6216TIP3   OH242842   4.511   6.600   9.656  0.3599 -0.0378  0.1356
 6216TIP3    H142843   4.528   6.694   9.645  2.2281 -0.2088  1.0842
 6216TIP3    H242844   4.419   6.595   9.680 -0.1255  1.4203 -1.2637
 6217TIP3   OH242845   3.127   4.661  11.539  0.3590 -0.1706 -0.5379
 6217TIP3    H142846   3.098   4.654  11.448  0.8894 -1.2160 -0.6391
 6217TIP3    H242847   3.191   4.591  11.550  0.0496 -0.2887  0.7350
 6218TIP3   OH242848   2.650   7.123  11.235  0.3315  0.4699  0.4204
 6218TIP3    H142849   2.619   7.164  11.316  0.3316  2.4573 -0.5371
 6218TIP3    H242850   2.729   7.171  11.212 -1.1796  1.9193 -2.2380
 6219TIP3   OH242851   3.439   6.709  12.027 -0.3786  0.4403  0.1905
 6219TIP3    H142852   3.364   6.749  11.984 -1.1443 -0.0367  1.0276
 6219TIP3    H242853   3.478   6.779  12.079 -0.6695  0.5321  0.2871
 6220TIP3   OH242854   4.434   6.990  10.471 -0.2040 -0.1361 -0.1646
 6220TIP3    H142855   4.467   7.012  10.558 -0.3196 -0.5355 -0.0161
 6220TIP3    H242856   4.403   6.900  10.480 -2.3766  0.5798  0.0037
 6221TIP3   OH242857   4.946   6.279   9.781  0.2007 -0.1853 -0.2514
 6221TIP3    H142858   4.877   6.237   9.832 -1.5793  0.4546 -2.0196
 6221TIP3    H242859   4.913   6.368   9.766  2.1075  0.6356  0.0890
 6222TIP3   OH242860   2.273   2.630  10.329 -0.2920 -0.2435  0.0001
 6222TIP3    H142861   2.281   2.560  10.263 -1.4541 -1.6479  1.2722
 6222TIP3    H242862   2.209   2.596  10.392  0.1798  1.3924  1.4310
 6223TIP3   OH242863   4.496   5.293  10.373 -0.0509 -0.0878 -0.2402
 6223TIP3    H142864   4.436   5.244  10.430  0.2585  0.2761  0.4091
 6223TIP3    H242865   4.451   5.376  10.355  0.2787  0.2086  0.2941
 6224TIP3   OH242866   2.230   5.203   9.104 -0.3611  0.2538 -0.2103
 6224TIP3    H142867   2.269   5.176   9.187 -0.0381  0.4699 -0.2870
 6224TIP3    H242868   2.161   5.139   9.087  1.4177 -1.5116 -1.1915
 6225TIP3   OH242869   0.967   3.064  10.933 -0.1344 -0.3434  0.2513
 6225TIP3    H142870   0.898   3.129  10.922  2.3676  2.3945 -0.8655
 6225TIP3    H242871   0.971   3.018  10.849  0.3212  0.5474 -0.2314
 6226TIP3   OH242872   0.569   5.424  10.090 -0.3742  0.0157 -0.1991
 6226TIP3    H142873   0.617   5.471  10.022  0.2173 -0.2770  0.0133
 6226TIP3    H242874   0.605   5.457  10.172 -0.9232  0.1975 -0.0206
 6227TIP3   OH242875   3.676   6.196  12.093 -0.0669  0.2040 -0.1563
 6227TIP3    H142876   3.738   6.260  12.128 -1.3994  0.7964  1.2776
 6227TIP3    H242877   3.613   6.248  12.044 -0.3609 -0.1786 -0.1923
 6228TIP3   OH242878   0.150   0.769  12.107 -0.2670 -0.4650 -0.3762
 6228TIP3    H142879   0.063   0.732  12.124 -0.2827  0.5779  2.3917
 6228TIP3    H242880   0.132   0.850  12.060 -0.6720 -0.9587 -1.0890
 6229TIP3   OH242881   3.410   5.881  10.329 -0.2866 -0.0400  0.3273
 6229TIP3    H142882   3.359   5.862  10.407  1.1660 -1.8161  0.9078
 6229TIP3    H242883   3.493   5.915  10.361 -0.3982  1.1387 -0.5406
 6230TIP3   OH242884   0.158   6.801  10.310  0.5242  0.0375  0.2098
 6230TIP3    H142885   0.135   6.734  10.374  0.0562 -0.1767 -0.1760
 6230TIP3    H242886   0.253   6.813  10.321  0.4723 -0.0923  0.8415
 6231TIP3   OH242887   4.510   0.478   9.850  0.8631  0.7822 -0.1447
 6231TIP3    H142888   4.569   0.421   9.900 -0.7220 -0.7636  0.0914
 6231TIP3    H242889   4.423   0.440   9.865 -0.0343  2.1856 -1.5337
 6232TIP3   OH242890   3.018   1.701  10.790 -0.0718 -0.0867 -0.0379
 6232TIP3    H142891   3.094   1.758  10.807 -2.1543  2.4147  1.6434
 6232TIP3    H242892   2.977   1.739  10.712  0.2225 -1.3280 -0.8373
 6233TIP3   OH242893   6.592   7.083  10.418 -0.3731  0.1015  0.0800
 6233TIP3    H142894   6.599   7.028  10.340  0.9261  0.2269  0.0940
 6233TIP3    H242895   6.670   7.062  10.470 -0.1337  1.5442  0.3396
 6234TIP3   OH242896   6.617   0.911  10.369 -0.5401  0.9583  0.6800
 6234TIP3    H142897   6.691   0.944  10.318  0.9666  0.4642  2.3979
 6234TIP3    H242898   6.618   0.817  10.355  0.2603  0.7428  1.9975
 6235TIP3   OH242899   3.716   4.494  11.830 -0.4209 -0.2411 -0.2369
 6235TIP3    H142900   3.796   4.473  11.783 -0.3795  0.0336 -0.2929
 6235TIP3    H242901   3.696   4.584  11.805 -0.6630 -0.2550 -0.1042
 6236TIP3   OH242902   3.559   6.209  11.783  0.2360  0.2361  0.6497
 6236TIP3    H142903   3.466   6.186  11.775  0.6974 -1.1289 -2.1619
 6236TIP3    H242904   3.566   6.295  11.742  0.6848 -1.3947 -3.0879
 6237TIP3   OH242905   1.155   4.920  10.998  0.3184  0.3763  0.5081
 6237TIP3    H142906   1.175   4.873  11.078  2.1574  0.7877  0.3148
 6237TIP3    H242907   1.181   5.011  11.015 -1.3627  0.9728  0.1936
 6238TIP3   OH242908   0.626   3.663  10.337 -0.5278 -0.3035  0.1305
 6238TIP3    H142909   0.680   3.725  10.287 -0.5622 -0.7575 -0.4886
 6238TIP3    H242910   0.640   3.579  10.293 -1.7686 -0.4190 -0.0621
 6239TIP3   OH242911   0.797   3.823  11.214 -0.3024 -0.4654  0.0917
 6239TIP3    H142912   0.805   3.857  11.125 -0.3140  1.3195  0.7297
 6239TIP3    H242913   0.721   3.764  11.210  1.7765 -3.2395 -1.8269
 6240TIP3   OH242914   1.469   2.860  10.784  0.4559 -0.0462  0.1762
 6240TIP3    H142915   1.420   2.785  10.817  1.0754 -0.8384 -0.6358
 6240TIP3    H242916   1.553   2.823  10.757  0.9169  1.0137  0.0948
 6241TIP3   OH242917   5.930   6.314  10.729 -0.6364  0.5306  0.5977
 6241TIP3    H142918   5.963   6.396  10.692 -2.0609  0.4097 -1.0480
 6241TIP3    H242919   5.835   6.322  10.723 -0.8075 -1.9163 -1.2359
 6242TIP3   OH242920   2.085   3.867  10.675 -0.7108  0.4261  0.0902
 6242TIP3    H142921   2.134   3.802  10.624 -0.1069  1.0924 -0.2082
 6242TIP3    H242922   2.067   3.825  10.758 -2.0998 -0.8530 -0.8242
 6243TIP3   OH242923   6.544   0.040  11.493 -0.3478 -0.2030 -0.1793
 6243TIP3    H142924   6.502   0.001  11.416 -1.8172 -1.8916  1.3791
 6243TIP3    H242925   6.534   0.135  11.480 -1.8254 -0.4854 -1.3994
 6244TIP3   OH242926   6.104   1.472   9.775  0.3181  0.6227 -0.0655
 6244TIP3    H142927   6.070   1.390   9.809  0.3427  0.9986  0.8988
 6244TIP3    H242928   6.198   1.458   9.768  0.3926  0.7299  0.6072
 6245TIP3   OH242929   0.258   6.938  11.665 -0.7042  0.1555  0.6953
 6245TIP3    H142930   0.192   6.869  11.659 -0.1226 -0.3680  0.1329
 6245TIP3    H242931   0.308   6.930  11.584  1.7693 -1.2205  2.2529
 6246TIP3   OH242932   1.127   3.880  11.029 -0.1085  0.4668  0.3449
 6246TIP3    H142933   1.053   3.923  11.072  0.1568  0.6087  0.6635
 6246TIP3    H242934   1.197   3.946  11.029  0.3479 -0.0011  0.9740
 6247TIP3   OH242935   6.782   1.412  10.513 -0.4916 -0.3256  0.3684
 6247TIP3    H142936   6.830   1.430  10.594 -0.4182  0.2502  0.2084
 6247TIP3    H242937   6.800   1.489  10.458 -2.8059  0.6531  0.8568
 6248TIP3   OH242938   3.409   6.993  11.209 -0.1682 -0.1547 -0.0163
 6248TIP3    H142939   3.387   7.025  11.121  1.1318 -0.9571 -0.6663
 6248TIP3    H242940   3.489   7.042  11.232 -0.4562 -0.0140  0.6911
 6249TIP3   OH242941   6.208   4.543  10.916  0.0147  0.4747  0.6597
 6249TIP3    H142942   6.286   4.488  10.912 -0.6683 -0.4620 -0.4049
 6249TIP3    H242943   6.137   4.481  10.935 -0.5442  1.2329  1.0549
 6250TIP3   OH242944   0.901   5.771  10.554 -0.6637  0.0090 -0.4078
 6250TIP3    H142945   0.943   5.777  10.468  1.7120 -0.1245  0.6894
 6250TIP3    H242946   0.893   5.677  10.570  1.3899 -0.0385  0.6153
 6251TIP3   OH242947   0.075   0.998  11.950  0.0444 -0.0919 -0.0313
 6251TIP3    H142948   0.125   1.009  11.869  0.4442 -0.6467  0.1311
 6251TIP3    H242949   0.006   0.936  11.927 -1.6128  1.9062 -0.6932
 6252TIP3   OH242950   1.570   5.908  11.981  0.6988  0.6300  0.2844
 6252TIP3    H142951   1.511   5.983  11.974 -0.6479 -0.2249  1.7570
 6252TIP3    H242952   1.515   5.838  12.015  2.4101 -0.4135  1.0254
 6253TIP3   OH242953   5.407   7.304   9.806  0.0164 -0.3026 -0.6016
 6253TIP3    H142954   5.422   7.333   9.896 -0.1661 -0.7914 -0.4128
 6253TIP3    H242955   5.476   7.348   9.755  0.0049  0.1177 -0.2529
 6254TIP3   OH242956   1.347   1.510  11.489  0.1603  0.2897  0.2671
 6254TIP3    H142957   1.311   1.543  11.571 -1.5911  1.4771 -0.8954
 6254TIP3    H242958   1.273   1.512  11.428  1.3288 -0.8158 -1.2793
 6255TIP3   OH242959   6.860   4.942  10.138 -0.0083 -0.0599 -0.0273
 6255TIP3    H142960   6.850   5.036  10.153 -0.3289 -0.2019  0.7008
 6255TIP3    H242961   6.868   4.934  10.043 -1.1574  0.5931 -0.2050
 6256TIP3   OH242962   4.825   4.892  10.993  0.4079 -0.6308  0.1440
 6256TIP3    H142963   4.850   4.939  11.072  0.0028  1.0830 -0.7059
 6256TIP3    H242964   4.894   4.912  10.930 -0.4163 -0.0889 -0.6205
 6257TIP3   OH242965   2.091   2.773  11.025  0.9748  0.0779 -0.2407
 6257TIP3    H142966   2.174   2.728  11.004  1.2984  0.1512  0.8417
 6257TIP3    H242967   2.115   2.840  11.089  0.1507  0.4298 -0.2867
 6258TIP3   OH242968   1.847   2.921   9.959 -0.6144 -0.3386  0.3362
 6258TIP3    H142969   1.902   2.990   9.922 -0.1160 -0.4539  0.8291
 6258TIP3    H242970   1.896   2.891  10.036 -0.8213 -1.2339  0.1330
 6259TIP3   OH242971   5.585   1.986  11.232 -0.1398 -0.1663 -0.6806
 6259TIP3    H142972   5.550   1.900  11.257  1.1431  0.0083  2.0126
 6259TIP3    H242973   5.676   1.985  11.263 -0.8779  3.1284  2.1853
 6260TIP3   OH242974   4.309   3.814  11.466  0.1232 -0.2199  0.2039
 6260TIP3    H142975   4.401   3.804  11.443 -0.2603 -1.2080 -0.9927
 6260TIP3    H242976   4.262   3.757  11.405 -1.5075  2.1413 -0.9323
 6261TIP3   OH242977   6.970   2.899   9.801 -0.4333 -0.2290  0.6104
 6261TIP3    H142978   7.043   2.871   9.746  0.0454  0.1736  1.0301
 6261TIP3    H242979   6.979   2.994   9.806 -0.2809 -0.2898  1.6436
 6262TIP3   OH242980   6.344   0.672  11.152 -0.9985  0.6592  0.7306
 6262TIP3    H142981   6.276   0.671  11.085  0.6881 -0.8002 -1.0862
 6262TIP3    H242982   6.426   0.666  11.103  0.2865 -1.8442  2.9286
 6263TIP3   OH242983   1.971   4.403  12.251  0.5150 -0.1367  0.4122
 6263TIP3    H142984   2.041   4.452  12.207  1.2588 -0.9235  0.6917
 6263TIP3    H242985   1.997   4.402  12.343  0.1946 -0.5440  0.5019
 6264TIP3   OH242986   7.170   5.497  10.386  0.2008  0.4377 -0.1600
 6264TIP3    H142987   7.231   5.570  10.385 -0.5217  1.2113  2.6015
 6264TIP3    H242988   7.209   5.435  10.448  0.3707 -1.1624 -1.7973
 6265TIP3   OH242989   5.817   4.894  11.994  0.4936 -0.7392  0.1777
 6265TIP3    H142990   5.857   4.815  11.959  0.6021 -0.6704  0.1463
 6265TIP3    H242991   5.764   4.864  12.069  0.2755 -0.8821 -0.0333
 6266TIP3   OH242992   0.526   3.270  10.816 -0.0189  0.6101  0.3477
 6266TIP3    H142993   0.616   3.250  10.842  0.1743 -1.9184 -1.8559
 6266TIP3    H242994   0.471   3.222  10.878  0.1280  1.4547  1.1575
 6267TIP3   OH242995   2.524   2.732  10.276  0.2521  0.2530 -0.5653
 6267TIP3    H142996   2.557   2.733  10.365 -0.4875  0.0592 -0.2777
 6267TIP3    H242997   2.438   2.691  10.283 -0.4908  1.6485 -1.1138
 6268TIP3   OH242998   1.058   2.385  11.277 -0.3789  0.1203 -0.0958
 6268TIP3    H142999   1.067   2.446  11.203  1.2850  0.1951  0.1454
 6268TIP3    H243000   0.973   2.344  11.263 -0.7376  1.1894 -1.2557
 6269TIP3   OH243001   0.001   2.998  12.483 -0.5943 -0.8406  0.4620
 6269TIP3    H143002  -0.051   2.962  12.412  0.3225  3.2877 -2.6815
 6269TIP3    H243003   0.084   2.950  12.478 -1.1062 -1.6915 -0.1606
 6270TIP3   OH243004   0.564   6.195   9.187 -0.4728 -0.3642  0.4709
 6270TIP3    H143005   0.574   6.104   9.161  0.4926 -0.0192 -0.4290
 6270TIP3    H243006   0.580   6.245   9.107 -0.2248  0.6287  1.1234
 6271TIP3   OH243007   6.285   2.588  10.323  0.1263 -0.0697 -0.2205
 6271TIP3    H143008   6.377   2.568  10.343  0.7341  1.0384 -1.6855
 6271TIP3    H243009   6.245   2.603  10.409  2.0627  2.4204  0.3841
 6272TIP3   OH243010   1.173   5.260   9.402 -0.2900 -0.0856 -0.1102
 6272TIP3    H143011   1.131   5.199   9.463 -0.5699  0.2509  0.0364
 6272TIP3    H243012   1.260   5.275   9.440  0.1729 -1.2075 -0.7051
 6273TIP3   OH243013   4.937   1.384  10.479 -0.9954 -0.4095  0.4874
 6273TIP3    H143014   4.855   1.337  10.492 -1.1337  0.1282  1.6788
 6273TIP3    H243015   4.968   1.405  10.567  0.4868 -0.6884  0.0707
 6274TIP3   OH243016   4.142   2.054  10.742  0.2562 -0.2211  0.2196
 6274TIP3    H143017   4.155   2.012  10.827 -1.3163 -0.6768  0.2658
 6274TIP3    H243018   4.156   1.984  10.678 -1.9157 -0.7761  0.2785
 6275TIP3   OH243019   0.463   0.698  10.273 -0.2821  0.9804  0.4736
 6275TIP3    H143020   0.399   0.701  10.202 -0.9230 -0.3438  0.9538
 6275TIP3    H243021   0.455   0.783  10.316 -0.3291  1.5643 -0.6343
 6276TIP3   OH243022   4.631   5.447  10.831 -0.1790  0.1293  0.1844
 6276TIP3    H143023   4.668   5.397  10.758 -1.1993  0.6543 -0.7129
 6276TIP3    H243024   4.539   5.422  10.835  0.0492 -0.6360  1.9587
 6277TIP3   OH243025   4.322   4.983  11.541 -0.2662 -0.1121 -0.4730
 6277TIP3    H143026   4.290   4.955  11.455  0.3406 -0.1272 -0.6968
 6277TIP3    H243027   4.271   5.061  11.562  0.6868  0.8445 -1.5725
 6278TIP3   OH243028   4.835   5.077  10.654 -0.1588 -0.2480  0.4375
 6278TIP3    H143029   4.861   5.148  10.595 -0.9613 -0.0085  0.3597
 6278TIP3    H243030   4.900   5.078  10.724 -0.6973  1.1877  0.9457
 6279TIP3   OH243031   3.361   5.358  11.359  0.1877  0.0664  0.2818
 6279TIP3    H143032   3.358   5.327  11.268 -1.3605  0.1749  0.2784
 6279TIP3    H243033   3.349   5.279  11.412  0.5009  0.0864  0.3866
 6280TIP3   OH243034   1.359   1.239  10.137 -0.6310 -0.4308 -0.6048
 6280TIP3    H143035   1.303   1.269  10.209 -1.2040  0.8779 -1.5565
 6280TIP3    H243036   1.434   1.298  10.138 -0.6444 -0.4034 -1.0791
 6281TIP3   OH243037   1.506   0.461  11.642  0.0227 -0.5213  0.1879
 6281TIP3    H143038   1.543   0.540  11.602  0.9922 -1.2933 -0.4971
 6281TIP3    H243039   1.425   0.445  11.594 -0.5835  0.4590  0.8370
 6282TIP3   OH243040   2.143   3.977   9.861 -0.1554  0.0414 -0.2231
 6282TIP3    H143041   2.120   3.884   9.862  1.4199 -0.4112 -1.5284
 6282TIP3    H243042   2.139   4.001   9.768  1.3734  0.7449 -0.1278
 6283TIP3   OH243043   3.270   1.397  11.001  0.0169  0.4147 -0.3448
 6283TIP3    H143044   3.339   1.461  10.982 -0.5219  1.0002 -0.3565
 6283TIP3    H243045   3.311   1.334  11.060  0.8373  0.2303 -1.0929
 6284TIP3   OH243046   2.453   3.223  12.220  0.1055  0.2527 -0.5204
 6284TIP3    H143047   2.531   3.262  12.262 -0.2949 -1.1911  1.7789
 6284TIP3    H243048   2.486   3.186  12.139  1.3444  1.5819 -0.6816
 6285TIP3   OH243049   5.308   1.919  10.987 -0.0752  0.5318  0.9903
 6285TIP3    H143050   5.316   1.967  10.905  1.4540 -1.9196 -0.4343
 6285TIP3    H243051   5.239   1.854  10.970  0.2794 -0.0295  1.6240
 6286TIP3   OH243052   5.909   5.749  11.354  0.1034  0.3772  0.6257
 6286TIP3    H143053   5.898   5.825  11.297  0.5335 -0.9853 -1.3680
 6286TIP3    H243054   5.929   5.786  11.440  1.6203  2.4941 -0.5559
 6287TIP3   OH243055   1.134   6.789   9.862  0.0152  0.5767  0.0688
 6287TIP3    H143056   1.056   6.842   9.846  1.3411  2.9673  1.1165
 6287TIP3    H243057   1.135   6.774   9.956  1.1257  1.1090  0.1607
 6288TIP3   OH243058   6.975   1.311  12.330 -0.1285 -0.1456  0.2720
 6288TIP3    H143059   7.045   1.342  12.272 -1.6917  3.0629 -0.1214
 6288TIP3    H243060   7.012   1.234  12.373  3.3327  0.8922 -0.5181
 6289TIP3   OH243061   3.641   6.016  10.979  0.1953  0.8144 -0.2118
 6289TIP3    H143062   3.577   5.982  11.042  1.2981  0.6540  0.8720
 6289TIP3    H243063   3.631   6.111  10.984 -0.1811  0.7795 -0.2945
 6290TIP3   OH243064   4.868   3.936  11.350  0.0947  0.5290  0.0272
 6290TIP3    H143065   4.797   3.875  11.330 -0.2406  1.1206 -0.6445
 6290TIP3    H243066   4.948   3.883  11.342 -0.1425  0.3181 -1.2039
 6291TIP3   OH243067   1.778   4.655  10.072  0.0507 -0.4457  0.0465
 6291TIP3    H143068   1.724   4.683   9.998 -0.8797 -0.2717  0.7674
 6291TIP3    H243069   1.715   4.618  10.135  0.5551  1.0383  1.5143
 6292TIP3   OH243070   0.882   7.373  10.875  0.6812  0.5798  0.4450
 6292TIP3    H143071   0.845   7.450  10.831  0.7952  0.1376 -0.4591
 6292TIP3    H243072   0.809   7.313  10.883  1.0632 -0.1094 -0.9217
 6293TIP3   OH243073   3.343   4.350  11.096 -0.1758 -0.0525  0.2053
 6293TIP3    H143074   3.254   4.384  11.104 -0.1205  0.6707 -1.6315
 6293TIP3    H243075   3.365   4.363  11.004  1.6046 -0.8074  0.4817
 6294TIP3   OH243076   6.101   2.176   9.795  0.6586 -0.1795  0.1696
 6294TIP3    H143077   6.028   2.235   9.811  0.0220 -0.5864 -1.1065
 6294TIP3    H243078   6.120   2.186   9.702  2.0940 -0.2514  0.4295
 6295TIP3   OH243079   7.456   5.753  12.021  0.2807  0.8773  0.2845
 6295TIP3    H143080   7.443   5.719  11.932 -0.2016  1.5778  0.0814
 6295TIP3    H243081   7.473   5.846  12.009  0.2447  0.9716  0.9287
 6296TIP3   OH243082   5.445   3.161  11.019  0.4245  0.1019  0.1639
 6296TIP3    H143083   5.397   3.236  10.985 -0.5004 -0.1828  0.8228
 6296TIP3    H243084   5.386   3.087  11.007  0.8930 -0.3400  0.5345
 6297TIP3   OH243085   3.347   3.165  12.290 -0.4704 -0.0125  0.5411
 6297TIP3    H143086   3.272   3.122  12.249 -1.2154  1.4384  0.3048
 6297TIP3    H243087   3.330   3.259  12.279  1.5370  0.3647  0.2011
 6298TIP3   OH243088   0.180   4.331  12.279 -0.0788  0.3695  0.5633
 6298TIP3    H143089   0.095   4.368  12.255 -0.7892 -0.5265  1.6231
 6298TIP3    H243090   0.243   4.400  12.255 -1.0215  0.8430 -0.7174
 6299TIP3   OH243091   7.020   6.559   9.687 -0.3993  0.2381  0.0436
 6299TIP3    H143092   7.089   6.625   9.691  0.5515 -0.7471  0.3866
 6299TIP3    H243093   7.045   6.495   9.754 -0.3326 -1.3701 -1.4593
 6300TIP3   OH243094   6.160   2.629  11.833  0.0001 -0.1882  0.0228
 6300TIP3    H143095   6.106   2.647  11.756 -0.1185  0.2984  0.2187
 6300TIP3    H243096   6.105   2.575  11.889  0.0207 -0.3881 -0.1448
 6301TIP3   OH243097   0.534   1.796  11.523  0.0494 -0.1371  0.7265
 6301TIP3    H143098   0.558   1.855  11.594  2.0484  1.5052 -1.1890
 6301TIP3    H243099   0.547   1.847  11.443  0.4316 -2.7081 -0.9698
 6302TIP3   OH243100   7.260   2.876  10.238  0.4818  0.0402 -0.2200
 6302TIP3    H143101   7.255   2.813  10.310  1.2937  1.3778  1.0669
 6302TIP3    H243102   7.353   2.880  10.216  0.4348  0.7150 -0.3260
 6303TIP3   OH243103   3.090   6.562  12.288  0.0228 -0.5429 -0.5845
 6303TIP3    H143104   3.047   6.567  12.203  1.6361  0.0058 -1.4059
 6303TIP3    H243105   3.174   6.521  12.271  0.4235 -0.3338  0.7386
 6304TIP3   OH243106   1.590   1.324  10.584 -0.0687 -0.2539 -0.0480
 6304TIP3    H143107   1.640   1.404  10.568  0.2253 -0.2130  1.0178
 6304TIP3    H243108   1.556   1.334  10.673 -1.1863 -0.7047 -0.4086
 6305TIP3   OH243109   5.400   1.180  11.043  0.0376  0.1615  0.0470
 6305TIP3    H143110   5.330   1.205  10.982 -1.2686 -2.2316  0.4300
 6305TIP3    H243111   5.368   1.205  11.129 -0.1176 -0.4247  0.1660
 6306TIP3   OH243112   0.966   3.802  10.376 -0.1260 -0.3622 -0.3911
 6306TIP3    H143113   1.009   3.817  10.292 -0.1596 -0.2424 -0.3861
 6306TIP3    H243114   0.910   3.878  10.389 -0.6549 -0.7166 -0.5892
 6307TIP3   OH243115   2.921   6.340  10.386  0.0999  0.2762  0.5597
 6307TIP3    H143116   2.999   6.389  10.411 -0.5511  0.7427  1.7828
 6307TIP3    H243117   2.914   6.352  10.291  1.9521 -0.4666  0.2789
 6308TIP3   OH243118   3.444   3.950  10.361  0.0196 -0.5258 -0.2051
 6308TIP3    H143119   3.392   3.884  10.405  1.2106 -1.8021 -0.6455
 6308TIP3    H243120   3.425   3.938  10.268  0.0994 -0.1221 -0.2761
 6309TIP3   OH243121   4.834   4.913  10.151 -0.4505 -0.2131 -0.2713
 6309TIP3    H143122   4.779   4.841  10.120  0.5900 -1.1095 -0.0965
 6309TIP3    H243123   4.782   4.954  10.221 -0.0531 -2.4510  1.4686
 6310TIP3   OH243124   6.084   1.927  11.039 -0.0506  0.2268  0.1041
 6310TIP3    H143125   6.058   2.015  11.063  0.0466  0.0563  0.8788
 6310TIP3    H243126   6.144   1.900  11.109  1.0483  0.0741 -0.8654
 6311TIP3   OH243127   3.623   5.576  11.689  0.0644  0.1721  0.0623
 6311TIP3    H143128   3.588   5.505  11.636  0.7336 -0.8554  0.9647
 6311TIP3    H243129   3.625   5.542  11.778  1.5141  0.8807  0.3408
 6312TIP3   OH243130   4.084   2.930  11.147 -0.2687 -0.2037 -0.1553
 6312TIP3    H143131   4.085   2.978  11.229  0.2825 -0.4980  0.0105
 6312TIP3    H243132   4.090   2.998  11.079  1.3819 -0.0671  0.0922
 6313TIP3   OH243133   2.625   6.580  10.100  0.2247  0.1867  0.0341
 6313TIP3    H143134   2.566   6.606  10.170 -0.5666 -0.2786 -0.4447
 6313TIP3    H243135   2.594   6.628  10.023 -0.3494 -1.0263 -0.5139
 6314TIP3   OH243136   5.619   6.447  11.531 -0.2168 -0.3936  0.0750
 6314TIP3    H143137   5.678   6.402  11.591  0.4228 -0.2382 -0.4259
 6314TIP3    H243138   5.676   6.482  11.463 -0.9315 -0.5744 -0.6277
 6315TIP3   OH243139   2.672   6.429  10.436 -0.0333 -0.9956  0.1105
 6315TIP3    H143140   2.673   6.522  10.413  1.8935 -0.7400  1.0623
 6315TIP3    H243141   2.762   6.400  10.423  0.2044 -1.8616  3.0274
 6316TIP3   OH243142   4.278   0.583   9.565  0.1076 -0.1520 -0.2451
 6316TIP3    H143143   4.361   0.568   9.520 -1.1152  0.3285 -2.8339
 6316TIP3    H243144   4.263   0.677   9.560  0.0544 -0.0234  1.5193
 6317TIP3   OH243145   2.985   3.449  12.007  0.4879  0.4054 -0.0311
 6317TIP3    H143146   2.912   3.493  12.051 -0.5858 -0.9745 -0.3316
 6317TIP3    H243147   2.966   3.356  12.019  1.6442  0.0208 -1.0521
 6318TIP3   OH243148   0.307   6.319  10.833 -0.5835  0.6177  0.0135
 6318TIP3    H143149   0.289   6.231  10.865 -0.8635  0.3206 -0.9158
 6318TIP3    H243150   0.292   6.376  10.908 -3.4378  0.1895 -0.0941
 6319TIP3   OH243151   5.446   2.646  11.045  0.3297 -0.5327 -0.4237
 6319TIP3    H143152   5.437   2.556  11.075 -0.9055 -0.0292  0.8341
 6319TIP3    H243153   5.538   2.668  11.061 -0.0824 -0.5506  2.3804
 6320TIP3   OH243154   3.404   5.864  11.838 -0.3146 -0.0721 -0.0450
 6320TIP3    H143155   3.313   5.850  11.813 -0.1850  0.0631 -0.6082
 6320TIP3    H243156   3.400   5.934  11.903 -0.5872  0.1680 -0.3137
 6321TIP3   OH243157   2.164   4.032   9.497 -0.6535  0.4779 -0.4583
 6321TIP3    H143158   2.146   3.938   9.494  1.8168 -0.0470 -1.3186
 6321TIP3    H243159   2.085   4.070   9.534 -1.2568 -2.0748  1.1521
 6322TIP3   OH243160   0.867   5.138  11.855 -0.1186  0.2301 -0.1992
 6322TIP3    H143161   0.845   5.223  11.891  4.0467  1.1018  0.7712
 6322TIP3    H243162   0.870   5.080  11.931  0.6618  0.1052 -0.3221
 6323TIP3   OH243163   5.550   4.005  10.907 -0.6136 -0.0990  0.2747
 6323TIP3    H143164   5.641   4.033  10.920 -0.5315 -0.4076  0.3787
 6323TIP3    H243165   5.527   3.960  10.988 -1.3093  1.1554  0.8152
 6324TIP3   OH243166   0.718   3.395  11.676 -0.1714  0.3294  0.1506
 6324TIP3    H143167   0.709   3.482  11.715 -1.8190  0.4669 -0.4725
 6324TIP3    H243168   0.694   3.334  11.746 -1.2909  0.4932 -0.0787
 6325TIP3   OH243169   7.279   2.065  11.381  0.0191  0.1107 -0.0268
 6325TIP3    H143170   7.321   2.126  11.321 -0.4278  0.8194  0.3649
 6325TIP3    H243171   7.219   2.014  11.326 -0.1278  0.5149 -0.2402
 6326TIP3   OH243172   0.165   0.359  10.038  0.1790 -0.1463 -0.0572
 6326TIP3    H143173   0.245   0.310  10.019  0.1605  0.3397 -1.4407
 6326TIP3    H243174   0.095   0.307   9.998  0.2731  1.5037 -2.5267
 6327TIP3   OH243175   7.410   6.768  11.839 -0.2757  0.3775 -0.3564
 6327TIP3    H143176   7.487   6.801  11.885  0.7614 -0.5847 -1.3687
 6327TIP3    H243177   7.431   6.777  11.746 -2.2147  1.9906 -0.7114
 6328TIP3   OH243178   4.530   5.583  11.632 -0.1642 -0.5623 -0.0890
 6328TIP3    H143179   4.530   5.589  11.536 -0.5937  0.7955 -0.0232
 6328TIP3    H243180   4.477   5.506  11.651  0.3781 -1.1732 -0.9524
 6329TIP3   OH243181   1.218   0.190  11.729 -0.1138 -0.2917  0.2248
 6329TIP3    H143182   1.225   0.110  11.675 -1.0595 -1.3394  1.5870
 6329TIP3    H243183   1.128   0.189  11.760  0.4160  0.2775  1.8266
 6330TIP3   OH243184   1.753   6.106   9.431 -0.6108 -0.0809  0.1446
 6330TIP3    H143185   1.668   6.123   9.472  0.0909 -0.4255  1.8673
 6330TIP3    H243186   1.746   6.017   9.396 -1.5035  0.5247 -1.2982
 6331TIP3   OH243187   3.231   2.985  12.489 -0.0899  0.0649  0.1931
 6331TIP3    H143188   3.250   2.896  12.516 -0.4245  0.3895  1.5626
 6331TIP3    H243189   3.304   3.009  12.433  1.2502 -0.2616  1.7330
 6332TIP3   OH243190   4.108   2.535  11.811  0.0990 -0.8917  0.0822
 6332TIP3    H143191   4.111   2.562  11.903  1.4239 -0.6811 -0.0053
 6332TIP3    H243192   4.183   2.577  11.771 -1.4376  0.4694 -1.5309
 6333TIP3   OH243193   2.465   7.239  11.039 -0.2564 -0.2110 -0.2728
 6333TIP3    H143194   2.422   7.255  11.123 -0.3841  0.9569 -0.5447
 6333TIP3    H243195   2.549   7.198  11.062 -0.1421  0.4124  0.4399
 6334TIP3   OH243196   2.559   3.414  11.465  0.0381 -0.6557 -0.3477
 6334TIP3    H143197   2.475   3.408  11.420 -0.3353 -0.4733  0.3150
 6334TIP3    H243198   2.582   3.507  11.462  0.4380 -0.7616 -0.9039
 6335TIP3   OH243199   3.690   6.788  10.624 -0.3582 -0.7110 -0.0456
 6335TIP3    H143200   3.633   6.715  10.601 -2.2635  0.5952  0.3428
 6335TIP3    H243201   3.641   6.837  10.690  1.2182  0.4989  0.2874
 6336TIP3   OH243202   0.627   4.850  12.068 -0.2817  0.3118  0.4717
 6336TIP3    H143203   0.563   4.914  12.099  0.4384  0.5784  1.4570
 6336TIP3    H243204   0.578   4.767  12.064 -0.8572  0.6418  0.5414
 6337TIP3   OH243205   4.708   7.160   9.776  0.6505 -0.0383 -0.1198
 6337TIP3    H143206   4.638   7.146   9.713  0.5917  0.8807 -0.2758
 6337TIP3    H243207   4.665   7.196   9.853  0.9410  0.5228 -0.2127
 6338TIP3   OH243208   1.685   6.663   9.869 -0.0257  0.4406 -0.2227
 6338TIP3    H143209   1.684   6.754   9.899  0.7296  1.0985 -2.0442
 6338TIP3    H243210   1.778   6.642   9.859 -0.1943 -0.5135  0.0662
 6339TIP3   OH243211   3.760   6.480  10.620  0.3541 -0.2629  0.3890
 6339TIP3    H143212   3.844   6.519  10.594 -0.2041  2.2608  1.9452
 6339TIP3    H243213   3.710   6.475  10.539  1.0227  0.9498 -0.1305
 6340TIP3   OH243214   6.702   1.445  12.082 -0.4295 -0.3483  0.2125
 6340TIP3    H143215   6.783   1.425  12.036  0.2989  1.9232  0.3754
 6340TIP3    H243216   6.662   1.360  12.100  2.5437 -1.6499  1.2779
 6341TIP3   OH243217   2.963   0.388  11.535 -0.4366 -0.4611 -0.3057
 6341TIP3    H143218   2.974   0.483  11.540 -1.1893 -0.4049  0.3513
 6341TIP3    H243219   2.926   0.363  11.619 -0.8600 -1.2630 -0.7181
 6342TIP3   OH243220   4.049   6.242   9.739 -0.1794  0.0172  0.0773
 6342TIP3    H143221   3.998   6.161   9.736 -1.0511  0.5115  0.9531
 6342TIP3    H243222   3.993   6.304   9.785  0.6397  1.0097 -0.2235
 6343TIP3   OH243223   3.250   4.317  10.817  0.4121 -0.2461  0.2119
 6343TIP3    H143224   3.190   4.369  10.870  2.0067  1.8456  0.0846
 6343TIP3    H243225   3.197   4.284  10.745 -0.9426  0.0736  1.0447
 6344TIP3   OH243226   0.220   3.182  10.194 -0.6733 -0.5112  0.1376
 6344TIP3    H143227   0.257   3.271  10.189 -1.9185  0.2045  2.2574
 6344TIP3    H243228   0.148   3.183  10.131  0.0108 -0.4297 -0.6738
 6345TIP3   OH243229   1.268   2.395   9.749 -0.5661 -0.0408 -0.5535
 6345TIP3    H143230   1.329   2.452   9.702 -1.9114  2.2641  0.3295
 6345TIP3    H243231   1.320   2.360   9.822  0.0591  0.8132 -0.5687
 6346TIP3   OH243232   2.521   7.095  10.777 -0.6112 -0.1624  0.4001
 6346TIP3    H143233   2.483   7.157  10.839  0.0368  0.3185  0.3224
 6346TIP3    H243234   2.583   7.146  10.726  0.9212 -1.1335  1.2217
 6347TIP3   OH243235   5.023   2.072  11.003  0.1586  0.3971  0.4199
 6347TIP3    H143236   5.091   2.120  10.956  1.0858 -1.8900 -0.6685
 6347TIP3    H243237   5.047   2.081  11.095  1.8782 -0.2563  0.0599
 6348TIP3   OH243238   0.767   0.894  12.655  0.3010 -0.2279 -0.1624
 6348TIP3    H143239   0.813   0.948  12.718  0.3282  1.4289 -1.5241
 6348TIP3    H243240   0.828   0.887  12.581 -0.8047  0.2909 -1.1537
 6349TIP3   OH243241   3.584   4.950  10.018  0.3560  0.0600 -0.0223
 6349TIP3    H143242   3.603   5.039  10.045  1.9350 -0.5002  0.8755
 6349TIP3    H243243   3.670   4.908  10.012 -0.3035 -1.2151 -1.0872
 6350TIP3   OH243244   5.430   6.320  11.717 -0.0905 -0.6982 -0.1257
 6350TIP3    H143245   5.336   6.341  11.711  0.0409 -0.3765 -1.1187
 6350TIP3    H243246   5.472   6.379  11.654  0.7765 -0.9081  0.2452
 6351TIP3   OH243247   3.242   3.574  12.495 -0.0541 -0.0627 -0.1702
 6351TIP3    H143248   3.239   3.498  12.553  3.1805 -0.3416 -0.1797
 6351TIP3    H243249   3.202   3.544  12.413 -0.5426 -1.1170  0.4451
 6352TIP3   OH243250   3.449   6.757   9.740 -0.2787  0.3266  0.4287
 6352TIP3    H143251   3.364   6.783   9.775 -0.8414  1.7012 -1.7869
 6352TIP3    H243252   3.486   6.837   9.704  1.8884 -0.2982  1.1622
 6353TIP3   OH243253   0.239   0.737  11.161  0.1827  0.7060 -0.1638
 6353TIP3    H143254   0.219   0.696  11.077  1.2268 -0.6430  0.2053
 6353TIP3    H243255   0.281   0.820  11.137  1.2233 -0.0287 -1.0217
 6354TIP3   OH243256   0.351   3.428  10.292  0.1229  0.6322  0.2467
 6354TIP3    H143257   0.350   3.475  10.209  1.2479  0.1505 -0.0488
 6354TIP3    H243258   0.443   3.416  10.313 -0.1334  0.8412  1.6367
 6355TIP3   OH243259   5.374   0.520  10.945 -0.5041 -0.0386 -0.1786
 6355TIP3    H143260   5.369   0.562  11.031  0.8650  0.7381 -0.4411
 6355TIP3    H243261   5.439   0.450  10.957 -0.8071 -0.3669 -0.4256
 6356TIP3   OH243262   0.356   4.160  10.029 -0.1385  0.6776  0.2944
 6356TIP3    H143263   0.345   4.255  10.020  1.1880  0.9516  1.2090
 6356TIP3    H243264   0.451   4.146  10.023 -0.3424 -0.6440 -0.1785
 6357TIP3   OH243265   1.718   3.945   9.644 -0.5343  0.3118 -0.1714
 6357TIP3    H143266   1.661   3.996   9.703  1.0309 -1.0329  2.7290
 6357TIP3    H243267   1.676   3.859   9.640  0.5919 -0.3249  1.0261
 6358TIP3   OH243268   4.176   4.806  10.692 -0.0992  0.3173 -0.1753
 6358TIP3    H143269   4.110   4.774  10.631 -0.8263 -0.5244  0.9975
 6358TIP3    H243270   4.172   4.902  10.685 -1.0256  0.2566 -0.5550
 6359TIP3   OH243271   0.175   0.262  10.526 -0.4742 -0.6389 -0.4254
 6359TIP3    H143272   0.149   0.316  10.451  2.6583  0.4749 -0.8751
 6359TIP3    H243273   0.187   0.324  10.598  3.9701 -0.2854 -1.1601
 6360TIP3   OH243274   4.305   6.270  12.135  0.3121  0.1199 -0.1210
 6360TIP3    H143275   4.300   6.288  12.041  1.6652  0.8467 -0.0814
 6360TIP3    H243276   4.287   6.354  12.177 -1.2755 -0.4094  0.3313
 6361TIP3   OH243277   0.531   5.011  10.382  0.4743  0.2942 -0.2856
 6361TIP3    H143278   0.515   5.031  10.475  1.7056  0.7031 -0.1418
 6361TIP3    H243279   0.515   4.917  10.374  0.3577  0.2570  0.3379
 6362TIP3   OH243280   1.952   4.571   9.836 -0.2821 -0.2805  0.3994
 6362TIP3    H143281   1.979   4.567   9.927  1.0821 -1.8844 -0.0042
 6362TIP3    H243282   2.033   4.587   9.788 -0.7825 -0.6675 -0.6086
 6363TIP3   OH243283   4.350   5.684  10.664 -0.6973 -0.4678 -0.9329
 6363TIP3    H143284   4.355   5.630  10.742 -0.5130  1.1520  0.2212
 6363TIP3    H243285   4.439   5.686  10.629 -0.5232 -0.2168 -0.4781
 6364TIP3   OH243286   4.911   3.872  10.504 -0.2797  0.4704  0.2706
 6364TIP3    H143287   4.867   3.888  10.587 -0.0833  0.8820  0.2928
 6364TIP3    H243288   4.993   3.921  10.509  0.2512 -0.3999  0.2836
 6365TIP3   OH243289   7.351   1.110  11.171 -0.3903  0.3460  0.2379
 6365TIP3    H143290   7.435   1.152  11.153 -0.6233  0.3236 -1.0207
 6365TIP3    H243291   7.374   1.023  11.203  0.0860 -0.1609 -1.3846
 6366TIP3   OH243292   6.831   2.353  12.372 -0.3448  0.7930 -0.0946
 6366TIP3    H143293   6.906   2.341  12.431 -0.0385  0.9664 -0.4473
 6366TIP3    H243294   6.855   2.428  12.318 -1.0914  1.3148  0.2790
 6367TIP3   OH243295   5.009   1.707  11.254  0.3183  0.0544  0.2244
 6367TIP3    H143296   5.052   1.697  11.169  0.3694  0.3333  0.2160
 6367TIP3    H243297   4.963   1.791  11.248  3.4863  2.1366  1.7821
 6368TIP3   OH243298   1.607   5.258  11.155 -0.6079  0.4778 -0.0423
 6368TIP3    H143299   1.633   5.226  11.069  1.1367  2.2798 -0.2544
 6368TIP3    H243300   1.538   5.322  11.138 -1.0459  0.0145 -0.0037
 6369TIP3   OH243301   1.589   3.859  10.989 -0.1630 -0.9154  0.1832
 6369TIP3    H143302   1.564   3.773  10.955  0.9596 -1.0743 -0.2918
 6369TIP3    H243303   1.534   3.872  11.066  1.1355 -3.0279  1.5706
 6370TIP3   OH243304   7.177   2.161  10.418  0.2352  0.1334  0.2356
 6370TIP3    H143305   7.141   2.120  10.496  0.4860 -1.2436 -0.3403
 6370TIP3    H243306   7.101   2.201  10.374  0.0888  0.8752  1.1330
 6371TIP3   OH243307   4.029   6.515  10.849 -0.0039 -0.1154 -0.8244
 6371TIP3    H143308   4.015   6.570  10.772 -1.2944 -0.1668 -0.6490
 6371TIP3    H243309   3.993   6.430  10.823 -0.5022 -0.1137 -0.1446
 6372TIP3   OH243310   6.094   0.496   9.659 -0.2207  0.7670 -0.3039
 6372TIP3    H143311   6.072   0.472   9.569 -0.5921 -0.5474  0.1127
 6372TIP3    H243312   6.187   0.473   9.667 -0.9134 -2.1591  0.5323
 6373TIP3   OH243313   0.837   6.158  12.392  0.1453  0.3473  0.1192
 6373TIP3    H143314   0.923   6.124  12.370 -0.4371 -0.1031 -1.6224
 6373TIP3    H243315   0.825   6.135  12.484  1.2138 -1.0571 -0.0547
 6374TIP3   OH243316   0.744   6.819  11.274  0.7605 -0.8844  0.1451
 6374TIP3    H143317   0.723   6.793  11.185  1.0938 -1.0937  0.1267
 6374TIP3    H243318   0.680   6.774  11.329  0.6083 -0.8214  0.0175
 6375TIP3   OH243319   1.809   1.527  10.713 -0.5454  0.0109  0.3134
 6375TIP3    H143320   1.886   1.584  10.716 -0.9162  0.5470  0.0345
 6375TIP3    H243321   1.758   1.552  10.791 -0.6669  0.0083  0.2354
 6376TIP3   OH243322   2.946   2.407  10.940 -0.0392  0.0635  0.0957
 6376TIP3    H143323   3.018   2.352  10.969  0.4025  0.2777 -0.5862
 6376TIP3    H243324   2.868   2.364  10.976  0.4492  0.1053  1.2527
 6377TIP3   OH243325   3.747   3.302  11.760  0.2375 -0.0666 -0.3359
 6377TIP3    H143326   3.780   3.389  11.782 -0.4720 -0.3351  2.1221
 6377TIP3    H243327   3.653   3.316  11.744 -0.0918 -0.4885  1.1078
 6378TIP3   OH243328   1.445   4.617  11.479  0.9006 -0.3305  0.1668
 6378TIP3    H143329   1.379   4.556  11.446  2.3614 -1.0840 -1.5485
 6378TIP3    H243330   1.397   4.673  11.540 -1.4055 -0.5777 -1.2879
 6379TIP3   OH243331   3.401   5.694  11.272 -0.2118 -0.0788  0.2792
 6379TIP3    H143332   3.376   5.656  11.356 -0.0481  1.0226  0.8479
 6379TIP3    H243333   3.495   5.680  11.265 -0.6802 -3.3995 -1.4393
 6380TIP3   OH243334   0.795   0.409  10.753  0.0402 -0.0070  0.4446
 6380TIP3    H143335   0.790   0.366  10.667  0.6711 -1.1321  0.9535
 6380TIP3    H243336   0.761   0.497  10.737  1.6685  0.3775 -1.3483
 6381TIP3   OH243337   3.775   2.337   9.880 -0.2681 -0.4388 -0.6247
 6381TIP3    H143338   3.856   2.377   9.850 -0.0643  0.0679  0.5281
 6381TIP3    H243339   3.742   2.397   9.947 -0.9465 -1.2543 -0.2018
 6382TIP3   OH243340   0.632   7.386  11.759 -0.4225 -0.1677  0.3067
 6382TIP3    H143341   0.552   7.346  11.791  0.5328 -2.0151  0.5217
 6382TIP3    H243342   0.690   7.387  11.835 -0.1685  0.9815  0.1095
 6383TIP3   OH243343   2.402   5.549  12.898  0.0220  0.2796  0.0238
 6383TIP3    H143344   2.361   5.527  12.814  0.8708  1.1969 -0.6529
 6383TIP3    H243345   2.338   5.604  12.942 -0.1281  0.3911 -0.3323
 6384TIP3   OH243346   5.317   7.058   9.911 -0.2764 -0.0445  0.1380
 6384TIP3    H143347   5.324   7.139   9.860  2.4487  0.2584  0.8388
 6384TIP3    H243348   5.347   6.990   9.851 -0.9065 -0.2962  0.1023
 6385TIP3   OH243349   4.361   6.840  10.784  0.3101 -0.2519  0.0436
 6385TIP3    H143350   4.310   6.788  10.846  1.5428 -1.2544  0.2594
 6385TIP3    H243351   4.337   6.805  10.699 -2.1810  1.8175 -0.2386
 6386TIP3   OH243352   0.281   1.313  11.415 -0.3110  0.5083  0.0960
 6386TIP3    H143353   0.376   1.307  11.405 -0.3120  0.9854 -0.2598
 6386TIP3    H243354   0.251   1.222  11.415  0.1095  0.3642 -0.1487
 6387TIP3   OH243355   0.121   0.055  11.763  0.4236 -0.1766  0.0910
 6387TIP3    H143356   0.050  -0.006  11.742  1.2311 -1.2653  0.4711
 6387TIP3    H243357   0.138   0.042  11.856  1.5515 -0.3905 -0.1312
 6388TIP3   OH243358   3.525   4.345  10.794  0.4007  0.0037 -0.2471
 6388TIP3    H143359   3.441   4.304  10.777  0.7146 -0.4513 -0.7254
 6388TIP3    H243360   3.588   4.273  10.796  0.6093  0.1913  1.3738
 6389TIP3   OH243361   3.600   1.917   9.840  0.0047  0.6433 -0.3099
 6389TIP3    H143362   3.680   1.957   9.807  1.1059 -0.9035  0.3926
 6389TIP3    H243363   3.627   1.869   9.918 -0.9098 -2.5803 -1.7949
 6390TIP3   OH243364   1.208   6.896  13.073 -0.3250 -0.2815 -0.1797
 6390TIP3    H143365   1.172   6.985  13.076  1.2670  0.3747  2.1451
 6390TIP3    H243366   1.134   6.840  13.097 -1.4836  0.2971 -2.1750
 6391TIP3   OH243367   3.294   0.632   9.816 -0.9519 -0.5078  0.2705
 6391TIP3    H143368   3.266   0.722   9.834  1.0297 -0.1674  2.1665
 6391TIP3    H243369   3.351   0.639   9.740 -1.4277 -0.2870 -0.0663
 6392TIP3   OH243370   6.328   1.586  11.923  0.1031 -0.0382  1.1070
 6392TIP3    H143371   6.337   1.676  11.953 -0.6265  1.0948 -1.7887
 6392TIP3    H243372   6.349   1.533  12.000 -0.9607  2.5775  3.3601
 6393TIP3   OH243373   6.182   1.012   9.921 -0.4895 -0.8921 -0.2242
 6393TIP3    H143374   6.159   0.988  10.011  0.6823 -1.5138 -0.0716
 6393TIP3    H243375   6.152   0.938   9.868 -2.2061 -0.0344 -0.5219
 6394TIP3   OH243376   3.312   4.075  11.741  0.0232  0.1210  0.2857
 6394TIP3    H143377   3.281   3.990  11.771 -0.7622  0.5270  0.6529
 6394TIP3    H243378   3.320   4.065  11.646 -0.1724 -0.3313  0.3135
 6395TIP3   OH243379   2.868   6.544  12.084 -0.1254  0.3911 -0.0135
 6395TIP3    H143380   2.872   6.621  12.026  0.7853 -0.6179 -1.3615
 6395TIP3    H243381   2.825   6.477  12.031  1.1673 -0.7102  0.2743
 6396TIP3   OH243382   5.075   2.435  16.974 -0.3807  0.0727 -0.1161
 6396TIP3    H143383   5.114   2.371  17.033 -0.8822  0.0260  0.1724
 6396TIP3    H243384   5.086   2.397  16.887  1.4111  0.6839 -0.1886
 6397TIP3   OH243385   2.728   0.439  10.365  0.2651 -0.2382 -0.7479
 6397TIP3    H143386   2.821   0.419  10.355  1.0035  0.3088  3.3782
 6397TIP3    H243387   2.690   0.359  10.402 -0.3583  0.3269 -0.1418
 6398TIP3   OH243388   0.494   0.089  10.743  0.5291 -0.2477 -0.2243
 6398TIP3    H143389   0.474   0.182  10.730  0.6463 -0.1741  0.1193
 6398TIP3    H243390   0.409   0.049  10.761  0.7709  0.2388  2.2908
 6399TIP3   OH243391   1.418   2.990  12.091  0.9250 -0.5287 -0.0790
 6399TIP3    H143392   1.472   3.057  12.050  0.3977 -0.3803 -0.5462
 6399TIP3    H243393   1.333   3.031  12.102  0.4906 -1.2316 -0.6975
 6400TIP3   OH243394   3.785   5.780  11.645 -0.0010 -0.3666  0.4461
 6400TIP3    H143395   3.709   5.725  11.662 -0.9350  0.3147 -1.3627
 6400TIP3    H243396   3.857   5.718  11.630 -0.6814 -1.0601  0.0125
 6401TIP3   OH243397   1.884   1.289  12.288  0.1082  0.1002 -0.6145
 6401TIP3    H143398   1.948   1.219  12.297  0.0268  0.2183  1.3148
 6401TIP3    H243399   1.909   1.354  12.354 -0.4035  1.4449 -1.6840
 6402TIP3   OH243400   1.779   4.210  10.477 -0.0509 -0.0877  0.1701
 6402TIP3    H143401   1.818   4.152  10.543  0.9751 -0.1584 -0.4764
 6402TIP3    H243402   1.687   4.217  10.503  0.1665 -0.7107  1.1792
 6403TIP3   OH243403   3.523   3.130  10.089 -0.1230  0.5552 -0.0310
 6403TIP3    H143404   3.576   3.076  10.030  0.4352  1.1005 -0.0435
 6403TIP3    H243405   3.574   3.210  10.099 -0.7702  0.9326  0.2728
 6404TIP3   OH243406   4.966   5.921   9.667 -0.2206  0.1606 -0.0350
 6404TIP3    H143407   4.957   5.892   9.758  0.4296 -0.0658 -0.0362
 6404TIP3    H243408   4.932   6.010   9.666 -0.4472  0.0809  0.3819
 6405TIP3   OH243409   0.538   3.600  12.226  0.4666 -0.2499  0.0479
 6405TIP3    H143410   0.569   3.513  12.201 -2.3031 -1.0400 -1.0945
 6405TIP3    H243411   0.558   3.655  12.151 -2.3688 -1.2248 -1.6085
 6406TIP3   OH243412   6.801   4.285  10.477  0.6647 -0.3216  0.0262
 6406TIP3    H143413   6.824   4.297  10.385  1.9892 -1.5278  0.1494
 6406TIP3    H243414   6.709   4.309  10.483  0.7791  0.5858 -1.4342
 6407TIP3   OH243415   5.761   5.283  12.199 -0.1284  0.1510  0.3206
 6407TIP3    H143416   5.835   5.222  12.191 -1.0523 -0.8178 -1.9767
 6407TIP3    H243417   5.686   5.233  12.166 -1.0500  2.3257 -1.1032
 6408TIP3   OH243418   5.183   1.558   9.927  0.0130 -0.0849 -0.1687
 6408TIP3    H143419   5.120   1.613   9.973 -0.3907  0.0833 -0.9095
 6408TIP3    H243420   5.268   1.598   9.944  0.0364 -0.6880  1.4028
 6409TIP3   OH243421   5.927   3.443  12.143 -0.2327  0.7116 -0.2498
 6409TIP3    H143422   5.902   3.351  12.142 -0.6192  0.8125 -0.2807
 6409TIP3    H243423   5.997   3.450  12.077 -2.0458  0.9340 -2.2757
 6410TIP3   OH243424   6.433   0.546  11.713 -0.2368 -0.4582  0.2249
 6410TIP3    H143425   6.414   0.619  11.772 -2.4601 -0.1797 -0.7295
 6410TIP3    H243426   6.366   0.553  11.644  1.3780 -1.6104 -1.5526
 6411TIP3   OH243427   6.559   3.486  11.416  0.7966  0.3819 -0.7801
 6411TIP3    H143428   6.551   3.405  11.364 -1.7732  0.1679 -0.1718
 6411TIP3    H243429   6.503   3.549  11.370 -0.2507  0.6581  0.8180
 6412TIP3   OH243430   0.627   4.766   9.837 -0.3993 -0.3379  0.2180
 6412TIP3    H143431   0.644   4.695   9.899 -1.0382  0.1407  0.9604
 6412TIP3    H243432   0.533   4.758   9.818 -0.6157  0.6822  0.7916
 6413TIP3   OH243433   2.790   5.214   9.767 -0.1110 -0.3951 -0.7579
 6413TIP3    H143434   2.801   5.246   9.677 -0.9210  1.0369 -0.3897
 6413TIP3    H243435   2.710   5.161   9.764 -0.9721  0.8493 -0.6248
 6414TIP3   OH243436   6.785   0.363  12.591 -0.1282  0.0401  0.2256
 6414TIP3    H143437   6.694   0.389  12.573 -0.0103 -0.0390 -0.5259
 6414TIP3    H243438   6.778   0.272  12.622 -0.3639  0.2884  0.9315
 6415TIP3   OH243439   1.257   6.162  11.679  0.1939  0.3052 -0.2256
 6415TIP3    H143440   1.236   6.214  11.757 -1.1786 -0.3001 -0.1558
 6415TIP3    H243441   1.307   6.221  11.624  1.9588  0.4844  1.4673
 6416TIP3   OH243442   6.007   6.120   9.789 -0.6157  0.1502 -0.1258
 6416TIP3    H143443   6.099   6.096   9.784 -0.1888  0.5652  3.3290
 6416TIP3    H243444   6.002   6.208   9.750  0.4213  0.0779 -0.4314
 6417TIP3   OH243445   6.625   0.537  11.135 -0.4339 -0.0336  0.3700
 6417TIP3    H143446   6.702   0.594  11.134 -1.5707  1.6138  1.4925
 6417TIP3    H243447   6.628   0.491  11.051  1.8914 -0.2294  0.4884
 6418TIP3   OH243448   2.587   4.002  10.239 -0.4082 -0.4135 -0.5129
 6418TIP3    H143449   2.625   3.986  10.153 -0.1953  0.6204 -0.6246
 6418TIP3    H243450   2.661   4.029  10.293 -0.7846  0.4919 -0.4306
 6419TIP3   OH243451   7.287   4.354  11.859 -0.2151 -0.0701  0.3309
 6419TIP3    H143452   7.336   4.274  11.878 -1.9823 -1.2293  0.2369
 6419TIP3    H243453   7.226   4.363  11.932 -1.3496  0.0879 -0.6007
 6420TIP3   OH243454   5.306   2.354  10.461 -0.2815 -0.1199  0.4227
 6420TIP3    H143455   5.262   2.426  10.416  0.2427 -0.6398 -0.9468
 6420TIP3    H243456   5.254   2.341  10.541 -1.1104  0.9450  0.0783
 6421TIP3   OH243457   4.600   3.773  10.764 -0.3079 -0.1205 -0.3845
 6421TIP3    H143458   4.581   3.679  10.760 -2.9685  0.3992 -1.6784
 6421TIP3    H243459   4.576   3.798  10.853 -1.4009 -0.3345 -0.6111
 6422TIP3   OH243460   0.568   5.915   9.217  0.1584 -0.6985 -0.0717
 6422TIP3    H143461   0.600   5.917   9.307  1.0105 -0.7830 -0.3652
 6422TIP3    H243462   0.515   5.835   9.213  0.7815 -1.1303  0.1398
 6423TIP3   OH243463   6.170   7.299  10.492  0.3197  0.5377 -0.1094
 6423TIP3    H143464   6.217   7.231  10.541  1.4576 -0.0973 -1.9734
 6423TIP3    H243465   6.085   7.260  10.472  0.1325  0.5221  0.6780
 6424TIP3   OH243466   3.762   6.842  11.964 -0.7219 -0.1810 -0.1335
 6424TIP3    H143467   3.840   6.811  11.918 -0.8999 -0.8695  0.0120
 6424TIP3    H243468   3.795   6.905  12.028 -0.3578  0.0029 -0.4966
 6425TIP3   OH243469   3.428   2.673  10.102  0.0122  0.0983  0.1246
 6425TIP3    H143470   3.338   2.643  10.108 -0.5059  1.3091 -1.1345
 6425TIP3    H243471   3.421   2.766  10.082  1.4955 -0.1413 -1.8124
 6426TIP3   OH243472   2.248   0.084   9.758 -0.0592 -0.2345  0.4606
 6426TIP3    H143473   2.308   0.077   9.684 -0.8330 -0.5092 -0.1516
 6426TIP3    H243474   2.304   0.107   9.832  0.6361  0.7105 -0.3309
 6427TIP3   OH243475   2.891   4.024  10.929 -0.3352  0.0896  0.7237
 6427TIP3    H143476   2.847   3.981  10.855 -2.1358  0.8455  1.3013
 6427TIP3    H243477   2.943   3.954  10.969 -0.0409 -0.5489 -0.7048
 6428TIP3   OH243478   2.295   3.196   9.849 -0.0651 -0.4483 -0.2666
 6428TIP3    H143479   2.325   3.140   9.778 -0.7743 -0.8770 -0.2427
 6428TIP3    H243480   2.367   3.195   9.913  0.5944 -0.0104 -0.9973
 6429TIP3   OH243481   4.041   2.936   9.885 -0.2162  0.2907 -0.3857
 6429TIP3    H143482   4.020   2.988   9.807 -1.7767 -0.4172 -0.4743
 6429TIP3    H243483   4.005   2.850   9.866 -0.6600  0.1237  1.1352
 6430TIP3   OH243484   2.430   6.327   9.974 -0.4458 -0.1885  0.2079
 6430TIP3    H143485   2.458   6.282  10.053 -0.1546  0.0794  0.2611
 6430TIP3    H243486   2.360   6.386  10.004  1.1887  1.5912  0.7159
 6431TIP3   OH243487   2.288   5.817  10.590 -0.1194 -0.4057  0.0408
 6431TIP3    H143488   2.212   5.770  10.555 -0.4636 -0.5822  0.9782
 6431TIP3    H243489   2.344   5.748  10.626  1.2298 -0.4155 -1.9455
 6432TIP3   OH243490   5.403   5.371  10.757 -0.1478  0.4591 -0.4289
 6432TIP3    H143491   5.458   5.449  10.761 -0.7923  0.9299 -0.4230
 6432TIP3    H243492   5.458   5.300  10.788  0.0571  1.1381  0.8328
 6433TIP3   OH243493   5.637   5.391  10.265 -0.3540 -0.1453 -0.2764
 6433TIP3    H143494   5.673   5.305  10.289  2.7398  1.1766  0.2699
 6433TIP3    H243495   5.554   5.370  10.221 -1.0651 -3.2431  2.1652
 6434TIP3   OH243496   0.519   2.764  11.660  0.0907  0.3164  0.2251
 6434TIP3    H143497   0.600   2.805  11.692  0.4541  0.1622 -0.4683
 6434TIP3    H243498   0.498   2.813  11.580 -0.1147 -0.0921  0.0263
 6435TIP3   OH243499   7.331   0.446  10.266 -0.0247  0.3971  0.5070
 6435TIP3    H143500   7.330   0.364  10.217  3.8081  0.8836 -0.7134
 6435TIP3    H243501   7.338   0.420  10.358 -2.0322 -0.5144  0.4690
 6436TIP3   OH243502   4.625   5.644  10.576 -0.0418  0.3046  0.0149
 6436TIP3    H143503   4.618   5.692  10.493 -1.7567  0.8811  0.4525
 6436TIP3    H243504   4.658   5.558  10.552 -0.1791  0.5833 -1.2109
 6437TIP3   OH243505   0.096   4.139   9.780  0.1720  0.5221 -0.0645
 6437TIP3    H143506   0.157   4.066   9.792 -0.4657 -0.1665 -0.9415
 6437TIP3    H243507   0.081   4.172   9.868  1.1218  0.1373  0.2590
 6438TIP3   OH243508   3.485   3.352   9.798 -0.0657  0.0727  0.0292
 6438TIP3    H143509   3.532   3.271   9.779  1.1549  0.7863 -0.0938
 6438TIP3    H243510   3.471   3.349   9.893 -2.8269 -1.7116 -0.3234
 6439TIP3   OH243511   3.440   0.312  11.389 -0.4441  0.5295  0.0745
 6439TIP3    H143512   3.514   0.275  11.341 -0.0174 -1.8168  2.3179
 6439TIP3    H243513   3.443   0.405  11.369  0.6003 -0.0590 -3.1199
 6440TIP3   OH243514   5.920   3.418  10.221  0.0252 -0.0420 -0.5839
 6440TIP3    H143515   5.861   3.429  10.296  0.5472 -0.2952 -0.1367
 6440TIP3    H243516   5.872   3.359  10.162 -0.2998 -0.0053 -0.3608
 6441TIP3   OH243517   1.088   6.407  10.460 -0.3252 -0.3983  0.2704
 6441TIP3    H143518   1.144   6.421  10.537  0.6848  0.4589 -0.5834
 6441TIP3    H243519   1.004   6.444  10.485 -0.4345 -1.3328  1.4334
 6442TIP3   OH243520   7.082   6.544  10.231 -0.2467  0.4062  0.3127
 6442TIP3    H143521   7.033   6.600  10.290 -1.4631 -1.2968  1.0032
 6442TIP3    H243522   7.083   6.458  10.274  1.6479 -0.1081 -0.6347
 6443TIP3   OH243523   0.701   4.768  10.592  0.8405 -0.0568 -0.5057
 6443TIP3    H143524   0.770   4.812  10.542  0.7645 -0.3077 -0.8301
 6443TIP3    H243525   0.635   4.744  10.527  0.1329  0.7614 -0.1124
 6444TIP3   OH243526   6.089   0.253  11.844  0.0781 -0.6500 -0.1703
 6444TIP3    H143527   6.152   0.291  11.905  0.7657 -0.7347 -0.8184
 6444TIP3    H243528   6.006   0.251  11.893  0.4704 -0.1150  0.5267
 6445TIP3   OH243529   5.501   4.016  11.377 -0.0481  0.5205  0.0805
 6445TIP3    H143530   5.508   3.964  11.297  0.4023 -0.0079  0.4510
 6445TIP3    H243531   5.505   4.107  11.347 -0.0028  0.3304 -0.5069
 6446TIP3   OH243532   0.474   3.812  11.791  0.1673  0.3519 -0.6673
 6446TIP3    H143533   0.462   3.776  11.703  1.3993 -2.4395  0.2108
 6446TIP3    H243534   0.470   3.907  11.779 -2.1980  0.0368 -3.3209
 6447TIP3   OH243535   2.247   0.637  12.203  0.3455  0.0536  0.7057
 6447TIP3    H143536   2.274   0.616  12.293  0.1055 -0.3931  0.6760
 6447TIP3    H243537   2.188   0.713  12.213  1.2374  0.7505  0.8083
 6448TIP3   OH243538   6.693   1.745  10.623  0.5907  0.6052 -0.7248
 6448TIP3    H143539   6.637   1.822  10.614  0.4554  0.6709  0.5193
 6448TIP3    H243540   6.716   1.722  10.533  1.6848  2.8480 -1.0852
 6449TIP3   OH243541   3.281   5.340  12.604  0.2750  0.0279 -0.3361
 6449TIP3    H143542   3.192   5.368  12.626  0.6580  2.1504 -1.2030
 6449TIP3    H243543   3.337   5.411  12.635  1.5274 -0.5666 -1.1342
 6450TIP3   OH243544   3.224   2.713  10.491  0.9322 -0.0229 -0.1357
 6450TIP3    H143545   3.316   2.701  10.468  1.3541  0.3072  1.2755
 6450TIP3    H243546   3.211   2.655  10.566 -0.7797 -2.2142 -1.9901
 6451TIP3   OH243547   4.032   2.042   9.448 -0.1195 -0.2138  0.0335
 6451TIP3    H143548   3.984   1.984   9.389  1.8232 -0.3489 -1.5272
 6451TIP3    H243549   4.103   1.987   9.483 -0.4892  0.2198  1.5337
 6452TIP3   OH243550   6.612   2.917  11.123 -0.4882 -0.1841 -0.0204
 6452TIP3    H143551   6.601   2.872  11.040  1.6874  0.5356 -0.7651
 6452TIP3    H243552   6.703   2.946  11.123 -1.4097  3.2181  0.8831
 6453TIP3   OH243553   5.345   4.025  10.705  0.0044 -0.1056  0.2583
 6453TIP3    H143554   5.414   4.005  10.768  0.3489  0.0618 -0.0678
 6453TIP3    H243555   5.276   4.066  10.758 -0.5799 -1.7952  0.8839
 6454TIP3   OH243556   0.782   2.308   9.853  0.2513  0.8050 -0.2948
 6454TIP3    H143557   0.856   2.316   9.793 -0.2438  0.6312 -0.9375
 6454TIP3    H243558   0.719   2.254   9.806 -1.4389  3.1985 -0.9306
 6455TIP3   OH243559   0.885   4.582  11.424  0.3701  0.2228 -0.1586
 6455TIP3    H143560   0.953   4.522  11.394 -0.9455 -1.8505  0.7959
 6455TIP3    H243561   0.883   4.651  11.357  2.4904 -0.3105 -0.8656
 6456TIP3   OH243562   7.190   1.686  10.032 -0.4433 -0.5363  0.8592
 6456TIP3    H143563   7.172   1.765   9.981  2.6541  0.5331  1.1995
 6456TIP3    H243564   7.190   1.615   9.969 -2.0961 -0.1197  0.3478
 6457TIP3   OH243565   2.878   3.186   9.882 -0.3973  0.5873  0.2432
 6457TIP3    H143566   2.823   3.157   9.955 -0.5986  0.6767  0.1271
 6457TIP3    H243567   2.842   3.142   9.806  2.6264 -3.2810  0.7875
 6458TIP3   OH243568   2.950   5.549  12.071  0.4304 -0.3915 -0.9044
 6458TIP3    H143569   2.989   5.615  12.128 -1.7313  0.1102  0.1036
 6458TIP3    H243570   3.022   5.489  12.051  2.2292  1.6905 -1.0488
 6459TIP3   OH243571   6.688   3.297  10.928 -0.6719  0.7916  0.0447
 6459TIP3    H143572   6.596   3.296  10.954 -0.4540  3.1609  1.1999
 6459TIP3    H243573   6.729   3.359  10.988  1.4331  0.8011 -1.2993
 6460TIP3   OH243574   4.246   6.805  11.685  0.2421  0.5808 -0.6433
 6460TIP3    H143575   4.302   6.731  11.708 -2.1110 -1.2591 -0.5371
 6460TIP3    H243576   4.186   6.814  11.759 -0.2087  1.9270 -1.1394
 6461TIP3   OH243577   7.215   2.238  11.015 -0.1188  0.1978 -0.3698
 6461TIP3    H143578   7.231   2.327  11.046  0.1866  0.7380 -1.9418
 6461TIP3    H243579   7.129   2.216  11.050  0.1475  0.7972  0.7017
 6462TIP3   OH243580   3.367   7.374  11.485  0.4021 -0.3086  0.4006
 6462TIP3    H143581   3.411   7.291  11.505  1.5182  0.0584 -0.4077
 6462TIP3    H243582   3.340   7.366  11.393 -1.6602 -0.6861  0.9939
 6463TIP3   OH243583   2.951   0.814   9.816  0.1857 -0.1551  0.3078
 6463TIP3    H143584   2.983   0.847   9.900 -0.1815  1.0668 -0.0171
 6463TIP3    H243585   2.918   0.726   9.836 -1.5499  0.7751  1.8293
 6464TIP3   OH243586   1.219   3.977  11.857  0.1553 -0.5649 -0.1508
 6464TIP3    H143587   1.142   3.999  11.910  1.4145  1.5190  0.9639
 6464TIP3    H243588   1.219   3.882  11.851 -1.7393 -0.6689  0.9794
 6465TIP3   OH243589   1.773   3.350  11.604 -0.0502 -0.3276 -0.0172
 6465TIP3    H143590   1.788   3.396  11.687 -1.3309 -1.2301  0.7585
 6465TIP3    H243591   1.845   3.288  11.598  0.0112 -0.3147  0.4824
 6466TIP3   OH243592   6.559   6.707  11.643 -0.6047 -0.2476 -0.2371
 6466TIP3    H143593   6.531   6.622  11.609  0.0611 -2.2427  3.6106
 6466TIP3    H243594   6.480   6.743  11.685 -0.0017 -0.9900  1.6425
 6467TIP3   OH243595   2.626   0.635  10.215  0.8142 -1.0063  0.6954
 6467TIP3    H143596   2.579   0.585  10.148 -1.0142  0.8344  0.5407
 6467TIP3    H243597   2.676   0.568  10.263 -0.3787 -2.7811 -0.4051
 6468TIP3   OH243598   4.003   5.714  11.977  0.1351 -0.2671  0.0513
 6468TIP3    H143599   4.006   5.736  11.884 -0.2318 -1.5656 -0.2907
 6468TIP3    H243600   4.046   5.787  12.021  2.2018 -0.5777 -1.3175
 6469TIP3   OH243601   6.892   6.266  11.189 -0.2329  1.0235 -0.3702
 6469TIP3    H143602   6.964   6.251  11.250  0.2034  1.8247 -0.6849
 6469TIP3    H243603   6.925   6.240  11.104 -0.0327  2.1106 -0.6457
 6470TIP3   OH243604   2.979   5.338  12.849 -0.7040  0.0244  0.2599
 6470TIP3    H143605   2.934   5.421  12.868 -0.1085  0.5054 -0.3918
 6470TIP3    H243606   3.053   5.338  12.909  1.3084  1.6503 -2.0398
 6471TIP3   OH243607   1.016   6.135  10.665  0.3514 -0.2671 -0.5192
 6471TIP3    H143608   1.057   6.084  10.596  0.6994 -1.1917  0.3485
 6471TIP3    H243609   0.985   6.070  10.728 -0.2051  0.5409  0.0569
 6472TIP3   OH243610   5.241   5.647  10.910  0.0762  0.3055  0.2724
 6472TIP3    H143611   5.178   5.606  10.969 -1.2870 -1.3482 -2.1571
 6472TIP3    H243612   5.200   5.730  10.884 -0.2901  0.0664  0.0784
 6473TIP3   OH243613   5.686   1.159  11.670  0.2999  0.2662 -0.3273
 6473TIP3    H143614   5.626   1.202  11.609  0.7926  1.0629 -0.2626
 6473TIP3    H243615   5.628   1.114  11.732 -0.2036 -0.6636 -1.4366
 6474TIP3   OH243616   5.453   4.895  12.075 -0.0027  0.6202  0.2781
 6474TIP3    H143617   5.362   4.866  12.085  0.2128 -0.8324 -1.4344
 6474TIP3    H243618   5.499   4.856  12.149 -0.4210 -0.3681  0.0341
 6475TIP3   OH243619   3.550   1.198  10.426 -0.2384  0.6931  0.5564
 6475TIP3    H143620   3.638   1.184  10.392 -1.2743 -1.2813 -1.6505
 6475TIP3    H243621   3.513   1.267  10.370 -1.5796 -1.8093 -1.9183
 6476TIP3   OH243622   3.853   4.698  12.025 -0.1336 -0.1280 -0.1606
 6476TIP3    H143623   3.880   4.628  11.966  0.4238 -0.1221  0.0835
 6476TIP3    H243624   3.865   4.661  12.112 -1.4608 -0.3261 -0.0404
 6477TIP3   OH243625   2.074   0.916  10.058 -0.2022 -0.1661  0.3714
 6477TIP3    H143626   2.023   0.845  10.019  1.4047 -0.8004 -0.6666
 6477TIP3    H243627   2.030   0.933  10.141 -0.6628 -2.3588  0.6553
 6478TIP3   OH243628   1.682   1.816  11.580 -0.0991 -0.5127  0.1484
 6478TIP3    H143629   1.636   1.749  11.530  0.4865 -1.8711  1.3739
 6478TIP3    H243630   1.680   1.785  11.670  1.0003  0.6495  0.6017
 6479TIP3   OH243631   2.794   1.101  11.593 -0.9656 -0.2852 -0.2400
 6479TIP3    H143632   2.882   1.134  11.608 -0.7510 -1.6393  2.0678
 6479TIP3    H243633   2.744   1.177  11.563  0.4137  1.1184  0.8415
 6480TIP3   OH243634   6.625   2.204  10.737 -0.2918  0.1072  0.6073
 6480TIP3    H143635   6.537   2.168  10.725 -0.5163  1.0188 -0.7398
 6480TIP3    H243636   6.618   2.294  10.706  1.3965 -0.1425 -0.6066
 6481TIP3   OH243637   0.690   1.202  11.943  0.3745 -0.0017 -0.3828
 6481TIP3    H143638   0.747   1.125  11.941 -0.2019 -0.4362 -0.5979
 6481TIP3    H243639   0.604   1.167  11.969  0.4444  0.8032  1.0124
 6482TIP3   OH243640   5.138   5.306   9.673 -1.0540  0.3580 -0.1793
 6482TIP3    H143641   5.117   5.214   9.661 -1.2409  0.5862 -1.8386
 6482TIP3    H243642   5.227   5.306   9.709 -0.8019 -0.4531 -0.7895
 6483TIP3   OH243643   0.475   6.510  10.534 -0.0838  0.1305  0.1939
 6483TIP3    H143644   0.540   6.512  10.465 -0.3341 -1.6388 -0.1259
 6483TIP3    H243645   0.477   6.598  10.572  0.3841  0.9779 -1.7310
 6484TIP3   OH243646   5.001   1.917   9.926 -0.1065 -0.4700  0.0413
 6484TIP3    H143647   4.964   1.988   9.979 -0.7012  0.1739 -1.2042
 6484TIP3    H243648   4.963   1.838   9.962  0.3033 -0.1511  1.2391
 6485TIP3   OH243649   3.034   3.933  10.471  0.2123 -0.0088 -0.3715
 6485TIP3    H143650   2.981   3.923  10.550  1.4531 -1.4945  0.3095
 6485TIP3    H243651   3.032   3.847  10.429  0.4511  0.4702 -1.4004
 6486TIP3   OH243652   5.851   5.977  11.549  0.0924  0.1942 -0.6892
 6486TIP3    H143653   5.801   6.046  11.593  0.9256 -1.0988  2.6255
 6486TIP3    H243654   5.792   5.902  11.550  1.4593 -1.0152  2.2167
 6487TIP3   OH243655   6.817   2.773  10.694 -0.0162  0.3451 -0.0420
 6487TIP3    H143656   6.872   2.834  10.645 -0.4787  0.4955 -0.3799
 6487TIP3    H243657   6.878   2.706  10.726  0.4779  0.9371  0.2599
 6488TIP3   OH243658   6.890   0.248  12.202  0.1380 -0.2569 -0.0122
 6488TIP3    H143659   6.921   0.178  12.261 -0.2185 -1.2064 -0.9201
 6488TIP3    H243660   6.933   0.327  12.234  1.9387 -1.1895 -0.0291
 6489TIP3   OH243661   5.921   2.836  11.819 -0.7086 -0.1132 -0.2889
 6489TIP3    H143662   5.868   2.774  11.869 -0.8968  0.5458  0.3364
 6489TIP3    H243663   5.957   2.895  11.884  2.0115 -1.3821 -0.5033
 6490TIP3   OH243664   4.227   0.541  10.538  0.8015  0.1156 -0.3697
 6490TIP3    H143665   4.234   0.463  10.592  0.0621 -0.0158 -0.4594
 6490TIP3    H243666   4.182   0.512  10.458  2.3924  0.1811 -1.3284
 6491TIP3   OH243667   1.417   4.136   9.817  0.3399  0.1945  0.6020
 6491TIP3    H143668   1.358   4.135   9.742  0.5178  0.0403  0.4616
 6491TIP3    H243669   1.361   4.160   9.891 -0.6258 -2.8330  1.0332
 6492TIP3   OH243670   1.200   3.662  10.911 -0.0475  0.2611  0.4778
 6492TIP3    H143671   1.194   3.682  10.818  1.4612 -0.5536  0.1712
 6492TIP3    H243672   1.177   3.744  10.955 -0.0361  0.8684 -0.6188
 6493TIP3   OH243673   3.753   4.907  11.620 -0.0551 -0.8167 -0.2685
 6493TIP3    H143674   3.682   4.874  11.673  0.6821 -0.2761  1.1033
 6493TIP3    H243675   3.812   4.833  11.609  1.8434 -0.0303  3.2148
 6494TIP3   OH243676   2.256   1.858  10.822 -0.1085 -0.7524 -0.4270
 6494TIP3    H143677   2.163   1.879  10.820  0.2388  1.1955 -3.6929
 6494TIP3    H243678   2.263   1.772  10.782 -0.4779 -0.5947 -0.8365
 6495TIP3   OH243679   3.298   6.749  10.358  0.1935 -0.2673  0.6147
 6495TIP3    H143680   3.319   6.736  10.450  0.6574  0.1471  0.5740
 6495TIP3    H243681   3.254   6.834  10.355  1.3742  0.3621  0.2958
 6496TIP3   OH243682   0.626   3.051  12.266  0.1223  0.0039 -0.0433
 6496TIP3    H143683   0.715   3.052  12.300  0.0585 -2.7631  0.4908
 6496TIP3    H243684   0.574   3.008  12.335 -1.8660  2.3159  0.0445
 6497TIP3   OH243685   5.864   5.305  10.824  0.4874 -0.6686  0.2237
 6497TIP3    H143686   5.858   5.366  10.898 -1.5625  1.4775 -1.5535
 6497TIP3    H243687   5.892   5.360  10.750 -2.3208 -1.5446 -1.6810
 6498TIP3   OH243688   7.341   5.068  10.810 -0.2637 -0.2074  0.2664
 6498TIP3    H143689   7.416   5.021  10.771  0.0372 -0.9292  1.6623
 6498TIP3    H243690   7.267   5.009  10.795 -0.5250  0.3840 -0.8722
 6499TIP3   OH243691   5.970   5.080  12.146  0.1089  0.2836 -0.0948
 6499TIP3    H143692   6.061   5.069  12.174  0.2387 -0.8244 -0.9193
 6499TIP3    H243693   5.938   4.991  12.130 -0.8581  0.7092 -0.6274
 6500TIP3   OH243694   6.721   3.701  10.169 -0.1658  0.4022  0.3038
 6500TIP3    H143695   6.732   3.791  10.140 -1.9075  0.8073  0.7944
 6500TIP3    H243696   6.790   3.652  10.124  0.0205  1.7564 -0.9358
 6501TIP3   OH243697   5.288   7.201  11.617  0.0141 -0.0778  0.2593
 6501TIP3    H143698   5.377   7.168  11.610  0.9236  1.9413  1.5425
 6501TIP3    H243699   5.263   7.186  11.708 -0.0618  1.4347  0.5103
 6502TIP3   OH243700   3.274   1.627  12.345  0.3818  0.2250 -0.0840
 6502TIP3    H143701   3.213   1.683  12.392  0.9135  0.5534  0.2213
 6502TIP3    H243702   3.358   1.674  12.348  0.1274  0.9607 -2.6280
 6503TIP3   OH243703   1.921   6.481  11.260 -0.0695 -0.3267  0.4678
 6503TIP3    H143704   1.826   6.475  11.258 -0.1319  0.6674 -0.4586
 6503TIP3    H243705   1.945   6.517  11.174  1.1472 -0.6507  0.6445
 6504TIP3   OH243706   5.812   3.887  10.102 -0.1469  0.1020 -0.0829
 6504TIP3    H143707   5.790   3.795  10.085  1.4158 -0.2886 -0.1079
 6504TIP3    H243708   5.771   3.935  10.029 -0.3439 -0.6508 -0.4802
 6505TIP3   OH243709   6.033   0.066  12.497  0.1834  0.4643  0.1723
 6505TIP3    H143710   5.940   0.042  12.493  0.6194 -1.1676 -1.2829
 6505TIP3    H243711   6.068   0.013  12.569  0.1773  0.3261  0.0748
 6506TIP3   OH243712   1.140   3.542  12.091  0.4889 -0.4697 -0.0239
 6506TIP3    H143713   1.052   3.540  12.129  0.7606 -0.6703  0.6117
 6506TIP3    H243714   1.186   3.470  12.134  1.1681  0.0682  0.1713
 6507TIP3   OH243715   5.273   0.093   9.825  0.2741 -0.0182 -0.5447
 6507TIP3    H143716   5.196   0.149   9.837 -1.0853 -1.7310 -0.9468
 6507TIP3    H243717   5.263   0.024   9.891  2.5562  0.7916  0.7737
 6508TIP3   OH243718   5.756   3.720  11.060  0.4835 -0.4683  0.1485
 6508TIP3    H143719   5.794   3.738  10.974 -0.1721 -0.5767 -0.1752
 6508TIP3    H243720   5.744   3.807  11.099 -0.6620 -0.2906 -0.5255
 6509TIP3   OH243721   6.276   3.638  10.731 -0.2750  0.2877  0.6627
 6509TIP3    H143722   6.305   3.685  10.653  2.8172 -0.9727  0.9327
 6509TIP3    H243723   6.229   3.562  10.697  1.4255 -0.4861 -0.0462
 6510TIP3   OH243724   0.207   4.414  10.875  0.1305 -0.3359 -0.2712
 6510TIP3    H143725   0.259   4.483  10.917 -2.4865  0.5047  1.9320
 6510TIP3    H243726   0.189   4.448  10.787 -1.4061  2.1448  0.8669
 6511TIP3   OH243727   3.830   6.553  11.645  0.1914 -0.1543 -0.3689
 6511TIP3    H143728   3.878   6.535  11.564  1.5590  1.8968 -0.0731
 6511TIP3    H243729   3.751   6.599  11.616 -0.5802 -1.5999 -0.6775
 6512TIP3   OH243730   1.003   1.604  10.962  0.5978  0.3521 -0.7147
 6512TIP3    H143731   1.044   1.631  10.880 -0.5797 -0.0628 -1.4617
 6512TIP3    H243732   0.947   1.531  10.938 -2.4921  2.3778 -0.2604
 6513TIP3   OH243733   1.416   2.437  11.114 -0.3456 -0.0484 -0.8827
 6513TIP3    H143734   1.476   2.370  11.145 -0.2384 -0.1723 -1.3528
 6513TIP3    H243735   1.450   2.519  11.150 -1.2989 -0.3882  0.9309
 6514TIP3   OH243736   1.761   2.667  11.762 -0.2073 -0.1276  0.1315
 6514TIP3    H143737   1.684   2.692  11.813 -1.0065 -0.6000 -0.7991
 6514TIP3    H243738   1.813   2.614  11.822 -1.0529 -0.5501  0.5125
 6515TIP3   OH243739   2.968   5.217  12.404 -0.0027 -0.1829 -0.2680
 6515TIP3    H143740   2.987   5.217  12.498 -2.4594  1.1257  0.3229
 6515TIP3    H243741   2.878   5.184  12.398 -0.5239  1.3501 -1.9515
 6516TIP3   OH243742   6.689   2.085  11.526 -0.0505  0.4670 -0.0942
 6516TIP3    H143743   6.725   2.162  11.571  1.0365  0.0584 -0.2306
 6516TIP3    H243744   6.676   2.021  11.596 -2.0788  1.1413  0.2058
 6517TIP3   OH243745   0.435   4.362  11.683  0.0348  0.2195 -0.0376
 6517TIP3    H143746   0.444   4.267  11.690 -0.4433  0.1555 -0.2848
 6517TIP3    H243747   0.525   4.393  11.674  0.0889 -0.3798 -2.0417
 6518TIP3   OH243748   2.661   4.267   9.936  0.0043 -0.0151 -0.3417
 6518TIP3    H143749   2.722   4.271  10.009  1.2827  1.7283 -1.4253
 6518TIP3    H243750   2.600   4.197   9.959  1.5450 -0.8503  1.4409
 6519TIP3   OH243751   4.439   2.600  10.762 -0.1159  0.0446  0.3352
 6519TIP3    H143752   4.453   2.674  10.821 -0.4248 -0.4933  1.1052
 6519TIP3    H243753   4.370   2.629  10.703 -1.9591 -0.4209  2.1325
 6520TIP3   OH243754   5.895   5.884   9.755  0.6426 -0.5471  0.8274
 6520TIP3    H143755   5.936   5.970   9.763 -0.5320  0.1306 -0.0184
 6520TIP3    H243756   5.967   5.822   9.760  1.6615  0.5507  0.1886
 6521TIP3   OH243757   5.289   3.880  12.089  0.3165 -0.5953 -0.2314
 6521TIP3    H143758   5.298   3.803  12.146 -0.3651 -0.2898  0.2926
 6521TIP3    H243759   5.267   3.843  12.003 -0.5471 -0.9709  0.1425
 6522TIP3   OH243760   7.257   2.500  11.130  0.0347 -0.3351  0.6462
 6522TIP3    H143761   7.334   2.488  11.074 -0.8646  0.4549 -0.8161
 6522TIP3    H243762   7.293   2.529  11.214  1.3791 -0.9302  0.3028
 6523TIP3   OH243763   4.171   1.138   9.911  0.3747 -0.9709 -0.3479
 6523TIP3    H143764   4.240   1.108   9.970 -0.5362 -2.8407 -0.1434
 6523TIP3    H243765   4.135   1.057   9.873 -1.2103 -0.0183 -0.9917
 6524TIP3   OH243766   0.517   2.175  12.548 -0.5420 -0.1122 -0.3688
 6524TIP3    H143767   0.457   2.124  12.603 -0.7018 -0.7382 -1.0947
 6524TIP3    H243768   0.483   2.163  12.459 -0.7455  1.5109 -0.5417
 6525TIP3   OH243769   3.912   1.530   9.940  0.0288  0.2353  1.0701
 6525TIP3    H143770   4.006   1.537   9.926  0.3241 -2.3576  1.2985
 6525TIP3    H243771   3.890   1.441   9.914 -2.6247  1.1406 -0.1726
 6526TIP3   OH243772   6.076   6.324  10.172  0.0871 -0.0032 -0.5844
 6526TIP3    H143773   6.001   6.285  10.217  0.6628  0.1159  0.5070
 6526TIP3    H243774   6.150   6.270  10.200  0.4085 -0.1718 -1.7157
 6527TIP3   OH243775   2.382   6.602  11.732  0.1802  0.2912  0.2995
 6527TIP3    H143776   2.434   6.591  11.652 -0.1091  0.3408  0.1011
 6527TIP3    H243777   2.366   6.513  11.763  3.3037  0.2558  2.3085
 6528TIP3   OH243778   4.374   1.875  11.206 -0.1341  0.1602  0.2942
 6528TIP3    H143779   4.438   1.858  11.275  0.5597  0.0069 -0.3768
 6528TIP3    H243780   4.362   1.791  11.163 -0.9251  0.1484  0.5220
 6529TIP3   OH243781   4.884   0.053   9.773 -0.0532 -0.6389  0.4287
 6529TIP3    H143782   4.893   0.136   9.818 -0.8727  0.6022 -1.5684
 6529TIP3    H243783   4.974   0.023   9.759  0.2364 -0.2197  1.3517
 6530TIP3   OH243784   6.515   0.090  10.863 -0.4190 -0.1892  0.4738
 6530TIP3    H143785   6.478   0.007  10.836  0.4799 -1.2022  2.1844
 6530TIP3    H243786   6.494   0.097  10.956 -0.4479  1.4898  0.3772
 6531TIP3   OH243787   4.527   0.176  12.042  0.3532  0.0677  1.0112
 6531TIP3    H143788   4.446   0.227  12.046  0.3314  0.0616  0.7079
 6531TIP3    H243789   4.511   0.101  12.100 -0.8704 -1.3498 -1.0165
 6532TIP3   OH243790   6.963   0.458  11.132 -0.0836 -0.4216 -0.2168
 6532TIP3    H143791   6.937   0.441  11.223 -0.6287  0.3352 -0.2216
 6532TIP3    H243792   6.951   0.553  11.121 -2.1274 -0.7894 -1.7200
 6533TIP3   OH243793   0.771   3.338  12.370 -0.2504 -0.6487 -0.4253
 6533TIP3    H143794   0.700   3.318  12.308 -0.5217 -2.1537  0.3254
 6533TIP3    H243795   0.838   3.272  12.351 -0.1575 -0.8517  0.5796
 6534TIP3   OH243796   3.073   1.372  10.599 -0.1944 -0.3500  0.0042
 6534TIP3    H143797   3.020   1.292  10.596  0.7887 -1.0571  0.6452
 6534TIP3    H243798   3.025   1.431  10.657 -0.6794 -0.6755 -0.0685
 6535TIP3   OH243799   4.889   3.476  10.844  0.1065 -0.3381  0.1832
 6535TIP3    H143800   4.805   3.431  10.852 -2.0796  3.3078  0.0253
 6535TIP3    H243801   4.911   3.468  10.751 -0.7818 -0.2299 -0.0493
 6536TIP3   OH243802   6.689   0.740   9.705 -0.0923  0.1112  0.3334
 6536TIP3    H143803   6.610   0.745   9.651  0.8308  0.7092 -1.0324
 6536TIP3    H243804   6.698   0.828   9.742 -0.4560 -0.1652  1.1057
 6537TIP3   OH243805   5.113   7.194  12.838  0.0657  0.0244  0.4775
 6537TIP3    H143806   5.040   7.149  12.795 -0.1815  1.3645 -0.5855
 6537TIP3    H243807   5.073   7.239  12.913  0.0732 -0.4201  0.7510
 6538TIP3   OH243808   7.436   1.340  10.765 -0.3525 -0.0876  0.4560
 6538TIP3    H143809   7.440   1.380  10.852  0.1890 -1.6337  1.1889
 6538TIP3    H243810   7.521   1.360  10.726 -1.3085  2.3202 -0.5784
 6539TIP3   OH243811   6.698   3.307  10.303 -0.2490 -0.3441  0.0054
 6539TIP3    H143812   6.625   3.253  10.333  0.7836 -0.9283  1.5604
 6539TIP3    H243813   6.658   3.392  10.284 -1.3117 -0.6061  0.9790
 6540TIP3   OH243814   2.713   2.262  10.001  0.2005 -0.7646  0.6560
 6540TIP3    H143815   2.651   2.335  10.000  0.0731 -0.8807  0.1997
 6540TIP3    H243816   2.761   2.269   9.919  1.2074 -0.3318  1.2645
 6541TIP3   OH243817   3.685   6.546  11.962  0.1052 -0.0429  0.9734
 6541TIP3    H143818   3.639   6.515  11.884 -0.7519 -1.4778  2.0049
 6541TIP3    H243819   3.668   6.640  11.963 -1.5902 -0.3041  0.5052
 6542TIP3   OH243820   1.426   6.388  11.608  0.1054  0.1941 -0.3021
 6542TIP3    H143821   1.397   6.468  11.652 -2.3692  0.4035 -2.0989
 6542TIP3    H243822   1.487   6.418  11.541  1.2219  0.2370  0.6975
 6543TIP3   OH243823   3.879   7.052  10.141  0.1619 -0.2214  0.2006
 6543TIP3    H143824   3.908   7.059  10.232 -1.8159 -1.0063  0.9301
 6543TIP3    H243825   3.784   7.060  10.144  0.0375 -0.2861 -1.8112
 6544TIP3   OH243826   3.281   4.676  10.778  0.2520  0.5634 -0.2520
 6544TIP3    H143827   3.264   4.745  10.841 -1.0232  1.3981 -1.4466
 6544TIP3    H243828   3.373   4.654  10.789 -0.2379 -0.3839  2.9057
 6545TIP3   OH243829   1.089   4.671   9.711  0.6962  0.7270  0.3693
 6545TIP3    H143830   1.006   4.718   9.702  0.9663  1.5554  1.9096
 6545TIP3    H243831   1.137   4.719   9.778  0.5747 -2.3027  2.8432
 6546TIP3   OH243832   5.131   1.689   9.334  0.0425  0.6142  0.0796
 6546TIP3    H143833   5.201   1.661   9.274  0.2638  0.3776  0.4414
 6546TIP3    H243834   5.136   1.627   9.407 -0.4834  0.6607  0.1549
 6547TIP3   OH243835   2.002   0.445  11.779 -0.0918  0.1402 -0.4760
 6547TIP3    H143836   2.017   0.444  11.873 -0.8650  2.6561 -0.2343
 6547TIP3    H243837   1.912   0.415  11.768  0.1955 -0.7376 -0.4931
 6548TIP3   OH243838   1.920   0.573  10.584  0.0416 -0.1830 -0.5376
 6548TIP3    H143839   1.996   0.539  10.537 -0.5859 -1.3285 -0.7483
 6548TIP3    H243840   1.867   0.496  10.603 -0.0514  0.3229  1.4701
 6549TIP3   OH243841   5.676   4.506  11.304 -0.0853  0.7443  0.2009
 6549TIP3    H143842   5.764   4.535  11.328  0.4274 -2.1951  2.4357
 6549TIP3    H243843   5.618   4.563  11.355  0.7270  0.2882  1.7040
 6550TIP3   OH243844   7.172   4.316  10.032 -0.6647  0.0735 -0.3965
 6550TIP3    H143845   7.218   4.351  10.108 -1.9325  0.2836  0.3021
 6550TIP3    H243846   7.234   4.256   9.992  0.5892  1.1044 -0.0845
 6551TIP3   OH243847   7.387   0.820  11.836  0.3468  0.1557 -0.7443
 6551TIP3    H143848   7.418   0.750  11.778 -0.2138 -1.6259  1.0111
 6551TIP3    H243849   7.302   0.788  11.868 -0.3058  2.0315 -0.5102
 6552TIP3   OH243850   1.059   3.068  11.203 -0.2304  0.1837 -0.5545
 6552TIP3    H143851   1.083   3.160  11.194 -2.1063  0.9023  1.1503
 6552TIP3    H243852   1.017   3.046  11.120 -0.9015  1.2542 -0.5119
 6553TIP3   OH243853   1.128   4.576  10.687  0.2763 -0.5887 -0.8899
 6553TIP3    H143854   1.222   4.569  10.673  0.5407  1.5283 -0.5261
 6553TIP3    H243855   1.112   4.670  10.695 -1.2671 -0.9974  3.0845
 6554TIP3   OH243856   4.092   0.020  10.592 -0.0604  0.4129  0.0523
 6554TIP3    H143857   4.080   0.029  10.687 -0.3073  1.0512 -0.0303
 6554TIP3    H243858   4.020  -0.037  10.564  0.4026 -0.3284  0.3343
 6555TIP3   OH243859   1.934   3.372  11.943  0.4865 -0.0642 -0.4031
 6555TIP3    H143860   1.962   3.311  12.011  1.2092 -1.0790 -1.5908
 6555TIP3    H243861   1.842   3.389  11.964  0.9833  0.5773  1.4966
 6556TIP3   OH243862   6.311   7.196  12.202 -0.5544  0.2196 -0.3890
 6556TIP3    H143863   6.374   7.128  12.226  0.1785  1.3266  0.9707
 6556TIP3    H243864   6.304   7.190  12.107  2.3219  0.6368 -0.7144
 6557TIP3   OH243865   4.293   5.922  10.554  0.4439 -0.2189  0.0479
 6557TIP3    H143866   4.329   5.846  10.600  0.6323  0.5793  1.2671
 6557TIP3    H243867   4.208   5.937  10.596  1.9629  2.4893  2.5639
 6558TIP3   OH243868   1.421   5.176  11.916 -0.0921  0.5282 -0.8808
 6558TIP3    H143869   1.405   5.082  11.914 -0.5128  0.6043 -1.6029
 6558TIP3    H243870   1.379   5.206  11.997  1.1590 -0.0764  0.0334
 6559TIP3   OH243871   5.420   0.730  11.403  0.1253 -0.2514 -0.2649
 6559TIP3    H143872   5.496   0.788  11.410  1.3067 -1.6577 -0.8430
 6559TIP3    H243873   5.345   0.788  11.405  1.2284  1.2211  0.0147
 6560TIP3   OH243874   0.282   6.944  10.992  0.0288  0.2221 -0.2307
 6560TIP3    H143875   0.226   7.012  10.956 -1.4497 -0.5767  0.4719
 6560TIP3    H243876   0.277   6.872  10.930 -1.7866 -0.8036  1.0125
 6561TIP3   OH243877   4.926   0.961  11.016 -0.0344 -0.4290 -0.3113
 6561TIP3    H143878   4.935   1.050  10.982  0.8477  0.0638  1.1545
 6561TIP3    H243879   4.994   0.911  10.971 -1.6715 -0.8496 -2.4996
 6562TIP3   OH243880   2.785   6.160  11.549  0.1875 -0.8236  0.4065
 6562TIP3    H143881   2.853   6.126  11.492  1.3107  2.0398 -0.1485
 6562TIP3    H243882   2.705   6.158  11.495  0.8289  0.0207 -0.6143
 6563TIP3   OH243883   4.756   5.808  12.476  0.1935 -0.0873 -0.0557
 6563TIP3    H143884   4.816   5.764  12.416  1.0792 -0.3047  0.9494
 6563TIP3    H243885   4.810   5.874  12.520 -0.5796  0.4789  0.0671
 6564TIP3   OH243886   3.524   6.480  11.686 -0.0815  0.6335  0.3546
 6564TIP3    H143887   3.559   6.531  11.613 -0.3272 -1.0686 -1.0086
 6564TIP3    H243888   3.430   6.496  11.684 -0.4231 -1.2717 -1.2837
 6565TIP3   OH243889   4.565   7.087  10.254  0.4372  0.5195 -0.2336
 6565TIP3    H143890   4.537   7.130  10.334  1.0315  1.4020 -0.4775
 6565TIP3    H243891   4.545   6.994  10.267  0.4011  0.6781  0.8694
 6566TIP3   OH243892   0.724   5.455  10.332  0.0046 -0.2452 -0.0665
 6566TIP3    H143893   0.783   5.385  10.303 -1.4180 -1.7101  0.4336
 6566TIP3    H243894   0.774   5.503  10.398  1.6611  0.3807 -1.7063
 6567TIP3   OH243895   2.089   5.043   9.537  0.0867  0.4105 -0.0120
 6567TIP3    H143896   2.164   5.020   9.592  0.6656  0.5627 -0.7253
 6567TIP3    H243897   2.053   4.959   9.510 -1.7162  0.2592  2.5573
 6568TIP3   OH243898   2.561   5.080  11.855  0.2111  0.2441 -0.3433
 6568TIP3    H143899   2.587   5.043  11.940  1.4576  1.8308  0.0206
 6568TIP3    H243900   2.514   5.009  11.811 -0.4481 -0.6243  1.6548
 6569TIP3   OH243901   2.852   2.803  10.607 -0.7301 -0.1255 -0.3177
 6569TIP3    H143902   2.844   2.709  10.620 -0.2242 -0.0368  0.7252
 6569TIP3    H243903   2.929   2.828  10.658 -1.7963  1.0906  0.7787
 6570TIP3   OH243904   3.282   0.913  11.784 -0.2425  0.2910 -0.2292
 6570TIP3    H143905   3.321   0.945  11.865  0.7058  0.3265 -0.6838
 6570TIP3    H243906   3.227   0.840  11.811  1.2414 -0.6810  0.2900
 6571TIP3   OH243907   1.287   4.908  10.047  0.2957 -0.4788 -0.0276
 6571TIP3    H143908   1.286   5.000  10.020  0.1396 -0.7658 -1.0148
 6571TIP3    H243909   1.328   4.910  10.134  1.3848  0.3943 -0.5233
 6572TIP3   OH243910   1.193   4.782  11.229 -0.4402 -0.3076  0.4124
 6572TIP3    H143911   1.183   4.833  11.309  1.8169 -0.4703  0.8658
 6572TIP3    H243912   1.214   4.694  11.258 -0.7100 -0.6397 -0.3620
 6573TIP3   OH243913   5.481   0.591   9.820 -0.2201 -0.3363 -0.3299
 6573TIP3    H143914   5.409   0.600   9.882  0.4794 -1.0851  0.6391
 6573TIP3    H243915   5.469   0.504   9.782  1.6493 -1.6849  1.8982
 6574TIP3   OH243916   4.648   7.326  10.816 -0.1827 -0.4514 -0.1195
 6574TIP3    H143917   4.655   7.271  10.894 -2.7115  0.0078  0.4904
 6574TIP3    H243918   4.683   7.410  10.844 -0.2736 -0.5322  0.2464
 6575TIP3   OH243919   2.166   1.306  11.790  0.1037  0.4390 -0.0430
 6575TIP3    H143920   2.228   1.243  11.754  1.6922  1.2023  1.2142
 6575TIP3    H243921   2.144   1.271  11.877 -0.0849  0.9146  0.1046
 6576TIP3   OH243922   3.143   0.914   9.638  0.6973 -0.0819  0.0866
 6576TIP3    H143923   3.221   0.915   9.693  0.1329  0.3943  0.9063
 6576TIP3    H243924   3.074   0.882   9.696 -0.0663  1.1153 -0.1233
 6577TIP3   OH243925   6.711   5.939  10.425 -0.8950  0.0006 -0.3550
 6577TIP3    H143926   6.673   5.866  10.375 -0.9336 -0.6433  0.5821
 6577TIP3    H243927   6.791   5.902  10.464 -0.7557  0.5494 -0.1123
 6578TIP3   OH243928   7.471   0.845  11.266  0.2363  0.3501  0.0957
 6578TIP3    H143929   7.565   0.828  11.278 -0.0918 -0.3624  1.8568
 6578TIP3    H243930   7.457   0.831  11.172  1.7481 -0.2080 -0.0856
 6579TIP3   OH243931   2.125   5.214  11.408 -0.0295  0.1078  0.2494
 6579TIP3    H143932   2.174   5.295  11.424  0.3130  0.0584 -0.5464
 6579TIP3    H243933   2.081   5.197  11.492  1.2908  0.1567  0.9813
 6580TIP3   OH243934   3.446   7.432  11.851  0.0521 -0.5018 -0.8533
 6580TIP3    H143935   3.361   7.432  11.895  0.3678 -1.5223 -0.2020
 6580TIP3    H243936   3.431   7.480  11.770 -0.6230  1.2306  0.2299
 6581TIP3   OH243937   5.751   1.596   9.949 -0.0766  0.1385 -0.2030
 6581TIP3    H143938   5.686   1.664   9.936 -1.3150 -1.0758 -0.6288
 6581TIP3    H243939   5.732   1.560  10.036  0.6476  0.4072  0.0746
 6582TIP3   OH243940   5.327   3.052  11.936  0.4057 -0.3876 -0.2979
 6582TIP3    H143941   5.252   3.111  11.947  0.1204 -0.7560 -0.2408
 6582TIP3    H243942   5.303   2.974  11.986  1.7445  0.3130  1.5387
 6583TIP3   OH243943   2.599   7.034  12.102  0.1556  0.2556  0.0112
 6583TIP3    H143944   2.648   7.109  12.137 -1.1488  1.2374 -0.1991
 6583TIP3    H243945   2.603   7.045  12.007  1.1182 -0.7358 -0.0930
 6584TIP3   OH243946   0.581   5.412  10.639 -0.3364 -0.0960  0.5490
 6584TIP3    H143947   0.602   5.502  10.665 -0.6366 -0.8420  3.8010
 6584TIP3    H243948   0.487   5.413  10.622  0.0603  0.6616 -1.8965
 6585TIP3   OH243949   6.311   1.210  11.596 -0.3162  0.4682 -0.0885
 6585TIP3    H143950   6.369   1.135  11.585 -0.7108 -0.2917  2.3859
 6585TIP3    H243951   6.269   1.220  11.510  0.1050 -1.8390 -0.6350
 6586TIP3   OH243952   4.890   1.163  10.830  0.1799 -0.2763 -0.5686
 6586TIP3    H143953   4.839   1.239  10.858 -0.1688 -1.2895  1.7538
 6586TIP3    H243954   4.851   1.138  10.746 -1.4407  0.5369 -0.0997
 6587TIP3   OH243955   0.843   3.181   9.882 -0.1406 -0.3557 -0.5647
 6587TIP3    H143956   0.892   3.248   9.931  1.2087 -2.3347  0.9501
 6587TIP3    H243957   0.755   3.184   9.920  0.6459 -1.2349  1.4694
 6588TIP3   OH243958   6.747   1.658  10.369 -0.0318 -0.7052 -0.2167
 6588TIP3    H143959   6.675   1.625  10.315 -0.0461 -0.9186 -0.0690
 6588TIP3    H243960   6.760   1.748  10.340 -2.3502  0.3835  1.7188
 6589TIP3   OH243961   1.246   3.668  10.023 -1.0538  0.0305  0.0649
 6589TIP3    H143962   1.308   3.653  10.094 -2.1476  1.1745  1.3362
 6589TIP3    H243963   1.271   3.606   9.955  2.6737  1.7128 -0.3126
 6590TIP3   OH243964   5.558   5.822  12.224 -0.4680  0.0437 -0.4535
 6590TIP3    H143965   5.624   5.755  12.241 -0.4858  0.1359 -0.0251
 6590TIP3    H243966   5.588   5.899  12.273 -0.9975  0.0215 -0.0833
 6591TIP3   OH243967   5.967   1.454  10.404 -0.1300 -0.5938 -0.3776
 6591TIP3    H143968   6.044   1.398  10.419 -0.1976 -0.8003 -0.7824
 6591TIP3    H243969   5.909   1.435  10.478 -0.5703 -1.7898 -1.0021
 6592TIP3   OH243970   3.707   1.727  10.020 -0.0155 -0.8272  0.1800
 6592TIP3    H143971   3.728   1.786  10.093 -1.3058  0.5031 -0.4694
 6592TIP3    H243972   3.790   1.682  10.001  1.3179  1.4770  0.0977
 6593TIP3   OH243973   6.756   6.398  10.867  0.0259 -0.0276  0.9248
 6593TIP3    H143974   6.810   6.389  10.788 -0.0941 -0.8066  0.9272
 6593TIP3    H243975   6.735   6.492  10.871 -0.0370  0.0067 -0.0120
 6594TIP3   OH243976   3.446   0.372  12.106 -0.4002  0.3578 -0.0134
 6594TIP3    H143977   3.441   0.308  12.177  0.4600  0.5284  0.2111
 6594TIP3    H243978   3.370   0.352  12.051 -0.0637 -0.9512 -0.0370
 6595TIP3   OH243979   3.527   2.317   9.708 -0.0555  0.6709  0.0467
 6595TIP3    H143980   3.540   2.409   9.685 -0.2854  0.4298 -1.1223
 6595TIP3    H243981   3.581   2.304   9.786  0.8266  1.5421 -0.3924
 6596TIP3   OH243982   0.969   2.398  10.023 -0.1132  0.0281  0.2901
 6596TIP3    H143983   0.891   2.382   9.971 -1.1502  2.7366  0.8160
 6596TIP3    H243984   0.941   2.382  10.113  1.0998 -2.6911  0.2659
 6597TIP3   OH243985   2.094   3.742   9.515  0.6232 -0.1524  0.1930
 6597TIP3    H143986   2.117   3.650   9.506 -1.9707 -0.7535 -1.4688
 6597TIP3    H243987   2.018   3.742   9.574  0.7943  0.9703  0.4359
 6598TIP3   OH243988   2.517   4.269  10.236  0.2084  0.2708 -0.9690
 6598TIP3    H143989   2.602   4.282  10.193  0.5726 -0.7448 -0.6055
 6598TIP3    H243990   2.492   4.180  10.211  0.3342 -0.2693  0.7156
 6599TIP3   OH243991   7.462   3.096  11.672 -0.9189  0.2312  0.6425
 6599TIP3    H143992   7.393   3.071  11.611 -0.3517  1.6319 -0.6537
 6599TIP3    H243993   7.507   3.169  11.629 -0.2175  1.0125  2.5687
 6600TIP3   OH243994   3.434   0.579  10.943 -0.3262  1.0693 -0.2456
 6600TIP3    H143995   3.509   0.599  10.998 -0.5862 -0.3492  0.6985
 6600TIP3    H243996   3.387   0.662  10.934  0.3826  1.5870  0.6658
 6601TIP3   OH243997   2.068   0.085  10.146  0.1595  0.8639  0.7060
 6601TIP3    H143998   2.017   0.143  10.202 -0.4213  0.5085  0.5490
 6601TIP3    H243999   2.098   0.015  10.205 -0.0263  0.7605  0.6779
 6602TIP3   OH244000   0.205   3.303  11.698  0.2083  0.1824 -0.3287
 6602TIP3    H144001   0.122   3.346  11.679  1.0695  1.0296 -2.5268
 6602TIP3    H244002   0.197   3.272  11.788 -2.1683  0.9343 -0.2332
 6603TIP3   OH244003   2.273   4.242  10.473 -0.0021 -0.2737 -0.0368
 6603TIP3    H144004   2.366   4.255  10.451 -0.3559  1.2696 -0.7783
 6603TIP3    H244005   2.227   4.300  10.413 -1.3376  0.4096  1.5943
 6604TIP3   OH244006   6.222   6.899  11.669  0.2326 -0.2022  0.5852
 6604TIP3    H144007   6.234   6.960  11.596  2.4089 -0.5332  0.6139
 6604TIP3    H244008   6.174   6.826  11.632 -1.0174  0.7892  0.1637
 6605TIP3   OH244009   7.426   0.404  10.732 -0.0484 -0.1084 -0.0291
 6605TIP3    H144010   7.507   0.432  10.690 -0.1322 -0.0644 -0.1610
 6605TIP3    H244011   7.441   0.419  10.825  0.7862 -1.7568  0.1507
 6606TIP3   OH244012   1.336   4.044  10.736 -0.1697  0.2575  0.5762
 6606TIP3    H144013   1.247   4.078  10.728 -1.2861 -2.7023 -0.8981
 6606TIP3    H244014   1.346   4.026  10.830 -1.1125  0.6021  0.7581
 6607TIP3   OH244015   5.239   2.943  10.420  0.0345 -0.0096 -0.1970
 6607TIP3    H144016   5.188   2.862  10.410 -0.5467  0.3354 -0.0530
 6607TIP3    H244017   5.179   3.004  10.464 -1.0088  1.8248 -3.7411
 6608TIP3   OH244018   3.736   0.327  10.251  0.3372 -0.4137  0.2100
 6608TIP3    H144019   3.701   0.347  10.338  0.2197 -0.7466  0.2418
 6608TIP3    H244020   3.672   0.267  10.213  0.2617 -0.0690 -0.2046
 6609TIP3   OH244021   3.101   3.862  10.139  0.2002 -0.8837 -0.3644
 6609TIP3    H144022   3.058   3.940  10.172 -1.4268 -1.7642 -0.3340
 6609TIP3    H244023   3.194   3.887  10.132 -0.1556  0.7653  0.4091
 6610TIP3   OH244024   4.475   0.767  18.494 -0.2026 -0.2528  0.0958
 6610TIP3    H144025   4.434   0.800  18.414  0.5784  0.9729  0.1748
 6610TIP3    H244026   4.527   0.692  18.465 -0.0118  0.1143 -0.5315
 6611TIP3   OH244027   2.870   4.873  10.707  0.2902  0.6722 -0.3678
 6611TIP3    H144028   2.917   4.863  10.624  1.0447 -0.1443  0.1439
 6611TIP3    H244029   2.927   4.928  10.760  0.6815 -0.2938  0.2432
 6612TIP3   OH244030   0.983   3.100  10.196 -0.0859  0.2717  0.3219
 6612TIP3    H144031   1.000   3.042  10.269  2.2310  0.2174 -0.1904
 6612TIP3    H244032   0.964   3.041  10.123  0.7517  0.1834  0.1626
 6613TIP3   OH244033   6.821   4.089  11.035  0.5016  0.5646 -0.5251
 6613TIP3    H144034   6.860   4.021  10.980 -1.7338 -1.4791  0.2333
 6613TIP3    H244035   6.894   4.121  11.088  1.4688 -2.4354  0.2034
 6614TIP3   OH244036   5.250   1.726  10.483  0.2581  0.5344  0.3563
 6614TIP3    H144037   5.158   1.726  10.457  0.6272 -1.3155 -1.1725
 6614TIP3    H244038   5.289   1.800  10.436 -0.0029 -0.0785 -0.8621
 6615TIP3   OH244039   5.356   5.841  10.104  0.3274  0.0424 -0.0705
 6615TIP3    H144040   5.415   5.892  10.160  1.8979 -2.1894  0.4923
 6615TIP3    H244041   5.365   5.751  10.136 -1.1640 -0.8470 -1.9186
 6616TIP3   OH244042   2.646   4.484  10.810  0.1650  0.0701 -0.3160
 6616TIP3    H144043   2.562   4.438  10.808 -0.5041  1.2608 -0.5365
 6616TIP3    H244044   2.651   4.528  10.725 -0.1430  1.9814  0.6122
 6617TIP3   OH244045   5.763   6.539  11.292  0.2440  0.0415  0.0555
 6617TIP3    H144046   5.833   6.603  11.282  0.4470 -0.2697 -0.6148
 6617TIP3    H244047   5.766   6.488  11.210 -1.9363  1.1910 -0.8095
 6618TIP3   OH244048   3.443   2.278  10.331  0.2846  0.4433 -0.9215
 6618TIP3    H144049   3.468   2.201  10.382  2.3297 -0.3941 -2.9883
 6618TIP3    H244050   3.349   2.271  10.319  0.1068 -0.4901  0.8333
 6619TIP3   OH244051   5.327   6.042  10.989 -0.0352 -0.4701  0.0912
 6619TIP3    H144052   5.312   5.973  11.053  0.0444 -0.2098  0.3945
 6619TIP3    H244053   5.289   6.009  10.908 -3.3789  0.6116  1.0409
 6620TIP3   OH244054   5.313   3.611  11.534  0.3340 -0.0560 -0.3918
 6620TIP3    H144055   5.255   3.543  11.568 -0.4042  0.7070 -0.0794
 6620TIP3    H244056   5.259   3.659  11.471 -0.7836  3.1092  2.6429
 6621TIP3   OH244057   5.921   2.921  10.074 -0.1579 -0.8383  0.7779
 6621TIP3    H144058   5.902   2.831  10.051 -0.1022 -0.7346  0.3258
 6621TIP3    H244059   6.004   2.940  10.032 -1.3887  0.2329 -1.3338
 6622TIP3   OH244060   3.389   7.191  10.437 -0.1193 -0.1395 -0.3297
 6622TIP3    H144061   3.315   7.150  10.392  0.7316 -0.6251 -1.3037
 6622TIP3    H244062   3.412   7.267  10.382 -1.2012  1.2780  1.0634
 6623TIP3   OH244063   2.158   5.058  12.163  0.1410 -0.1787 -0.3581
 6623TIP3    H144064   2.088   5.013  12.210 -0.3047  0.5223 -0.3391
 6623TIP3    H244065   2.132   5.052  12.071  0.1347 -0.0634 -0.3641
 6624TIP3   OH244066   7.241   5.281   9.541  0.1221 -0.4208  0.7107
 6624TIP3    H144067   7.156   5.312   9.511  0.6435 -1.5821 -2.3608
 6624TIP3    H244068   7.225   5.192   9.572  0.1277 -0.4925  0.5126
 6625TIP3   OH244069   6.727   0.208  11.754 -0.3967 -0.1393 -0.4311
 6625TIP3    H144070   6.637   0.221  11.724 -0.7130  0.1368  0.5933
 6625TIP3    H244071   6.777   0.193  11.674 -1.1157  1.0856 -1.1376
 6626TIP3   OH244072   0.562   6.844  12.620  0.2730  0.2617  0.1816
 6626TIP3    H144073   0.625   6.773  12.620  0.8735  0.7810 -0.4824
 6626TIP3    H244074   0.589   6.900  12.693 -0.4897 -0.4179  1.0144
 6627TIP3   OH244075   1.889   7.399  10.645 -0.1649 -0.1143 -0.3098
 6627TIP3    H144076   1.931   7.475  10.605 -0.4136  0.5715  0.6981
 6627TIP3    H244077   1.850   7.351  10.572  1.1712 -0.0162 -1.1053
 6628TIP3   OH244078   0.681   0.890  11.925  0.5196 -0.1016  0.0191
 6628TIP3    H144079   0.625   0.868  12.000 -0.4985  2.8958  0.2683
 6628TIP3    H244080   0.763   0.845  11.943 -0.0527 -0.3386  2.4070
 6629TIP3   OH244081   2.572   3.220  11.969  0.2181 -0.4880  0.3751
 6629TIP3    H144082   2.653   3.169  11.963  1.4756  1.1606  1.9984
 6629TIP3    H244083   2.597   3.307  11.937 -1.3762 -0.3536 -0.6037
 6630TIP3   OH244084   2.240   4.427  10.285  0.3194 -0.1740 -0.2024
 6630TIP3    H144085   2.186   4.428  10.206  1.0668 -1.3762 -0.7532
 6630TIP3    H244086   2.328   4.407  10.254  0.8277  0.3611  0.8398
 6631TIP3   OH244087   6.102   4.381  10.583  0.6243 -0.4503  0.0185
 6631TIP3    H144088   6.035   4.319  10.556 -1.0520  0.9792  0.6673
 6631TIP3    H244089   6.103   4.447  10.513  0.5414  0.1244  0.5507
 6632TIP3   OH244090   1.021   0.507  10.377  0.2189  0.1295 -0.7866
 6632TIP3    H144091   0.938   0.524  10.423  0.8443  1.2157 -0.0222
 6632TIP3    H244092   1.082   0.571  10.413  2.0278 -2.0917  0.3023
 6633TIP3   OH244093   4.059   7.112  11.316 -0.3493  0.2536 -0.4880
 6633TIP3    H144094   4.016   7.197  11.306  0.0512  0.7517  1.6423
 6633TIP3    H244095   4.124   7.126  11.384 -0.1505 -1.7246 -0.2265
 6634TIP3   OH244096   5.191   1.392  11.149 -0.7373  0.2176  0.0646
 6634TIP3    H144097   5.106   1.397  11.105 -0.8617 -1.2286  0.0983
 6634TIP3    H244098   5.178   1.328  11.219 -0.0855  1.2792  1.1921
 6635TIP3   OH244099   1.840   7.143  10.511  0.2740  0.3461  0.3861
 6635TIP3    H144100   1.794   7.064  10.541 -0.6729  0.6565 -0.2149
 6635TIP3    H244101   1.910   7.155  10.575  1.8489 -2.2203 -0.6710
 6636TIP3   OH244102   1.502   0.407  12.218  0.7633 -0.3509  0.2602
 6636TIP3    H144103   1.487   0.320  12.179 -0.1727  1.1183 -2.9517
 6636TIP3    H244104   1.589   0.432  12.186  0.1033  0.7616 -0.7292
 6637TIP3   OH244105   5.946   4.463  11.123 -0.4645 -0.5676 -0.1920
 6637TIP3    H144106   5.921   4.424  11.040  0.1084  0.0491 -0.6624
 6637TIP3    H244107   6.007   4.400  11.162 -0.7135 -0.8424 -0.2397
 6638TIP3   OH244108   0.853   3.543  11.943  0.6344  0.6504 -0.0106
 6638TIP3    H144109   0.846   3.543  11.848  0.2542  1.8458  0.0017
 6638TIP3    H244110   0.914   3.472  11.962  0.5205  0.2281 -1.1232
 6639TIP3   OH244111   4.976   0.349  11.910  0.7628  0.5211 -0.0010
 6639TIP3    H144112   5.050   0.288  11.915  1.1121  1.0223  1.3758
 6639TIP3    H244113   4.955   0.354  11.816  1.1994 -1.1293 -0.2249
 6640TIP3   OH244114   3.456   5.127  11.172 -0.6584  0.0831  0.1968
 6640TIP3    H144115   3.491   5.058  11.115  0.3221  1.3729 -0.8297
 6640TIP3    H244116   3.486   5.102  11.260  1.5597  0.2888 -0.4375
 6641TIP3   OH244117   7.208   5.561  10.006  0.5000 -0.4058 -0.1088
 6641TIP3    H144118   7.143   5.527   9.944 -0.1988 -1.3502  1.0937
 6641TIP3    H244119   7.227   5.649   9.975 -0.5678 -0.5033 -1.1097
 6642TIP3   OH244120   7.161   4.040  10.736 -0.5962  0.0262 -0.0264
 6642TIP3    H144121   7.165   3.989  10.817  1.1964 -0.2048 -0.2307
 6642TIP3    H244122   7.069   4.064  10.728 -1.3009 -2.1488  0.7189
 6643TIP3   OH244123   2.033   2.379  11.112  0.2832 -0.4766 -0.0357
 6643TIP3    H144124   2.099   2.435  11.151 -1.2222  1.9016 -0.6528
 6643TIP3    H244125   1.963   2.374  11.177 -0.5055  0.1727 -0.8003
 6644TIP3   OH244126   5.528   1.721  10.867 -0.1980 -0.7383 -0.3882
 6644TIP3    H144127   5.449   1.725  10.813  0.6276 -1.2537 -1.6849
 6644TIP3    H244128   5.599   1.744  10.807  0.6125 -0.0081  0.8237
 6645TIP3   OH244129   0.254   1.580  11.443  0.7023 -0.2254  0.0704
 6645TIP3    H144130   0.228   1.490  11.426 -2.8944  0.2235  2.1309
 6645TIP3    H244131   0.295   1.577  11.530  3.3380 -0.1772 -1.0823
 6646TIP3   OH244132   2.847   0.935  10.330 -0.2574 -0.0684 -0.1836
 6646TIP3    H144133   2.868   0.886  10.251 -0.7271 -0.1930 -0.2332
 6646TIP3    H244134   2.784   1.001  10.301 -0.2139  0.0681  0.0320
 6647TIP3   OH244135   3.838   2.904  10.831 -0.4685 -0.4576 -0.6778
 6647TIP3    H144136   3.801   2.901  10.743  0.7104  0.9097 -1.2812
 6647TIP3    H244137   3.809   2.988  10.866  0.6145 -0.1188 -0.5340
 6648TIP3   OH244138   2.804   5.648  11.372  0.0440 -0.4133  0.7409
 6648TIP3    H144139   2.787   5.648  11.278 -1.3012 -1.4816  0.9542
 6648TIP3    H244140   2.721   5.622  11.412 -0.4947  3.2740  2.4807
 6649TIP3   OH244141   0.918   4.553  10.462  0.2812 -0.4930  0.6537
 6649TIP3    H144142   0.914   4.648  10.447 -2.4288 -0.3116  2.0172
 6649TIP3    H244143   0.961   4.545  10.547 -1.7977 -0.2392  1.7960
 6650TIP3   OH244144   3.352   5.374  10.525 -0.2965 -0.2767 -0.2389
 6650TIP3    H144145   3.425   5.374  10.587 -2.4867 -0.7762  2.5188
 6650TIP3    H244146   3.394   5.372  10.439  2.9202 -1.6780  1.1960
 6651TIP3   OH244147   0.499   6.150  12.130  0.3544 -0.1384  0.2621
 6651TIP3    H144148   0.448   6.141  12.211 -0.1391  0.0756 -0.0251
 6651TIP3    H244149   0.575   6.093  12.144  0.4684  0.1877  1.0263
 6652TIP3   OH244150   1.267   5.419  12.155  0.4669 -0.1123  0.0721
 6652TIP3    H144151   1.229   5.336  12.184  1.4883 -1.1022 -1.2955
 6652TIP3    H244152   1.191   5.469  12.124 -0.3328  0.0429  2.0984
 6653TIP3   OH244153   6.840   1.590  11.755 -0.0628  0.1837  0.0031
 6653TIP3    H144154   6.849   1.510  11.807 -0.4297  0.8210  1.0723
 6653TIP3    H244155   6.799   1.653  11.814 -0.4079  0.9653 -1.0320
 6654TIP3   OH244156   0.655   4.502   9.998 -0.4200  0.1454  0.3118
 6654TIP3    H144157   0.665   4.435  10.066 -0.0748  1.4768  1.6305
 6654TIP3    H244158   0.591   4.465   9.938  1.6891 -2.5158 -0.5085
 6655TIP3   OH244159   2.702   1.341  11.509  0.2394  0.0290 -0.1166
 6655TIP3    H144160   2.781   1.394  11.503  0.5758 -0.4102  0.3428
 6655TIP3    H244161   2.635   1.400  11.542  0.5770  0.1968  0.2732
 6656TIP3   OH244162   1.361   0.895  11.820 -0.5061 -0.2432  0.6479
 6656TIP3    H144163   1.332   0.848  11.741  0.1740 -0.1691  0.3461
 6656TIP3    H244164   1.382   0.825  11.883 -1.6152 -0.2906  0.9792
 6657TIP3   OH244165   6.776   2.227  10.390  0.0540 -0.0692 -0.6168
 6657TIP3    H144166   6.800   2.296  10.451  1.0223 -1.2282  0.3608
 6657TIP3    H244167   6.724   2.166  10.442  0.5206 -0.8519 -1.0568
 6658TIP3   OH244168   4.730   5.344  11.528  0.3696 -1.1549 -0.1382
 6658TIP3    H144169   4.706   5.317  11.617 -1.1731 -0.1504 -0.2159
 6658TIP3    H244170   4.663   5.304  11.472  0.3349 -0.3796 -0.6583
 6659TIP3   OH244171   6.823   4.002   9.811  0.2418  0.3232  0.9467
 6659TIP3    H144172   6.785   3.962   9.733  1.0633 -0.8392  1.1055
 6659TIP3    H244173   6.912   3.966   9.815  0.7392  1.5510  1.5792
 6660TIP3   OH244174   6.109   1.477  10.687  0.0763  0.0788 -0.0525
 6660TIP3    H144175   6.179   1.468  10.622  0.4968  1.9333  0.0924
 6660TIP3    H244176   6.063   1.557  10.662  0.5714  1.1372  2.1909
 6661TIP3   OH244177   3.907   4.407  10.372 -0.3337  0.1586  0.3732
 6661TIP3    H144178   3.964   4.436  10.444  0.2147 -0.0298  0.0158
 6661TIP3    H244179   3.956   4.427  10.293 -0.9502  0.3877  0.0430
 6662TIP3   OH244180   2.354   7.048  11.433  0.2887 -0.5246  0.4688
 6662TIP3    H144181   2.371   7.013  11.346  2.0764 -0.8258  0.8801
 6662TIP3    H244182   2.303   6.980  11.478 -2.3099  0.4227 -0.8686
 6663TIP3   OH244183   3.648   1.509  11.583  0.2308  0.2005 -0.1842
 6663TIP3    H144184   3.723   1.567  11.599  1.0460 -0.2047 -2.2342
 6663TIP3    H244185   3.670   1.428  11.629 -0.3063  1.0040  1.5872
 6664TIP3   OH244186   3.984   0.680  11.914 -0.0776 -0.1161 -0.7038
 6664TIP3    H144187   3.965   0.638  11.998  0.0121 -1.5303 -1.3684
 6664TIP3    H244188   4.072   0.650  11.891 -0.3005 -0.1610 -1.5441
 6665TIP3   OH244189   0.532   0.195  11.194 -0.7396 -0.4237  0.7419
 6665TIP3    H144190   0.569   0.252  11.127  0.3465 -0.8270  0.9754
 6665TIP3    H244191   0.545   0.106  11.160 -1.1402 -0.5887  1.0127
 6666TIP3   OH244192   4.967   3.156   9.743 -0.3748  0.5905  0.1481
 6666TIP3    H144193   4.909   3.113   9.680 -0.3608 -0.5916  0.9165
 6666TIP3    H244194   4.948   3.112   9.826  0.6497  1.1337  0.6809
 6667TIP3   OH244195   6.465   6.977  12.116  0.8503  0.5609 -0.8662
 6667TIP3    H144196   6.425   6.955  12.032  1.7980 -3.3093 -0.5077
 6667TIP3    H244197   6.542   6.921  12.122 -0.3099 -1.0532  3.4037
 6668TIP3   OH244198   2.192   4.745  12.271  0.0986  0.0615 -0.7855
 6668TIP3    H144199   2.253   4.796  12.324 -0.1544  0.0998 -0.5278
 6668TIP3    H244200   2.106   4.781  12.292 -0.1667 -0.9685 -0.0267
 6669TIP3   OH244201   6.984   2.064  11.830 -0.5402  0.1205  0.0609
 6669TIP3    H144202   6.951   2.061  11.920 -1.1186  2.6111  0.0195
 6669TIP3    H244203   6.918   2.116  11.782  0.2697 -0.2699 -1.5571
 6670TIP3   OH244204   0.923   5.885  12.053 -0.1395 -0.1104  0.4695
 6670TIP3    H144205   0.982   5.810  12.056  1.0816  0.8555  1.7471
 6670TIP3    H244206   0.871   5.878  12.133 -0.8881 -0.2605 -0.0237
 6671TIP3   OH244207   6.568   6.861  10.257 -0.6790  0.8044  0.4282
 6671TIP3    H144208   6.587   6.773  10.290 -1.8064  0.6783  0.7709
 6671TIP3    H244209   6.590   6.857  10.164 -2.1630 -0.3010  0.0975
 6672TIP3   OH244210   0.606   6.040  10.376  0.1942 -0.2540 -0.1699
 6672TIP3    H144211   0.627   5.960  10.328 -1.3036 -1.1097  0.5297
 6672TIP3    H244212   0.672   6.103  10.347  4.5370 -2.9277  2.7221
 6673TIP3   OH244213   0.537   2.272  12.152 -0.1517  0.0240 -0.5036
 6673TIP3    H144214   0.482   2.349  12.166 -0.5860 -0.3620 -0.0718
 6673TIP3    H244215   0.619   2.308  12.118 -0.8483  0.5626 -1.6830
 6674TIP3   OH244216   2.458   0.751  12.560  0.6034  0.1124 -0.4403
 6674TIP3    H144217   2.547   0.767  12.591  1.1636 -0.3372 -1.7281
 6674TIP3    H244218   2.454   0.656  12.547 -0.1909  0.0844 -0.0513
 6675TIP3   OH244219   3.613   6.929  10.832 -0.2804 -0.6752  0.6847
 6675TIP3    H144220   3.529   6.975  10.821  1.2272  2.1039 -0.1539
 6675TIP3    H244221   3.645   6.957  10.917  0.9094  0.3157 -0.0627
 6676TIP3   OH244222   3.981   3.067  11.798 -0.3332 -0.2015  0.1057
 6676TIP3    H144223   3.918   3.015  11.748  0.6131 -0.4593 -0.8297
 6676TIP3    H244224   4.017   3.005  11.862  0.1543 -0.4769 -0.4317
 6677TIP3   OH244225   2.393   6.074  10.523 -0.1968  0.1773 -0.1131
 6677TIP3    H144226   2.458   6.064  10.452  1.6404 -1.3994  1.6530
 6677TIP3    H244227   2.357   5.986  10.534 -1.3396  0.6666  0.1501
 6678TIP3   OH244228   0.573   3.667  11.236 -0.3409 -0.1236  0.0345
 6678TIP3    H144229   0.518   3.593  11.209  1.2951 -1.3701 -0.0516
 6678TIP3    H244230   0.514   3.742  11.235 -1.4479 -0.8947 -2.6509
 6679TIP3   OH244231   2.636   3.504  10.597 -0.4853  0.4579 -0.3156
 6679TIP3    H144232   2.621   3.591  10.561  0.9687  1.1704  0.6672
 6679TIP3    H244233   2.549   3.469  10.613 -1.1768  0.6266 -3.1824
 6680TIP3   OH244234   3.371   1.574  11.269  0.4704  0.5007 -0.4453
 6680TIP3    H144235   3.367   1.481  11.245  0.1402  0.8618 -1.8989
 6680TIP3    H244236   3.295   1.613  11.225 -1.0533  1.0139  2.3816
 6681TIP3   OH244237   3.158   2.933  11.677  0.4170  0.2844 -0.1399
 6681TIP3    H144238   3.179   2.927  11.584 -0.4880  1.1358 -0.4068
 6681TIP3    H244239   3.068   2.902  11.684  0.5445  0.0286  0.4895
 6682TIP3   OH244240   6.967   1.448  10.703 -0.4810 -0.5059 -0.2720
 6682TIP3    H144241   6.951   1.375  10.763  1.0178  1.2611  2.5181
 6682TIP3    H244242   7.061   1.445  10.686 -0.5345  0.2875 -0.7538
 6683TIP3   OH244243   0.474   4.112  10.971 -0.4181 -0.3401  0.5022
 6683TIP3    H144244   0.476   4.154  10.885 -0.1799 -0.2871  0.5321
 6683TIP3    H244245   0.475   4.018  10.953  0.0652 -0.3275  0.4553
 6684TIP3   OH244246   4.239   6.747  12.100 -0.2533  0.2823  0.2352
 6684TIP3    H144247   4.252   6.683  12.030  0.1026  0.5654  0.0361
 6684TIP3    H244248   4.188   6.701  12.167  3.1973 -1.5268  1.8892
 6685TIP3   OH244249   7.297   3.142   9.848 -0.1970 -0.0515 -0.3243
 6685TIP3    H144250   7.202   3.131   9.857 -0.1426 -0.6977 -0.5012
 6685TIP3    H244251   7.311   3.155   9.754  0.0310 -1.4758 -0.5005
 6686TIP3   OH244252   0.324   5.269  11.801 -0.6734  0.1918  0.0489
 6686TIP3    H144253   0.401   5.223  11.768 -0.6366 -0.8428  1.4820
 6686TIP3    H244254   0.349   5.295  11.890 -1.6106  0.7613  0.1545
 6687TIP3   OH244255   3.128   0.636  11.154  0.0555 -0.6120 -0.4029
 6687TIP3    H144256   3.035   0.615  11.142  0.0277 -0.5601 -0.2763
 6687TIP3    H244257   3.170   0.603  11.075  0.0885 -1.6001  0.0196
 6688TIP3   OH244258   1.685   4.236  11.745 -0.2361  0.0516 -0.1853
 6688TIP3    H144259   1.624   4.195  11.805  0.0612 -0.5807 -0.3081
 6688TIP3    H244260   1.760   4.176  11.741  0.6959  1.1145  0.4774
 6689TIP3   OH244261   1.641   0.658  10.486 -0.0114  0.0671  0.4532
 6689TIP3    H144262   1.720   0.700  10.451 -0.6837  1.7204  0.8386
 6689TIP3    H244263   1.669   0.621  10.570 -0.0796  2.6187  1.7198
 6690TIP3   OH244264   6.963   3.086  11.578 -0.4252  0.3336 -0.8870
 6690TIP3    H144265   6.981   3.143  11.653  1.9323  0.0481 -1.1537
 6690TIP3    H244266   7.002   3.131  11.503  0.8096 -1.2111 -1.2272
 6691TIP3   OH244267   5.422   6.594  10.397  0.8168  0.0781  0.1967
 6691TIP3    H144268   5.378   6.642  10.327 -0.7366 -0.6736  0.6152
 6691TIP3    H244269   5.457   6.516  10.355  0.9980  0.2504  0.0257
 6692TIP3   OH244270   6.915   3.506  10.588  0.5631  0.0096 -0.0066
 6692TIP3    H144271   6.923   3.520  10.493  0.0368  1.7626  0.1788
 6692TIP3    H244272   6.821   3.505  10.604  0.6279 -1.3768  0.3706
 6693TIP3   OH244273   2.718   7.428  10.759 -0.5800  0.0388  0.0615
 6693TIP3    H144274   2.804   7.457  10.728  0.9349 -0.6496  3.1991
 6693TIP3    H244275   2.705   7.343  10.717  1.3683 -0.8627  1.0985
 6694TIP3   OH244276   2.363   0.663  10.951 -0.2376  0.4533  0.0449
 6694TIP3    H144277   2.420   0.611  10.894  1.2925 -0.8986  2.5954
 6694TIP3    H244278   2.285   0.610  10.962  0.3750 -0.3228  0.8401
 6695TIP3   OH244279   5.690   1.765  10.584  0.1513 -0.0953  0.2108
 6695TIP3    H144280   5.672   1.769  10.490 -0.0183 -1.6196  0.1439
 6695TIP3    H244281   5.662   1.849  10.618 -2.1761 -0.4215 -0.7231
 6696TIP3   OH244282   0.739   5.215  10.463 -0.0846 -0.4599  0.3665
 6696TIP3    H144283   0.678   5.278  10.500 -0.0559 -0.1383 -0.1172
 6696TIP3    H244284   0.684   5.154  10.413 -0.0601 -0.4896  0.3752
 6697TIP3   OH244285   6.243   4.460  11.650  0.2829 -0.3369  0.0423
 6697TIP3    H144286   6.282   4.532  11.698 -0.1118 -0.8460  1.1527
 6697TIP3    H244287   6.152   4.458  11.679 -0.1771 -0.1609 -1.3251
 6698TIP3   OH244288   6.110   6.035  11.472  0.2083  0.9124  0.0554
 6698TIP3    H144289   6.015   6.034  11.478  0.2227  0.6200  0.3054
 6698TIP3    H244290   6.138   5.965  11.531  0.6231  1.8030  0.9443
 6699TIP3   OH244291   2.576   6.575  12.125  1.1598  0.6911  0.5670
 6699TIP3    H144292   2.660   6.587  12.168  2.5524 -1.5905 -1.2790
 6699TIP3    H244293   2.546   6.489  12.155  0.9283  0.2064 -0.9428
 6700TIP3   OH244294   1.076   5.287  11.208  0.4119 -0.6651 -0.0469
 6700TIP3    H144295   1.010   5.275  11.139 -0.1059  0.2323  0.2713
 6700TIP3    H244296   1.151   5.235  11.179  0.9906  1.2719 -2.3355
 6701TIP3   OH244297   1.415   5.200  10.469  0.2972 -0.1594 -0.0363
 6701TIP3    H144298   1.336   5.237  10.430  0.5114  0.5646  0.1818
 6701TIP3    H244299   1.386   5.167  10.554  0.0035 -0.9578 -0.4363
 6702TIP3   OH244300   5.968   6.387  11.717 -0.4926  0.1306 -0.9076
 6702TIP3    H144301   6.032   6.320  11.741  1.4011  2.0805 -0.1307
 6702TIP3    H244302   5.980   6.400  11.623 -0.0574  0.1738 -0.8464
 6703TIP3   OH244303   4.084   2.682   9.540 -0.2097  0.1257  0.0473
 6703TIP3    H144304   4.128   2.614   9.489  1.7410  0.9898  0.5095
 6703TIP3    H244305   4.063   2.640   9.623 -1.3733 -0.6280 -0.5937
 6704TIP3   OH244306   3.362   7.364  10.189  0.3853  0.5242  0.2416
 6704TIP3    H144307   3.313   7.289  10.156  1.5243 -0.1726  0.0884
 6704TIP3    H244308   3.438   7.370  10.131  1.1312  0.8175  1.2273
 6705TIP3   OH244309   7.065   4.025  10.045 -0.3829 -0.0983  0.1039
 6705TIP3    H144310   7.111   4.043  10.127 -0.1082 -0.0353 -0.0642
 6705TIP3    H244311   7.043   4.112  10.010  0.5945 -0.0807 -0.5086
 6706TIP3   OH244312   2.178   4.932  12.628 -0.0505  0.1299  0.5913
 6706TIP3    H144313   2.138   5.019  12.617  0.6042  0.6745  2.1528
 6706TIP3    H244314   2.250   4.931  12.565  0.0672  0.8135  0.7001
 6707TIP3   OH244315   3.470   6.208  10.767 -0.5434  0.1789  0.0632
 6707TIP3    H144316   3.495   6.246  10.851  1.2879 -1.2841  0.2600
 6707TIP3    H244317   3.407   6.139  10.789  0.5324 -0.7391  0.3688
 6708TIP3   OH244318   6.061   6.645  11.561  0.1624  0.2485  0.2021
 6708TIP3    H144319   6.029   6.585  11.494 -0.7858  0.8113  0.1327
 6708TIP3    H244320   6.120   6.591  11.615 -1.6370 -1.1143  0.9224
 6709TIP3   OH244321   5.169   5.333  10.935 -0.8463 -0.1140 -0.1167
 6709TIP3    H144322   5.103   5.392  10.969 -1.2974  0.2948 -1.6414
 6709TIP3    H244323   5.199   5.374  10.853  0.6352 -0.7415  0.0716
 6710TIP3   OH244324   2.100   6.483  11.972  0.1474  0.4915 -0.5583
 6710TIP3    H144325   2.192   6.496  11.998 -0.2311 -0.1855  1.2500
 6710TIP3    H244326   2.097   6.395  11.935  0.4020  0.9064 -1.6107
 6711TIP3   OH244327   4.924   6.267  10.876  0.1288 -0.0975  0.3105
 6711TIP3    H144328   5.001   6.264  10.934 -0.0326 -0.1889  0.5180
 6711TIP3    H244329   4.960   6.250  10.789  0.3106 -0.3817  0.4397
 6712TIP3   OH244330   1.796   1.360   9.684  0.0507  0.3162 -0.1804
 6712TIP3    H144331   1.737   1.362   9.608  0.8550 -1.3265 -0.9053
 6712TIP3    H244332   1.780   1.274   9.724  2.2085 -0.3621 -0.6502
 6713TIP3   OH244333   2.302   5.074  11.021 -0.2106 -0.7002  0.4955
 6713TIP3    H144334   2.369   5.005  11.016 -0.7372 -1.1692 -0.0909
 6713TIP3    H244335   2.325   5.122  11.101  1.3746 -0.2791 -0.1557
 6714TIP3   OH244336   5.253   0.112  10.348  0.0590  0.0307  0.0047
 6714TIP3    H144337   5.260   0.205  10.366  1.1604 -0.1220  0.3906
 6714TIP3    H244338   5.159   0.097  10.337 -0.2235  0.9767  1.0074
 6715TIP3   OH244339   1.629   4.231   9.941  0.2900  0.2516 -0.2523
 6715TIP3    H144340   1.595   4.268  10.023 -0.2469 -0.3455 -0.1992
 6715TIP3    H244341   1.552   4.207   9.891  0.6084  1.2877 -1.2681
 6716TIP3   OH244342   3.059   0.225   9.922 -0.6475 -0.1656  0.3215
 6716TIP3    H144343   2.980   0.175   9.905  0.9009 -1.8142 -3.0829
 6716TIP3    H244344   3.091   0.193  10.007 -2.4341 -1.0828  0.6835
 6717TIP3   OH244345   1.089   3.669  11.663  0.3943 -0.0631 -0.2175
 6717TIP3    H144346   0.998   3.661  11.690  0.5155 -0.8738 -0.0101
 6717TIP3    H244347   1.103   3.596  11.603  1.1164 -0.4497  0.3884
 6718TIP3   OH244348   2.143   4.488  11.020  0.4175 -0.0733  0.3366
 6718TIP3    H144349   2.133   4.550  10.948  0.6659 -0.3697  0.0474
 6718TIP3    H244350   2.172   4.407  10.979  1.5536  0.0452  0.8698
 6719TIP3   OH244351   0.743   3.862  10.050 -0.2552  0.0890  0.3900
 6719TIP3    H144352   0.653   3.886  10.032 -0.0789 -0.7545 -1.9493
 6719TIP3    H244353   0.794   3.906   9.982  1.0617  0.1784  1.3870
 6720TIP3   OH244354   4.238   6.633  11.324 -0.3134  0.1316 -0.3399
 6720TIP3    H144355   4.246   6.555  11.379 -2.0849 -0.9000 -1.4502
 6720TIP3    H244356   4.321   6.636  11.275 -0.2120 -1.0376 -0.2713
 6721TIP3   OH244357   2.292   3.432  12.144 -0.1347 -0.2534 -0.4137
 6721TIP3    H144358   2.353   3.501  12.171  0.0618 -0.2986 -0.7392
 6721TIP3    H244359   2.332   3.351  12.174  0.2563 -0.3342 -1.1448
 6722TIP3   OH244360   3.583   4.277   9.929  0.3298 -0.3877  0.0653
 6722TIP3    H144361   3.519   4.243   9.866  0.9764  0.5974 -1.1731
 6722TIP3    H244362   3.563   4.231  10.010 -1.5364 -0.5750 -0.4454
 6723TIP3   OH244363   4.904   4.612  11.483  0.1608  0.4301  0.2719
 6723TIP3    H144364   4.811   4.629  11.467  0.3872  0.5473 -1.0239
 6723TIP3    H244365   4.950   4.672  11.424  1.0179 -1.4172 -1.0563
 6724TIP3   OH244366   6.601   1.447  10.753  0.0371  0.1396  0.0619
 6724TIP3    H144367   6.654   1.457  10.674  0.5215  1.5856  0.5348
 6724TIP3    H244368   6.640   1.372  10.798  0.2866 -0.1726 -0.6600
 6725TIP3   OH244369   1.743   5.190  10.931  0.2518  0.7010  0.5651
 6725TIP3    H144370   1.824   5.217  10.974  0.3252  0.2026  0.7389
 6725TIP3    H244371   1.767   5.115  10.877 -0.0410  0.7093  0.4194
 6726TIP3   OH244372   3.190   3.609  10.230 -0.2001 -0.2874 -0.2372
 6726TIP3    H144373   3.151   3.691  10.198  1.1261 -0.1561 -1.6525
 6726TIP3    H244374   3.274   3.636  10.267 -0.1996 -0.8989  0.2184
 6727TIP3   OH244375   5.228   0.717   9.723 -0.1086  0.1363  0.1597
 6727TIP3    H144376   5.162   0.704   9.655  0.4424 -0.9733 -0.1825
 6727TIP3    H244377   5.292   0.647   9.709 -0.0784 -0.2515  1.9454
 6728TIP3   OH244378   0.322   5.228  11.181  0.0079 -0.3031  0.5472
 6728TIP3    H144379   0.329   5.292  11.111 -0.3674 -3.6034 -2.8516
 6728TIP3    H244380   0.233   5.237  11.214 -0.2150  0.5167 -0.2566
 6729TIP3   OH244381   1.093   3.861  10.148 -0.2431  0.0099 -0.4845
 6729TIP3    H144382   1.081   3.932  10.086  0.7363 -0.3106 -1.0622
 6729TIP3    H244383   1.128   3.789  10.096 -1.5700 -1.0301  0.0217
 6730TIP3   OH244384   4.100   2.025  11.286  0.0036  0.2549  0.1726
 6730TIP3    H144385   4.118   2.102  11.232 -2.3071  0.4318 -0.4809
 6730TIP3    H244386   4.175   1.968  11.272  0.0005  0.7515 -2.4538
 6731TIP3   OH244387   4.641   7.101  11.739  0.4700  0.5615 -0.5920
 6731TIP3    H144388   4.572   7.051  11.696  0.2209  1.2232 -0.9686
 6731TIP3    H244389   4.699   7.128  11.668  0.8263  0.4598 -0.3415
 6732TIP3   OH244390   2.023   3.130  11.345  0.0778 -0.1736 -0.9070
 6732TIP3    H144391   1.950   3.123  11.283  0.4255 -0.6469 -1.2744
 6732TIP3    H244392   1.981   3.136  11.431 -0.3922 -2.2493 -0.9333
 6733TIP3   OH244393   2.409   5.242  11.612 -0.3499  0.4596 -0.5368
 6733TIP3    H144394   2.426   5.296  11.689  0.2553 -0.7754  0.2198
 6733TIP3    H244395   2.495   5.205  11.589 -0.9419 -1.1140 -0.3167
 6734TIP3   OH244396   4.529   6.638  11.183 -0.1668  0.2141 -0.3566
 6734TIP3    H144397   4.617   6.638  11.222 -0.7755  0.8018  1.0807
 6734TIP3    H244398   4.535   6.698  11.109  0.9264 -0.6355 -0.9885
 6735TIP3   OH244399   5.112   5.215  11.709  0.1369 -0.0559 -0.2473
 6735TIP3    H144400   5.130   5.211  11.615 -2.1753  0.7519 -0.7861
 6735TIP3    H244401   5.199   5.214  11.749  1.2124 -0.0331 -2.3933
 6736TIP3   OH244402   0.989   3.324  11.677  0.1289 -0.6812  0.1585
 6736TIP3    H144403   0.898   3.353  11.671  0.6992  0.9939 -0.8839
 6736TIP3    H244404   1.014   3.306  11.586  0.8708 -1.0426  0.4318
 6737TIP3   OH244405   7.146   6.766  11.659 -0.0593 -0.0135  0.3145
 6737TIP3    H144406   7.231   6.722  11.663 -0.3487 -0.8440 -1.6456
 6737TIP3    H244407   7.127   6.789  11.750  1.7048 -0.8617  0.9464
 6738TIP3   OH244408   2.233   6.188  11.352 -0.0997 -0.2271 -0.2686
 6738TIP3    H144409   2.238   6.147  11.265  2.0364 -1.1996  0.2645
 6738TIP3    H244410   2.187   6.125  11.406 -0.0729 -0.3032 -0.3341
 6739TIP3   OH244411   4.361   4.083  11.653 -0.1427 -0.2144 -0.6115
 6739TIP3    H144412   4.333   4.004  11.605 -1.7609  1.1118 -1.9737
 6739TIP3    H244413   4.391   4.050  11.738 -4.0399 -2.0531  0.2608
 6740TIP3   OH244414   3.225   4.863  10.955  0.2024  0.2274  0.5684
 6740TIP3    H144415   3.280   4.941  10.943  0.2247  0.3069  1.1482
 6740TIP3    H244416   3.138   4.898  10.975 -0.2106  0.1080 -0.8812
 6741TIP3   OH244417   3.057   3.801  12.435 -0.5403  0.3506  0.3328
 6741TIP3    H144418   2.984   3.755  12.393 -1.1627  0.1641  1.5397
 6741TIP3    H244419   3.090   3.739  12.500  0.3162  0.6564  0.1992
 6742TIP3   OH244420   7.285   6.901  12.506 -0.3792  0.1831 -0.0372
 6742TIP3    H144421   7.373   6.921  12.539  0.0713  1.0766 -1.7023
 6742TIP3    H244422   7.259   6.979  12.457 -2.6126  0.4173  1.3684
 6743TIP3   OH244423   4.059   5.909  10.704  0.1797  0.3390 -0.4184
 6743TIP3    H144424   3.977   5.898  10.751  1.0198  0.6770  1.1914
 6743TIP3    H244425   4.112   5.965  10.760  1.1570  0.9466 -1.8881
 6744TIP3   OH244426   0.742   4.357  10.225  0.2083  0.3137  0.2379
 6744TIP3    H144427   0.771   4.272  10.192  1.4674  0.1079  1.7335
 6744TIP3    H244428   0.786   4.366  10.310  0.3090  2.5697  0.0165
 6745TIP3   OH244429   7.150   3.168  10.380  0.1024 -0.3917  0.3591
 6745TIP3    H144430   7.144   3.221  10.301  0.5914 -0.3111  0.3717
 6745TIP3    H244431   7.060   3.162  10.413  0.0530  0.4980  0.4061
 6746TIP3   OH244432   3.088   5.442  10.555  0.5549  0.3757  0.7308
 6746TIP3    H144433   3.175   5.419  10.523  0.0586 -0.9505  0.2579
 6746TIP3    H244434   3.043   5.478  10.479  0.0572 -0.8309  0.4228
 6747TIP3   OH244435   1.502   5.377  12.866  0.3054 -0.3586  0.4352
 6747TIP3    H144436   1.587   5.404  12.831  0.8383 -2.2954  0.0915
 6747TIP3    H244437   1.521   5.299  12.918 -1.0182  0.2795  1.9459
 6748TIP3   OH244438   6.128   0.723  11.551  0.1429 -0.3912  0.1407
 6748TIP3    H144439   6.098   0.671  11.626  0.6635  1.0974  1.4293
 6748TIP3    H244440   6.070   0.800  11.551  1.2047  0.4257  0.0623
 6749TIP3   OH244441   2.286   0.270  10.443 -0.3922 -0.0719 -0.3609
 6749TIP3    H144442   2.334   0.350  10.421  1.9107 -0.5620  2.3330
 6749TIP3    H244443   2.330   0.201  10.392  1.0475 -0.3104  1.1065
 6750TIP3   OH244444   1.668   4.055  10.230  0.2076  0.0896  0.2318
 6750TIP3    H144445   1.633   4.134  10.272 -0.0701 -0.9518  2.0603
 6750TIP3    H244446   1.655   4.070  10.137  0.7269  2.4625  0.4803
 6751TIP3   OH244447   1.225   1.639  12.205 -0.0717 -0.0771 -0.2276
 6751TIP3    H144448   1.271   1.557  12.186 -1.4179 -0.8999 -0.0730
 6751TIP3    H244449   1.159   1.615  12.269 -2.4678  0.4555 -2.3319
 6752TIP3   OH244450   6.403   1.205  12.686 -0.5020  0.1955 -0.5106
 6752TIP3    H144451   6.490   1.172  12.664 -0.6065 -0.0622 -0.5325
 6752TIP3    H244452   6.346   1.128  12.684 -0.8124  0.4298 -0.9202
 6753TIP3   OH244453   3.249   6.505  11.717  0.0578 -0.0570 -0.0824
 6753TIP3    H144454   3.191   6.574  11.684  0.0472  0.3119  0.6887
 6753TIP3    H244455   3.189   6.436  11.749 -0.0202  0.7177  1.5695
 6754TIP3   OH244456   3.366   1.220  11.210 -0.2156 -0.0660 -0.2035
 6754TIP3    H144457   3.389   1.127  11.213  0.8561  0.1772 -0.5744
 6754TIP3    H244458   3.400   1.255  11.292  1.0619  0.3632 -0.9040
 6755TIP3   OH244459   6.139   4.255  11.137 -0.7504  0.2291  0.5133
 6755TIP3    H144460   6.121   4.164  11.160  1.5635 -0.2796  0.5980
 6755TIP3    H244461   6.184   4.291  11.213 -1.2102  1.3245  0.2927
 6756TIP3   OH244462   0.550   7.260  11.534  0.1722  0.0983 -0.1629
 6756TIP3    H144463   0.624   7.217  11.490  1.2356  0.2994  1.3282
 6756TIP3    H244464   0.588   7.294  11.615 -1.8054 -0.6470  1.1261
 6757TIP3   OH244465   3.693   7.356  10.805 -0.3054 -0.1755  0.7914
 6757TIP3    H144466   3.685   7.440  10.850 -1.9880 -0.0946  0.3845
 6757TIP3    H244467   3.688   7.291  10.875 -2.8257 -0.0463  0.8203
 6758TIP3   OH244468   1.155   4.882  10.710  0.0829  0.4742 -0.2641
 6758TIP3    H144469   1.173   4.877  10.804 -0.8284 -2.4159 -0.1592
 6758TIP3    H244470   1.091   4.953  10.701  1.3049  1.7944  1.0516
 6759TIP3   OH244471   6.337   1.427  12.167  0.1674  0.2254 -0.4241
 6759TIP3    H144472   6.252   1.472  12.163 -0.5344 -1.0693 -1.0874
 6759TIP3    H244473   6.334   1.378  12.249 -0.7447 -1.6088 -1.4740
 6760TIP3   OH244474   3.322   0.333  11.777  0.5799 -0.5628 -0.3258
 6760TIP3    H144475   3.255   0.333  11.846  0.5227  0.7684 -0.3679
 6760TIP3    H244476   3.289   0.272  11.711 -0.0718 -0.7230  0.1394
 6761TIP3   OH244477   5.501   4.139   9.970  0.1848 -0.0715 -0.5636
 6761TIP3    H144478   5.437   4.134   9.899 -0.6338  0.4974  0.1002
 6761TIP3    H244479   5.577   4.090   9.939  0.4930  1.5145 -2.4793
 6762TIP3   OH244480   2.107   6.356  11.595  0.4106  0.3353 -0.9554
 6762TIP3    H144481   2.200   6.330  11.595  0.2747 -0.2152 -2.1074
 6762TIP3    H244482   2.065   6.292  11.652  0.8653  1.1403  0.3233
 6763TIP3   OH244483   6.603   3.050  10.793 -0.0352  0.7954  0.1270
 6763TIP3    H144484   6.589   3.142  10.814 -1.7488  0.3660  1.1295
 6763TIP3    H244485   6.593   3.045  10.698  0.0607  1.6430  0.0657
 6764TIP3   OH244486   6.177   2.087  10.015 -0.2542  0.0704 -0.1941
 6764TIP3    H144487   6.264   2.120   9.997  0.0332 -1.2486 -1.3785
 6764TIP3    H244488   6.129   2.099   9.933 -0.6999 -0.6837 -0.0529
 6765TIP3   OH244489   0.981   5.843   9.395  0.3062  0.2023 -0.2224
 6765TIP3    H144490   1.051   5.796   9.350  0.2022 -0.5622  0.3944
 6765TIP3    H244491   1.012   5.933   9.400  0.0997  0.4553 -2.2700
 6766TIP3   OH244492   6.963   1.864  11.017 -0.2836  0.8369  0.6462
 6766TIP3    H144493   6.945   1.807  10.942  1.1778  0.1524  0.7900
 6766TIP3    H244494   7.006   1.940  10.980  2.6758 -0.5630  0.9616
 6767TIP3   OH244495   3.791   4.616  10.639 -0.4905  0.4237 -0.2186
 6767TIP3    H144496   3.811   4.634  10.547  2.4885  2.8598  0.7402
 6767TIP3    H244497   3.863   4.560  10.668  1.1149  3.1556  1.5370
 6768TIP3   OH244498   4.974   1.140  10.282 -0.4241  0.0518  0.4802
 6768TIP3    H144499   4.905   1.118  10.220 -1.0286  1.9645  0.4287
 6768TIP3    H244500   5.030   1.202  10.235  0.4816 -0.2991  1.0558
 6769TIP3   OH244501   6.389   6.193  12.744  0.2616  0.1975  0.3539
 6769TIP3    H144502   6.310   6.186  12.691  0.6339  0.8210 -0.3141
 6769TIP3    H244503   6.460   6.167  12.684  0.5826 -0.1456  0.8768
 6770TIP3   OH244504   0.030   2.168   9.681 -0.1147 -0.2145  0.0176
 6770TIP3    H144505  -0.015   2.231   9.737 -1.0914 -0.6696 -0.2442
 6770TIP3    H244506  -0.038   2.109   9.650  0.7672 -1.3887  0.2182
 6771TIP3   OH244507   4.978   4.534   9.778  0.3196  0.0994  0.1848
 6771TIP3    H144508   4.890   4.571   9.772  0.9106  1.4392 -0.9659
 6771TIP3    H244509   4.975   4.477   9.855 -1.4090  0.4715  0.4413
 6772TIP3   OH244510   3.873   2.029   9.825 -0.1106 -0.0525 -0.0335
 6772TIP3    H144511   3.956   2.002   9.787  0.1324  0.1970  0.3151
 6772TIP3    H244512   3.861   2.119   9.796 -0.1039  0.0154  0.1673
 6773TIP3   OH244513   3.881   1.944  10.125 -0.0861 -0.0788  0.2397
 6773TIP3    H144514   3.964   1.989  10.142  0.8003 -1.0760 -1.1522
 6773TIP3    H244515   3.868   1.952  10.031 -0.8463 -1.1251  0.2341
 6774TIP3   OH244516   2.168   4.224  11.871  0.2666 -0.4603 -0.3562
 6774TIP3    H144517   2.095   4.209  11.932  0.4496 -2.1429 -0.4927
 6774TIP3    H244518   2.206   4.307  11.899 -1.9095  0.6637 -0.5057
 6775TIP3   OH244519   4.711   0.351  11.798  0.2120  0.0436  0.4264
 6775TIP3    H144520   4.722   0.320  11.708 -1.6546  1.1010 -0.2326
 6775TIP3    H244521   4.637   0.301  11.832 -0.1990  0.8450  0.7551
 6776TIP3   OH244522   3.692   7.347   9.636  0.8426  0.6231 -0.0644
 6776TIP3    H144523   3.757   7.389   9.579 -0.6916  1.4552 -1.2811
 6776TIP3    H244524   3.707   7.386   9.722  2.0504  0.6770 -0.2823
 6777TIP3   OH244525   4.929   1.830   9.651 -0.5141 -0.8301  0.1778
 6777TIP3    H144526   4.968   1.852   9.735  2.6635 -1.8078 -0.9089
 6777TIP3    H244527   4.972   1.749   9.624 -0.3051  0.2047 -3.0273
 6778TIP3   OH244528   5.788   4.176  10.989 -0.5079 -0.2117 -0.0290
 6778TIP3    H144529   5.844   4.183  10.912 -0.7233  2.4319 -0.0060
 6778TIP3    H244530   5.849   4.161  11.062  0.0617  1.1845 -0.2002
 6779TIP3   OH244531   5.343   0.375  12.153  0.4212 -0.1066 -0.2085
 6779TIP3    H144532   5.305   0.404  12.236  1.3922 -3.1569  1.4722
 6779TIP3    H244533   5.269   0.342  12.103 -0.4116  3.1721 -1.3684
 6780TIP3   OH244534   0.612   2.523  10.192 -0.2963  0.2555 -0.3135
 6780TIP3    H144535   0.580   2.547  10.279  2.9068 -1.0911  1.3809
 6780TIP3    H244536   0.680   2.587  10.172 -0.7859  0.3678 -1.7412
 6781TIP3   OH244537   1.274   3.733  10.364 -0.2505  0.2177  0.0637
 6781TIP3    H144538   1.209   3.756  10.297  0.5931  0.4766 -0.6792
 6781TIP3    H244539   1.330   3.668  10.322 -0.7276 -0.9001  1.1053
 6782TIP3   OH244540   7.125   6.852  11.037  0.0269 -0.1107  0.7756
 6782TIP3    H144541   7.040   6.810  11.028 -0.7896  1.6743 -0.4121
 6782TIP3    H244542   7.108   6.929  11.091  1.0430 -0.1419  1.1536
 6783TIP3   OH244543   2.907   1.194  10.914  0.8959  0.4719  0.0339
 6783TIP3    H144544   2.835   1.207  10.852  0.1649  0.3312  0.8384
 6783TIP3    H244545   2.965   1.131  10.871  1.3550  1.7176 -1.2941
 6784TIP3   OH244546   7.439   6.253  11.762 -0.4155  0.1217 -0.0993
 6784TIP3    H144547   7.446   6.343  11.793 -0.4549 -0.6253  2.2704
 6784TIP3    H244548   7.525   6.215  11.779 -0.8422 -0.6730  0.3582
 6785TIP3   OH244549   5.276   5.828   9.689  0.4157  0.8052  0.0052
 6785TIP3    H144550   5.262   5.770   9.764 -0.5145 -0.6826 -1.2723
 6785TIP3    H244551   5.190   5.861   9.667  0.0105 -1.4873 -2.4536
 6786TIP3   OH244552   1.094   1.838  12.056 -0.2211 -0.1834 -0.3375
 6786TIP3    H144553   1.133   1.921  12.083 -2.0416 -0.0801  2.3320
 6786TIP3    H244554   1.161   1.772  12.076  0.5513  0.4377 -0.8133
 6787TIP3   OH244555   6.677   5.442  10.653  0.1593  0.1628 -0.1872
 6787TIP3    H144556   6.585   5.417  10.657  0.3640 -0.9017 -1.3520
 6787TIP3    H244557   6.723   5.374  10.702  0.5070 -0.6340 -1.5386
 6788TIP3   OH244558   2.252   7.260  11.581  0.4429 -0.0550  0.1098
 6788TIP3    H144559   2.175   7.205  11.597  0.8085 -0.8473 -0.7617
 6788TIP3    H244560   2.323   7.198  11.564  0.9248  0.6818 -0.6487
 6789TIP3   OH244561   5.208   5.526  11.303 -0.4331 -0.1110  0.0033
 6789TIP3    H144562   5.204   5.580  11.382 -0.8097 -0.9555  0.5828
 6789TIP3    H244563   5.123   5.538  11.261 -0.0572  0.7047 -0.5258
 6790TIP3   OH244564   6.226   0.045  10.952 -0.4821 -0.7903  0.2481
 6790TIP3    H144565   6.292   0.092  11.004  0.0600  0.1346 -1.2060
 6790TIP3    H244566   6.213  -0.037  10.999 -0.4082  0.1975  2.1159
 6791TIP3   OH244567   6.877   1.067  11.052  0.0849  0.3263  0.4063
 6791TIP3    H144568   6.831   1.008  10.993 -2.4257  1.1597  1.3711
 6791TIP3    H244569   6.930   1.010  11.108  0.2454 -0.6924 -0.7461
 6792TIP3   OH244570   3.477   3.216  11.683  0.8159  0.6874 -0.6029
 6792TIP3    H144571   3.474   3.120  11.681  0.2139  0.6224  1.0943
 6792TIP3    H244572   3.484   3.242  11.591 -0.0406 -0.9585 -1.1869
 6793TIP3   OH244573   2.438   3.049  10.817 -0.0256 -0.0469  0.7764
 6793TIP3    H144574   2.533   3.043  10.832  0.3264  0.0686 -1.2132
 6793TIP3    H244575   2.429   3.054  10.722 -2.0955 -0.9815  0.8807
 6794TIP3   OH244576   6.805   6.882   9.671 -0.4517 -0.1163  0.0487
 6794TIP3    H144577   6.769   6.795   9.690  0.8865 -0.3800  1.6830
 6794TIP3    H244578   6.899   6.872   9.687 -0.3242  1.7162  0.6008
 6795TIP3   OH244579   5.060   3.017  10.616 -0.3260 -0.5225 -0.2878
 6795TIP3    H144580   5.061   2.937  10.669 -2.5932 -0.2393  0.2807
 6795TIP3    H244581   4.971   3.022  10.582  0.3619  0.6782 -2.0400
 6796TIP3   OH244582   1.595   3.047   9.969  0.1962 -0.4402  0.0760
 6796TIP3    H144583   1.556   2.964   9.997  0.5036 -0.5028  0.3337
 6796TIP3    H244584   1.687   3.025   9.953 -0.1704 -0.6488 -2.0526
 6797TIP3   OH244585   6.144   2.572  10.955  0.0944  0.2600  0.1834
 6797TIP3    H144586   6.164   2.621  10.875  1.5605 -0.6302 -0.0158
 6797TIP3    H244587   6.058   2.533  10.938  1.1175 -1.3140 -1.6860
 6798TIP3   OH244588   4.813   4.573  10.896 -0.5517  0.4098  0.6439
 6798TIP3    H144589   4.814   4.624  10.978 -0.6014 -0.5311  1.2372
 6798TIP3    H244590   4.832   4.638  10.828  1.0148  0.9529  1.5518
 6799TIP3   OH244591   3.324   0.286   9.971  0.5212  0.1069  0.2755
 6799TIP3    H144592   3.243   0.326   9.937  1.5186  0.3808 -1.9592
 6799TIP3    H244593   3.389   0.303   9.903  1.5440 -3.4496  0.1603
 6800TIP3   OH244594   1.221   6.336  10.697 -0.5960 -0.3663 -0.0317
 6800TIP3    H144595   1.292   6.285  10.736 -0.7959 -0.0652  0.7452
 6800TIP3    H244596   1.146   6.276  10.696 -0.3101 -0.7265 -0.9714
 6801TIP3   OH244597   1.474   5.020   9.384  0.5917  0.1642 -0.0003
 6801TIP3    H144598   1.462   5.015   9.289  1.2335 -1.1974 -0.0296
 6801TIP3    H244599   1.561   5.060   9.394 -0.0690  1.6584  0.0662
 6802TIP3   OH244600   3.476   6.561  10.812  0.1918 -0.8432  0.6675
 6802TIP3    H144601   3.432   6.484  10.846  1.3966 -2.2584 -0.7975
 6802TIP3    H244602   3.559   6.565  10.859  1.1926 -1.9198 -0.8974
 6803TIP3   OH244603   6.498   0.859  11.463  0.3533  0.2245  0.1693
 6803TIP3    H144604   6.437   0.858  11.389  0.8151 -0.5450 -0.2015
 6803TIP3    H244605   6.442   0.849  11.540 -0.0858  0.5703 -0.0987
 6804TIP3   OH244606   2.334   6.078  11.077 -0.6382 -0.1020  0.1040
 6804TIP3    H144607   2.268   6.141  11.047  0.1685  0.5848 -0.2449
 6804TIP3    H244608   2.325   6.004  11.016 -1.0974 -0.0285  0.0762
 6805TIP3   OH244609   7.408   6.487   9.674  0.0482  0.0742 -0.6243
 6805TIP3    H144610   7.412   6.471   9.579  0.6090  0.3713 -0.6503
 6805TIP3    H244611   7.434   6.404   9.714  3.3534  0.9344 -0.7589
 6806TIP3   OH244612   2.487   6.883  10.935 -0.5350  0.1180  0.0925
 6806TIP3    H144613   2.567   6.840  10.966 -0.3069  0.8987  0.6186
 6806TIP3    H244614   2.519   6.955  10.881 -0.9073 -0.0814 -0.4008
 6807TIP3   OH244615   2.624   0.057  12.200  0.2658 -0.0995 -0.0976
 6807TIP3    H144616   2.698   0.029  12.253 -0.4767 -1.9398  0.0807
 6807TIP3    H244617   2.602   0.144  12.231  1.3655 -0.1738  0.9315
 6808TIP3   OH244618   6.379   6.791  10.613 -0.2383 -1.0647  0.2301
 6808TIP3    H144619   6.316   6.764  10.546  0.9732  1.4958 -2.1498
 6808TIP3    H244620   6.331   6.854  10.667 -0.2698 -0.4398 -0.4993
 6809TIP3   OH244621   1.469   2.806   9.670 -0.2582 -0.2019 -0.2881
 6809TIP3    H144622   1.492   2.722   9.710 -1.3566  1.4167  4.2969
 6809TIP3    H244623   1.550   2.838   9.632  1.3048 -1.3560  1.9071
 6810TIP3   OH244624   0.609   5.967  11.098 -0.0686 -0.2636 -0.1730
 6810TIP3    H144625   0.518   5.983  11.123 -0.2719 -1.5967 -0.0066
 6810TIP3    H244626   0.617   6.006  11.010 -0.5728  0.5287  0.1231
 6811TIP3   OH244627   2.050   6.778  11.036  0.9449  0.0811  0.1745
 6811TIP3    H144628   2.111   6.770  10.963 -0.8583 -0.2943 -1.3982
 6811TIP3    H244629   1.991   6.703  11.026 -1.2537  1.6937  0.0752
 6812TIP3   OH244630   2.764   5.613  10.196  0.2413  0.0793  0.0500
 6812TIP3    H144631   2.735   5.561  10.270 -0.8216 -2.2396 -1.8556
 6812TIP3    H244632   2.835   5.666  10.230  0.3918 -1.5524  2.5038
 6813TIP3   OH244633   2.406   0.490  10.321  0.2993  0.8919 -0.7803
 6813TIP3    H144634   2.489   0.528  10.351  0.9800 -0.3384 -1.0189
 6813TIP3    H244635   2.372   0.553  10.258  1.6634  0.8934 -1.5708
 6814TIP3   OH244636   4.951   6.790   9.821  0.2481  0.4957  0.1460
 6814TIP3    H144637   4.879   6.797   9.883 -0.0621  1.6936 -0.3195
 6814TIP3    H244638   4.969   6.880   9.794  1.1737  0.1161 -0.5954
 6815TIP3   OH244639   4.762   5.163   9.787 -0.2466 -0.2532 -0.5258
 6815TIP3    H144640   4.691   5.100   9.775 -0.7667  0.3837 -0.8462
 6815TIP3    H244641   4.819   5.149   9.711 -0.0391 -0.7495 -0.2797
 6816TIP3   OH244642   4.700   6.802  11.415 -0.4460  0.6058 -0.7033
 6816TIP3    H144643   4.753   6.761  11.347  1.0241  1.4994 -0.1502
 6816TIP3    H244644   4.654   6.730  11.457  0.1383 -0.1795 -1.3833
 6817TIP3   OH244645   2.636   6.478   9.842 -0.2122  0.5316 -0.2297
 6817TIP3    H144646   2.640   6.422   9.765 -0.0420  0.7082 -0.3514
 6817TIP3    H244647   2.573   6.436   9.900 -0.2184  0.3117 -0.3970
 6818TIP3   OH244648   2.509   7.401  10.055  0.1056  0.0117 -0.1609
 6818TIP3    H144649   2.574   7.417   9.986  0.5583 -0.9310  0.0238
 6818TIP3    H244650   2.560   7.365  10.128 -0.4741  0.3142  0.4020
 6819TIP3   OH244651   1.175   2.090  12.123 -0.0516  0.1701 -0.2333
 6819TIP3    H144652   1.174   2.161  12.059 -0.1441  1.3935  1.0570
 6819TIP3    H244653   1.255   2.103  12.173 -0.9353  0.4776  1.1713
 6820TIP3   OH244654   7.297   1.934   9.644  0.0120 -0.1380 -0.1937
 6820TIP3    H144655   7.224   1.988   9.613 -0.1195 -0.8685 -1.2265
 6820TIP3    H244656   7.286   1.930   9.739 -2.1718 -1.4511 -0.4415
 6821TIP3   OH244657   2.253   2.001  11.109 -0.1142 -0.3595 -0.2142
 6821TIP3    H144658   2.256   1.917  11.063 -0.8439 -0.7569  0.4260
 6821TIP3    H244659   2.345   2.022  11.127  0.0436 -1.4735  0.3970
 6822TIP3   OH244660   1.515   3.382  11.555  0.1746 -0.3670 -0.3948
 6822TIP3    H144661   1.609   3.394  11.542  0.2262  0.4564  0.5977
 6822TIP3    H244662   1.506   3.365  11.649 -0.5124 -2.1910 -0.7612
 6823TIP3   OH244663   7.030   6.190   9.401 -0.5364 -0.1068 -0.0548
 6823TIP3    H144664   7.078   6.240   9.335 -0.7146  0.0540 -0.0621
 6823TIP3    H244665   7.001   6.256   9.464  0.0034 -0.3092  0.4151
 6824TIP3   OH244666   0.225   1.910  17.391  0.2865  0.9482  0.2142
 6824TIP3    H144667   0.135   1.924  17.361 -0.1317  0.2094  1.0458
 6824TIP3    H244668   0.251   1.828  17.350 -0.0165  0.3276  1.2304
 6825TIP3   OH244669   2.392   1.747   9.849 -0.1808  0.2282  0.1395
 6825TIP3    H144670   2.471   1.796   9.872  0.3380 -0.4924 -0.0917
 6825TIP3    H244671   2.337   1.753   9.927  0.3789  0.1713  0.5461
 6826TIP3   OH244672   2.810   6.238  11.198  0.4091  0.1124 -0.4224
 6826TIP3    H144673   2.818   6.326  11.234  0.3809 -0.6400  1.5523
 6826TIP3    H244674   2.721   6.235  11.162  0.0490  0.5711  0.4128
 6827TIP3   OH244675   4.656   4.232  10.566  0.8617  0.6842  0.4186
 6827TIP3    H144676   4.636   4.177  10.641 -0.0109 -0.3138 -0.5154
 6827TIP3    H244677   4.750   4.220  10.552  0.4594 -1.8308 -0.6691
 6828TIP3   OH244678   0.854   5.646  11.250 -0.2279 -0.5300 -0.2014
 6828TIP3    H144679   0.915   5.613  11.315 -0.1742 -0.2787 -0.1221
 6828TIP3    H244680   0.856   5.741  11.261 -0.1295 -0.4769 -0.6472
 6829TIP3   OH244681   3.883   6.198  10.185  0.3702  0.3469 -0.8184
 6829TIP3    H144682   3.834   6.170  10.107 -0.1837 -0.1061 -0.3162
 6829TIP3    H244683   3.875   6.293  10.186 -1.1827  0.2223 -0.3003
 6830TIP3   OH244684   4.784   0.087  10.673 -0.3805  0.2342 -0.1688
 6830TIP3    H144685   4.760   0.006  10.629  1.6197  0.6694 -2.2841
 6830TIP3    H244686   4.818   0.143  10.603  0.3242  2.0729  1.5410
 6831TIP3   OH244687   7.448   1.531  12.252 -0.0379  0.2673  0.8599
 6831TIP3    H144688   7.470   1.535  12.159 -0.0024  0.6875  0.8847
 6831TIP3    H244689   7.378   1.595  12.263  0.0133  0.2760  1.1364
 6832TIP3   OH244690   2.824   3.887  10.642 -0.2343  0.3217  0.1085
 6832TIP3    H144691   2.816   3.839  10.725 -0.2829 -0.9115 -0.5875
 6832TIP3    H244692   2.755   3.851  10.587  0.3908  0.4502 -0.7849
 6833TIP3   OH244693   4.862   1.499  10.206  0.1760 -0.5423  0.0468
 6833TIP3    H144694   4.942   1.446  10.198  0.8191 -0.0098  2.2582
 6833TIP3    H244695   4.799   1.440  10.247  0.5016  0.0100  1.3659
 6834TIP3   OH244696   1.949   5.511  10.527 -0.5397 -0.3614 -0.3117
 6834TIP3    H144697   1.982   5.601  10.525 -0.7027 -0.3072 -1.0060
 6834TIP3    H244698   1.913   5.500  10.615 -0.0462  0.0782 -0.0505
 6835TIP3   OH244699   0.108   2.273  11.392  0.1387  0.5073 -0.7859
 6835TIP3    H144700   0.082   2.202  11.334  0.4097  0.1236 -0.4480
 6835TIP3    H244701   0.072   2.352  11.352 -1.1835  0.0437 -0.5461
 6836TIP3   OH244702   2.361   0.490  12.406  0.5398 -0.4193 -0.4665
 6836TIP3    H144703   2.401   0.480  12.492  0.7006  1.1346 -0.3306
 6836TIP3    H244704   2.280   0.439  12.410  1.3668 -1.7127  0.0319
 6837TIP3   OH244705   6.387   1.587  10.815 -0.2149  0.0371 -0.5775
 6837TIP3    H144706   6.471   1.547  10.793 -0.1299  0.0617 -0.2995
 6837TIP3    H244707   6.348   1.528  10.879  0.5319  1.0937  0.9152
 6838TIP3   OH244708   7.443   4.153  11.998 -0.5957 -0.2024 -0.3004
 6838TIP3    H144709   7.443   4.081  12.061  1.4385  0.8523  1.0463
 6838TIP3    H244710   7.511   4.131  11.935  0.4001  0.7279  0.4147
 6839TIP3   OH244711   0.485   4.122  10.660  0.5596  0.1169  0.1098
 6839TIP3    H144712   0.408   4.091  10.708  0.3914  1.5024  0.8075
 6839TIP3    H244713   0.479   4.081  10.574 -1.5364  0.9983 -0.2057
 6840TIP3   OH244714   1.201   3.403  10.332  0.1223  0.1611 -0.1553
 6840TIP3    H144715   1.225   3.360  10.250  0.4773  0.2883 -0.1187
 6840TIP3    H244716   1.241   3.490  10.327 -1.9742  1.1537 -0.9709
 6841TIP3   OH244717   6.070   1.772  11.764 -0.5057  0.4239  0.2668
 6841TIP3    H144718   6.017   1.818  11.829  1.1766  0.6203  1.5811
 6841TIP3    H244719   6.160   1.781  11.796  0.4934  1.0950 -2.4240
 6842TIP3   OH244720   1.958   1.555  11.642  0.1539 -0.4986  0.6878
 6842TIP3    H144721   1.929   1.637  11.683  2.3173  0.8504 -0.3240
 6842TIP3    H244722   2.007   1.510  11.711  2.7852  1.2169  0.0665
 6843TIP3   OH244723   1.999   3.412  10.122 -0.4153  0.2982 -0.2325
 6843TIP3    H144724   2.086   3.403  10.084 -0.6009 -1.2850 -0.3788
 6843TIP3    H244725   1.971   3.500  10.098  1.1256  0.8132 -0.2048
 6844TIP3   OH244726   6.577   6.453  11.841  0.2559 -0.9621 -0.1118
 6844TIP3    H144727   6.549   6.402  11.765 -3.6183  0.3962  0.1914
 6844TIP3    H244728   6.605   6.537  11.805 -3.9260  0.6379 -0.1872
 6845TIP3   OH244729   6.441   1.887  12.344  0.1295  0.1891  0.4287
 6845TIP3    H144730   6.452   1.848  12.430  0.7235 -1.3678 -0.3111
 6845TIP3    H244731   6.353   1.863  12.317  0.8667 -1.7245 -0.4856
 6846TIP3   OH244732   7.121   0.918  10.143 -0.1263 -0.1947  0.4636
 6846TIP3    H144733   7.027   0.933  10.147  0.0208  1.0905 -0.3552
 6846TIP3    H244734   7.129   0.832  10.102 -0.9711  1.0438 -2.5941
 6847TIP3   OH244735   4.947   1.478  11.026 -0.4892  0.0287 -0.6654
 6847TIP3    H144736   4.891   1.460  10.950 -0.2399  2.3180 -1.4681
 6847TIP3    H244737   4.896   1.538  11.080  0.3110  0.3657 -0.2689
 6848TIP3   OH244738   1.005   5.237  10.532  0.4731  0.4801  0.3706
 6848TIP3    H144739   0.914   5.235  10.504  0.0280  0.1639  1.7524
 6848TIP3    H244740   1.054   5.203  10.457 -0.6342 -0.1574 -0.0882
 6849TIP3   OH244741   0.558   6.292  10.721 -0.1010 -0.0864  0.0953
 6849TIP3    H144742   0.522   6.333  10.643 -0.1147  0.5982  0.4540
 6849TIP3    H244743   0.495   6.311  10.790 -0.0814 -0.6729  0.2794
 6850TIP3   OH244744   6.438   6.556  11.259 -0.4388 -0.1497  0.2578
 6850TIP3    H144745   6.395   6.615  11.197 -3.1159 -1.0854  1.1030
 6850TIP3    H244746   6.523   6.538  11.219 -2.4980 -1.8625 -4.0125
 6851TIP3   OH244747   5.515   5.199  11.032 -0.2231  0.5450  0.0620
 6851TIP3    H144748   5.507   5.256  11.108 -2.1003  0.8273 -0.3165
 6851TIP3    H244749   5.583   5.241  10.979 -0.0461  1.2313  0.8018
 6852TIP3   OH244750   1.947   6.649   9.861  0.3021 -0.0020  0.4383
 6852TIP3    H144751   2.035   6.631   9.827  0.2391  0.6874 -0.1138
 6852TIP3    H244752   1.958   6.726   9.917 -0.3316  1.6369 -1.5656
 6853TIP3   OH244753   4.534   2.699  10.087 -0.5052 -0.0415  0.2024
 6853TIP3    H144754   4.449   2.743  10.092 -0.6862 -0.3130 -0.4589
 6853TIP3    H244755   4.534   2.640  10.163 -0.7470  0.2349  0.4208
 6854TIP3   OH244756   1.698   1.525  10.419 -0.4008  0.2047  0.1859
 6854TIP3    H144757   1.748   1.599  10.382 -0.5346 -0.4556 -1.3878
 6854TIP3    H244758   1.615   1.564  10.446 -0.5750  0.5973 -0.8712
 6855TIP3   OH244759   1.289   7.218   9.905 -0.2432 -0.1184  0.1897
 6855TIP3    H144760   1.210   7.166   9.894 -0.1652 -0.0057 -1.1171
 6855TIP3    H244761   1.353   7.158   9.942  0.0456 -1.1992 -1.9039
 6856TIP3   OH244762   2.730   3.901   9.995 -0.3772 -0.6495  0.4117
 6856TIP3    H144763   2.675   3.823   9.987 -0.9697 -0.2072  0.0028
 6856TIP3    H244764   2.816   3.874   9.963 -0.7850 -0.9341 -0.4913
 6857TIP3   OH244765   3.272   6.000  10.763 -0.3788  0.0576 -0.0039
 6857TIP3    H144766   3.216   5.933  10.801 -1.4489 -0.0926 -1.7433
 6857TIP3    H244767   3.251   5.999  10.669  0.8696  1.5945 -0.3456
 6858TIP3   OH244768   6.966   2.435  11.854 -0.1720 -0.0281  0.3193
 6858TIP3    H144769   7.041   2.405  11.906  1.7900  1.5363 -1.4646
 6858TIP3    H244770   6.892   2.429  11.915  1.3683 -1.5409  2.1952
 6859TIP3   OH244771   3.349   6.355  11.508  0.2079 -0.3594  0.3128
 6859TIP3    H144772   3.303   6.367  11.591 -1.0301 -2.9789  0.0820
 6859TIP3    H244773   3.436   6.324  11.534  1.0331  2.0408  0.6590
 6860TIP3   OH244774   4.183   1.668   9.958  0.4722  0.0571  0.4048
 6860TIP3    H144775   4.222   1.631   9.878  0.2613 -0.1546  0.3994
 6860TIP3    H244776   4.230   1.750   9.971  0.2083  0.3113 -0.1872
 6861TIP3   OH244777   2.088   5.223  10.739  0.4507 -0.0696  0.1044
 6861TIP3    H144778   2.092   5.293  10.804  1.9034 -0.1373  0.1336
 6861TIP3    H244779   2.177   5.219  10.704  0.2249 -1.4745 -0.3602
 6862TIP3   OH244780   1.851   0.388  10.890 -0.3346  0.1418 -0.4186
 6862TIP3    H144781   1.920   0.325  10.869 -1.5672 -1.9453  1.2952
 6862TIP3    H244782   1.775   0.358  10.840  0.1878  3.1570 -3.2799
 6863TIP3   OH244783   4.538   5.125  11.080 -0.3272  0.2606  0.4337
 6863TIP3    H144784   4.603   5.118  11.150  1.1966  2.2975 -0.6623
 6863TIP3    H244785   4.484   5.200  11.106  0.2694  1.0484 -0.5221
 6864TIP3   OH244786   3.223   7.081  11.552  0.4695  0.1231  0.1972
 6864TIP3    H144787   3.198   7.112  11.465 -0.0703 -0.6589  0.0571
 6864TIP3    H244788   3.315   7.106  11.561  0.4523  0.4589 -0.4834
 6865TIP3   OH244789   0.473   2.444   9.652  0.1564  0.5572 -0.1236
 6865TIP3    H144790   0.498   2.441   9.744  0.6083  1.0710 -0.2289
 6865TIP3    H244791   0.378   2.432   9.653  0.2300 -0.0100  0.3677
 6866TIP3   OH244792   3.702   0.594  11.376 -0.7522 -0.1391  0.1338
 6866TIP3    H144793   3.773   0.629  11.430 -0.7754  0.4577 -0.2112
 6866TIP3    H244794   3.724   0.502  11.365 -0.0666  0.0192  0.1001
 6867TIP3   OH244795   7.290   5.443  10.983 -0.0511 -0.0476  0.1463
 6867TIP3    H144796   7.310   5.468  10.892  0.6480  0.6724  0.4821
 6867TIP3    H244797   7.339   5.362  10.997 -1.1729 -0.8649 -0.4992
 6868TIP3   OH244798   0.630   3.379  10.228  0.2457 -0.1549 -0.6044
 6868TIP3    H144799   0.635   3.331  10.311  2.4582 -0.8912 -1.0916
 6868TIP3    H244800   0.605   3.313  10.164 -0.0220  0.0932 -0.7580
 6869TIP3   OH244801   0.743   2.372  12.004  0.1883 -0.3393  0.0761
 6869TIP3    H144802   0.795   2.312  11.951  1.5723  1.0426 -0.2162
 6869TIP3    H244803   0.784   2.369  12.091  0.4743  0.3888 -0.0246
 6870TIP3   OH244804   1.347   6.773  10.843 -0.2965  0.1404  0.3706
 6870TIP3    H144805   1.410   6.753  10.913 -0.1669  2.2690  0.9273
 6870TIP3    H244806   1.272   6.810  10.888 -0.6009  0.6759 -0.5469
 6871TIP3   OH244807   0.848   6.973  10.252 -0.1754 -0.2455  0.0568
 6871TIP3    H144808   0.895   7.056  10.242  1.1139 -1.0046 -0.4888
 6871TIP3    H244809   0.886   6.934  10.331 -1.6336  0.1909  1.0212
 6872TIP3   OH244810   4.194   3.776  11.098 -0.0248 -0.2458  0.2693
 6872TIP3    H144811   4.265   3.713  11.112 -1.4771 -1.6881  1.6326
 6872TIP3    H244812   4.121   3.723  11.067 -1.0988  0.8747  0.8125
 6873TIP3   OH244813   0.838   2.932  12.409 -0.1869 -0.3043  0.3198
 6873TIP3    H144814   0.905   2.954  12.344 -0.6014 -0.1096 -0.0521
 6873TIP3    H244815   0.782   2.868  12.365 -0.3117 -0.3747  0.5811
 6874TIP3   OH244816   1.668   5.635   9.169  0.1590  0.0106  0.2554
 6874TIP3    H144817   1.603   5.630   9.099 -1.5890  3.3821  1.3911
 6874TIP3    H244818   1.647   5.562   9.227 -0.0069 -1.2919 -1.3804
 6875TIP3   OH244819   0.084   5.562  10.344 -0.5910 -0.5086  0.5234
 6875TIP3    H144820   0.161   5.509  10.364 -0.8876 -1.0915  0.1474
 6875TIP3    H244821   0.042   5.518  10.271  0.4209  1.5302 -1.3993
 6876TIP3   OH244822   3.117   2.167  11.040  0.4011 -0.2732  0.0677
 6876TIP3    H144823   3.163   2.157  10.957 -3.2210  2.0807 -2.4834
 6876TIP3    H244824   3.164   2.237  11.085  2.6348 -1.8278  0.3171
 6877TIP3   OH244825   4.708   0.974   9.443 -0.3731  0.5669 -0.0646
 6877TIP3    H144826   4.709   0.878   9.446  2.4395  0.4664 -1.1813
 6877TIP3    H244827   4.691   1.001   9.533  0.2591 -0.9820  0.5542
 6878TIP3   OH244828   5.650   0.417  11.210 -0.0186 -0.2602  0.0194
 6878TIP3    H144829   5.651   0.385  11.120 -1.3815 -2.1988  0.6236
 6878TIP3    H244830   5.637   0.512  11.202  0.2602 -0.3407 -1.8059
 6879TIP3   OH244831   2.732   2.768  11.200  0.5063  0.3971 -0.9419
 6879TIP3    H144832   2.756   2.707  11.131  0.7221 -1.1542  0.4514
 6879TIP3    H244833   2.661   2.820  11.163 -0.2357 -1.2436 -1.8998
 6880TIP3   OH244834   5.820   0.516  12.420 -0.2094 -0.0135  0.3899
 6880TIP3    H144835   5.786   0.521  12.331  0.2228  1.3574  0.2728
 6880TIP3    H244836   5.873   0.437  12.422 -2.4202 -1.5851  0.2506
 6881TIP3   OH244837   6.074   3.668  12.219 -0.0846 -0.2723  1.0242
 6881TIP3    H144838   6.082   3.605  12.291  0.9100  0.0849  1.2425
 6881TIP3    H244839   6.139   3.639  12.155 -0.2042  0.0511  0.7591
 6882TIP3   OH244840   0.548   3.999  11.437 -0.3566  0.4577 -0.1608
 6882TIP3    H144841   0.596   4.070  11.480  0.7088 -0.4927  0.2703
 6882TIP3    H244842   0.471   3.985  11.493  0.9259 -0.6568  1.4301
 6883TIP3   OH244843   7.294   3.071  11.470  0.5018  0.7652  0.1431
 6883TIP3    H144844   7.255   2.993  11.430  1.4590  0.4409 -0.1958
 6883TIP3    H244845   7.229   3.140  11.456 -0.1908  0.1238  0.1024
 6884TIP3   OH244846   5.062   4.386  11.746  0.1835  0.4804 -0.4948
 6884TIP3    H144847   5.088   4.361  11.657 -0.6544 -0.4447 -0.5007
 6884TIP3    H244848   5.114   4.329  11.803  0.6139  0.9718 -0.3907
 6885TIP3   OH244849   7.277   6.081  10.948  0.0820 -0.0154 -0.2200
 6885TIP3    H144850   7.257   5.987  10.948 -1.1332  0.2098  0.7768
 6885TIP3    H244851   7.301   6.100  11.038  0.4978  0.6145 -0.4570
 6886TIP3   OH244852   0.133   6.137  11.008 -0.2856  0.1228  0.1945
 6886TIP3    H144853   0.108   6.091  10.928  0.6982  2.0554 -1.2932
 6886TIP3    H244854   0.065   6.113  11.071 -3.5729  1.7792 -2.4056
 6887TIP3   OH244855   3.841   1.115   9.742  0.2888  0.7065  0.9178
 6887TIP3    H144856   3.838   1.019   9.743 -0.9862  0.7241  0.2577
 6887TIP3    H244857   3.880   1.137   9.658 -2.5985  0.7641 -0.5264
 6888TIP3   OH244858   6.588   1.903  11.699  0.1792  0.0018 -0.5556
 6888TIP3    H144859   6.510   1.848  11.687  1.5841 -1.5424 -4.0264
 6888TIP3    H244860   6.643   1.854  11.760 -0.4834 -0.1339 -0.0562
 6889TIP3   OH244861   4.091   5.052  10.619  0.3582 -0.3566  0.4784
 6889TIP3    H144862   4.139   5.081  10.542 -2.6641 -1.5426 -2.0384
 6889TIP3    H244863   4.069   5.133  10.666  0.3770  0.5815 -1.0744
 6890TIP3   OH244864   5.164   0.208  12.060  0.0232 -0.6349 -0.0133
 6890TIP3    H144865   5.108   0.233  12.134 -0.4541 -0.4527 -0.4309
 6890TIP3    H244866   5.206   0.127  12.088  0.4437 -0.1641  0.7676
 6891TIP3   OH244867   5.785   3.167  10.081 -0.1040 -0.0111 -0.5011
 6891TIP3    H144868   5.801   3.073  10.078 -0.7609 -0.2165  1.0803
 6891TIP3    H244869   5.735   3.180  10.162 -1.4462  1.4912 -1.4977
 6892TIP3   OH244870   1.589   4.616  11.238 -0.0120 -0.2469 -0.9335
 6892TIP3    H144871   1.515   4.632  11.178 -1.5588 -1.6860  0.4689
 6892TIP3    H244872   1.554   4.638  11.324  1.1996 -0.9941 -0.2354
 6893TIP3   OH244873   6.534   0.023  10.543  0.6094 -0.0099 -0.0272
 6893TIP3    H144874   6.532  -0.031  10.464  1.0044  1.2095 -0.8912
 6893TIP3    H244875   6.442   0.029  10.570  0.5026 -0.6532 -0.2307
 6894TIP3   OH244876   2.870   1.972  11.044 -0.0252 -0.6478 -0.1808
 6894TIP3    H144877   2.958   1.972  11.007 -0.6731  0.5605 -1.8246
 6894TIP3    H244878   2.819   2.027  10.986 -2.2198 -2.4233 -0.0880
 6895TIP3   OH244879   6.098   6.906  11.082  0.2775  0.1064 -0.2664
 6895TIP3    H144880   6.048   6.986  11.098  0.8820  1.0012 -2.4733
 6895TIP3    H244881   6.048   6.837  11.126 -1.4451  1.3478 -0.1649
 6896TIP3   OH244882   0.739   0.556  12.320 -0.0740 -0.4985  0.2249
 6896TIP3    H144883   0.760   0.533  12.411  0.5401 -0.7219  0.0338
 6896TIP3    H244884   0.719   0.473  12.278 -2.9614 -0.1765  0.7579
 6897TIP3   OH244885   3.977   2.506  10.733  0.1944 -0.0065  0.2753
 6897TIP3    H144886   4.013   2.593  10.753  2.0758 -0.2515 -1.6933
 6897TIP3    H244887   3.926   2.519  10.653  1.2584 -0.8454 -0.5702
 6898TIP3   OH244888   1.676   1.064  10.937 -0.2300 -0.5123  0.1180
 6898TIP3    H144889   1.763   1.100  10.949 -0.7558  0.8661  0.0161
 6898TIP3    H244890   1.658   1.076  10.843 -1.2280  0.9505  0.4645
 6899TIP3   OH244891   6.699   1.381  11.606  0.3002  0.0142  0.0637
 6899TIP3    H144892   6.742   1.296  11.597  1.3283  0.2137  2.3437
 6899TIP3    H244893   6.617   1.362  11.653 -1.3407 -0.1239 -2.6612
 6900TIP3   OH244894   3.339   4.863  10.099  0.2064 -0.3147  0.2595
 6900TIP3    H144895   3.412   4.925  10.101 -0.4504  0.5255 -0.3704
 6900TIP3    H244896   3.267   4.914  10.060 -0.2857 -1.5615 -0.4919
 6901TIP3   OH244897   1.860   1.281  10.582 -0.0364  0.5890 -0.7039
 6901TIP3    H144898   1.873   1.355  10.641  0.5880 -0.8938  1.1146
 6901TIP3    H244899   1.765   1.280  10.567 -0.0661  1.6970 -0.7256
 6902TIP3   OH244900   5.788   0.700  10.633  0.5403  0.8463 -0.0173
 6902TIP3    H144901   5.760   0.707  10.724  1.3370  1.4826  0.1916
 6902TIP3    H244902   5.785   0.789  10.600  0.2986  0.6234 -0.6081
 6903TIP3   OH244903   2.792   3.064  11.961 -0.0426  0.1965  0.0372
 6903TIP3    H144904   2.778   2.973  11.987 -0.8914  0.3612  0.1738
 6903TIP3    H244905   2.835   3.104  12.036 -1.9076  0.5078  1.0022
 6904TIP3   OH244906   1.375   6.936  12.192  0.2582 -0.3501  0.8523
 6904TIP3    H144907   1.402   6.915  12.282 -0.1037  0.5567  1.1855
 6904TIP3    H244908   1.280   6.941  12.197  0.2123 -0.6636  0.3289
 6905TIP3   OH244909   7.034   6.286  11.740 -0.1238  0.8865 -0.1439
 6905TIP3    H144910   7.107   6.231  11.767  0.6459  1.5830 -0.7453
 6905TIP3    H244911   6.996   6.317  11.822  0.2985  0.5764  0.1744
 6906TIP3   OH244912   5.664   1.451   9.668 -0.5031 -0.4976 -0.1945
 6906TIP3    H144913   5.722   1.380   9.644 -1.7138 -1.3941 -0.5715
 6906TIP3    H244914   5.692   1.477   9.756  1.7737  0.5130 -1.1353
 6907TIP3   OH244915   4.990   0.593  10.876 -0.4078 -0.0374  0.4040
 6907TIP3    H144916   5.017   0.685  10.871 -0.2739 -0.0420  0.9664
 6907TIP3    H244917   5.053   0.546  10.821 -1.1072  0.3329 -0.7478
 6908TIP3   OH244918   3.643   1.382   9.603  0.0756 -0.6475  0.4379
 6908TIP3    H144919   3.646   1.440   9.526 -1.8998 -1.7457 -0.5683
 6908TIP3    H244920   3.728   1.338   9.604  0.4349 -0.0102 -0.6511
 6909TIP3   OH244921   0.491   2.155  11.881  0.0006 -0.0177  0.4089
 6909TIP3    H144922   0.517   2.225  11.821  0.5613 -1.2020 -0.7689
 6909TIP3    H244923   0.512   2.189  11.968 -0.4858  1.5897 -0.0742
 6910TIP3   OH244924   3.033   5.669  10.297  0.2215 -0.5521  0.2533
 6910TIP3    H144925   3.121   5.687  10.329  0.1513 -0.8619  0.6303
 6910TIP3    H244926   3.038   5.581  10.260 -0.2044 -1.0685  1.3685
 6911TIP3   OH244927   0.494   4.474   9.769  0.1483  0.4997 -0.2733
 6911TIP3    H144928   0.508   4.397   9.714 -0.3549 -0.0861  0.4229
 6911TIP3    H244929   0.529   4.546   9.716  0.3833 -0.1563 -1.0395
 6912TIP3   OH244930   5.393   6.072   9.769 -0.0853 -0.2628  0.1107
 6912TIP3    H144931   5.361   5.986   9.742  1.7049 -0.7445 -0.6431
 6912TIP3    H244932   5.488   6.060   9.780  0.0592  1.3513  1.0715
 6913TIP3   OH244933   3.744   0.585   9.698 -0.6667  0.3872 -0.0766
 6913TIP3    H144934   3.775   0.612   9.784 -0.1323  0.7283 -0.3695
 6913TIP3    H244935   3.770   0.493   9.690 -0.3051  0.4907 -0.0627
 6914TIP3   OH244936   2.577   5.663  10.018  0.5173  0.5265 -0.3608
 6914TIP3    H144937   2.502   5.702  10.061  0.5720 -0.1561  0.3661
 6914TIP3    H244938   2.645   5.658  10.085  0.2928 -1.4362 -0.2063
 6915TIP3   OH244939   1.028   6.067   9.561 -0.5120  0.3880 -0.0402
 6915TIP3    H144940   0.980   6.038   9.638 -0.7119  0.0267 -0.2991
 6915TIP3    H244941   1.025   6.163   9.566 -1.1590  0.3690  0.0109
 6916TIP3   OH244942   4.561   2.886  11.202 -0.2234  0.4408 -0.0025
 6916TIP3    H144943   4.546   2.929  11.287  0.3392  1.5988 -0.4659
 6916TIP3    H244944   4.654   2.867  11.201 -0.2321  0.4188 -0.3612
 6917TIP3   OH244945   0.290   2.803   9.525  0.7761  0.1109  0.3060
 6917TIP3    H144946   0.373   2.809   9.574  0.2256 -1.4644  1.5521
 6917TIP3    H244947   0.309   2.740   9.455  1.1226  1.1666 -0.5732
 6918TIP3   OH244948   6.429   3.412   9.991 -0.5162 -0.2487  0.7831
 6918TIP3    H144949   6.372   3.429   9.916 -0.1449  1.2740  0.8063
 6918TIP3    H244950   6.417   3.319  10.010 -1.5739 -0.3752 -0.3671
 6919TIP3   OH244951   1.971   6.907  12.803 -0.2951 -0.1933 -0.3374
 6919TIP3    H144952   1.877   6.903  12.782 -0.1839 -0.6981 -0.7608
 6919TIP3    H244953   1.993   6.817  12.828  0.0009  0.0028  0.1161
 6920TIP3   OH244954   5.626   0.290  10.246  0.2953 -0.5783  0.0969
 6920TIP3    H144955   5.698   0.311  10.186 -0.9052  0.1250 -1.1711
 6920TIP3    H244956   5.612   0.196  10.235  0.7838 -0.6524  0.0821
 6921TIP3   OH244957   7.036   3.659  11.979  0.1239 -0.4729 -0.8625
 6921TIP3    H144958   7.069   3.572  11.954 -0.4312 -1.1646  0.6771
 6921TIP3    H244959   7.115   3.713  11.984  0.6754 -1.3068 -0.2809
 6922TIP3   OH244960   5.903   7.266  10.667 -0.1557 -0.5909 -0.3812
 6922TIP3    H144961   5.839   7.328  10.632  0.1223 -0.4221 -0.5968
 6922TIP3    H244962   5.929   7.213  10.591 -1.2146 -1.7291  0.0064
 6923TIP3   OH244963   3.214   1.068  12.368  0.2789 -0.0994 -0.4716
 6923TIP3    H144964   3.184   1.155  12.342  0.8693  0.1365 -0.3690
 6923TIP3    H244965   3.145   1.009  12.336 -0.4996  0.4629  0.1311
 6924TIP3   OH244966   6.439   4.931  10.020 -0.2242  0.3805 -0.2905
 6924TIP3    H144967   6.418   5.021  10.044 -1.1353 -0.0051  0.4375
 6924TIP3    H244968   6.362   4.901   9.971 -1.5497 -1.0625  2.4042
 6925TIP3   OH244969   6.143   6.713  10.441 -0.0398 -0.3143  0.1351
 6925TIP3    H144970   6.155   6.797  10.397 -0.2273 -0.1013  0.4846
 6925TIP3    H244971   6.198   6.652  10.392  1.2543  0.3124  0.7516
 6926TIP3   OH244972   6.182   1.467  11.439 -0.0927  0.2427 -0.1686
 6926TIP3    H144973   6.215   1.426  11.358 -0.2241 -0.1908 -0.0072
 6926TIP3    H244974   6.140   1.395  11.486  0.1114  0.4649  0.3541
 6927TIP3   OH244975   2.742   7.429  11.257  0.1541 -0.2119  0.3349
 6927TIP3    H144976   2.754   7.503  11.316  1.1412  0.3663 -0.5394
 6927TIP3    H244977   2.831   7.400  11.237 -0.1294 -0.0919 -1.2147
 6928TIP3   OH244978   4.204   4.019  10.716  0.6887  0.3070 -0.0608
 6928TIP3    H144979   4.242   4.015  10.804  0.4511  0.4904  0.0491
 6928TIP3    H244980   4.121   4.065  10.727  2.0049  3.0644 -0.8231
 6929TIP3   OH244981   6.407   4.181  11.947 -0.4406  0.1033  0.1915
 6929TIP3    H144982   6.399   4.188  12.042  2.3213 -0.3918  0.5299
 6929TIP3    H244983   6.405   4.087  11.930 -1.8891  0.2066 -0.4141
 6930TIP3   OH244984   2.277   4.287   9.422  0.2844  0.4319 -0.7575
 6930TIP3    H144985   2.229   4.216   9.379  0.1939  0.6414 -1.0062
 6930TIP3    H244986   2.352   4.244   9.462  0.2773  0.2074 -0.9805
 6931TIP3   OH244987   1.946   1.675  10.119 -0.6656 -0.1908 -0.2925
 6931TIP3    H144988   1.860   1.688  10.159 -0.7476  1.3108 -0.8880
 6931TIP3    H244989   1.947   1.582  10.093 -1.8019 -0.4124  0.3950
 6932TIP3   OH244990   4.252   2.860  11.541  0.0169  0.4336 -0.0964
 6932TIP3    H144991   4.220   2.786  11.593  0.3589  1.2918  1.4011
 6932TIP3    H244992   4.340   2.833  11.514  0.5411  0.6715  1.2991
 6933TIP3   OH244993   1.402   6.848   9.917 -0.1162  0.4740  0.3658
 6933TIP3    H144994   1.446   6.806   9.843 -1.2382  0.9591 -0.6052
 6933TIP3    H244995   1.310   6.851   9.892 -0.7091 -0.3468  2.2699
 6934TIP3   OH244996   3.925   1.871   9.265 -0.0682  0.0997 -0.0348
 6934TIP3    H144997   3.893   1.898   9.179 -0.3090 -0.4012 -0.1031
 6934TIP3    H244998   3.891   1.783   9.278  1.0181 -0.3242  0.0299
 6935TIP3   OH244999   2.908   0.119  10.636 -0.3298  0.0562  0.0348
 6935TIP3    H145000   2.840   0.157  10.581 -0.4424  1.0865  0.8639
 6935TIP3    H245001   2.944   0.192  10.685 -1.2364 -0.9805  2.4343
 6936TIP3   OH245002   0.138   1.077  10.122 -0.1151 -0.0219 -0.2739
 6936TIP3    H145003   0.064   1.072  10.062 -0.4418  0.7457  0.0494
 6936TIP3    H245004   0.180   0.992  10.116 -0.8929 -0.3884 -0.6287
 6937TIP3   OH245005   0.325   1.981  11.373 -0.9173 -0.1991  0.0101
 6937TIP3    H145006   0.275   1.931  11.437 -1.0594 -0.0525  0.0149
 6937TIP3    H245007   0.346   1.918  11.304 -0.4626 -0.4417  0.3667
 6938TIP3   OH245008   0.233   1.703   9.764 -0.0288  0.2525  0.5164
 6938TIP3    H145009   0.155   1.702   9.709  1.3855 -0.6105 -1.6203
 6938TIP3    H245010   0.266   1.792   9.757  0.3643  0.0530 -0.4597
 6939TIP3   OH245011   7.337   4.084  10.986 -0.4466 -0.3482  0.5548
 6939TIP3    H145012   7.423   4.111  10.954  0.5713 -0.7003  2.8377
 6939TIP3    H245013   7.305   4.159  11.035 -0.1955 -1.1769  2.0245
 6940TIP3   OH245014   0.302   5.306  10.246 -0.0026 -0.5768  0.6082
 6940TIP3    H145015   0.287   5.255  10.166  0.4452 -0.3394  0.3681
 6940TIP3    H245016   0.394   5.331  10.241  0.3777 -1.6139  1.8078
 6941TIP3   OH245017   4.086   3.734  10.187 -0.2922  0.3160  0.1031
 6941TIP3    H145018   4.053   3.746  10.276 -2.4258 -0.2792 -0.5479
 6941TIP3    H245019   4.080   3.821  10.147  0.7093  0.5924  0.5400
 6942TIP3   OH245020   4.920   1.537  12.123 -0.4849  0.0252  0.0820
 6942TIP3    H145021   4.988   1.559  12.059 -0.2995 -1.5488 -0.2937
 6942TIP3    H245022   4.950   1.456  12.163 -2.6079 -1.2714 -0.8203
 6943TIP3   OH245023   0.661   6.067  10.841  0.3628 -0.1199  0.1737
 6943TIP3    H145024   0.600   6.128  10.800  0.6348  0.2042  0.2553
 6943TIP3    H245025   0.695   6.015  10.769 -0.3510 -0.6097  0.1785
 6944TIP3   OH245026   4.972   0.199  12.277 -0.6932 -0.0206  0.0495
 6944TIP3    H145027   4.878   0.210  12.263 -0.8971  0.7775  1.7121
 6944TIP3    H245028   4.978   0.161  12.365  0.5409 -0.1407 -0.0723
 6945TIP3   OH245029   6.593   6.619   9.420 -0.0104  0.0463  0.3697
 6945TIP3    H145030   6.651   6.676   9.371 -1.3457  0.3038 -0.9980
 6945TIP3    H245031   6.650   6.571   9.480  1.9367 -1.3086 -2.3792
 6946TIP3   OH245032   5.830   0.441  12.149  0.1366 -0.0927 -0.3927
 6946TIP3    H145033   5.784   0.470  12.071  1.9407  0.7433 -1.2084
 6946TIP3    H245034   5.880   0.364  12.121  0.6261  0.0787 -0.0033
 6947TIP3   OH245035   0.047   5.583  10.821 -1.0105 -0.4747 -0.3120
 6947TIP3    H145036   0.141   5.589  10.837 -0.7038  1.0346 -2.2390
 6947TIP3    H245037   0.021   5.500  10.860  0.9471 -0.5694  0.9575
 6948TIP3   OH245038   2.202   3.387  11.838  0.0559 -0.4977  0.1062
 6948TIP3    H145039   2.109   3.407  11.844  0.6306  2.1843  1.9348
 6948TIP3    H245040   2.209   3.296  11.866 -1.9285 -0.5065  0.7275
 6949TIP3   OH245041   4.712   1.335  11.515 -0.1394  0.6204  0.1664
 6949TIP3    H145042   4.633   1.282  11.530 -0.7997  1.2468 -0.9676
 6949TIP3    H245043   4.694   1.381  11.433  2.5426 -1.3408 -1.6664
 6950TIP3   OH245044   0.955   6.133  12.845 -0.0845  0.4990 -0.2849
 6950TIP3    H145045   0.890   6.116  12.777  0.6814 -1.4866 -0.5866
 6950TIP3    H245046   0.904   6.150  12.924 -1.0560 -2.7068 -0.1162
 6951TIP3   OH245047   2.480   2.942  11.323  0.2631  1.1822  0.6795
 6951TIP3    H145048   2.485   3.037  11.323  1.5197  1.1398  0.6021
 6951TIP3    H245049   2.484   2.918  11.230  0.9673  1.0294  0.7443
 6952TIP3   OH245050   6.996   5.733  12.701  0.2118 -0.2227  0.3741
 6952TIP3    H145051   7.088   5.746  12.725 -0.0355  3.4715 -0.0895
 6952TIP3    H245052   6.994   5.646  12.661  3.1046 -1.1860  2.0213
 6953TIP3   OH245053   4.383   4.233  10.481  0.4241 -0.4083  0.7092
 6953TIP3    H145054   4.341   4.283  10.551  0.6777 -1.6015  1.7652
 6953TIP3    H245055   4.466   4.203  10.520  0.8487 -0.5876 -0.3098
 6954TIP3   OH245056   1.263   2.479  11.725  0.5480 -0.3608  0.4070
 6954TIP3    H145057   1.293   2.537  11.656 -0.0395 -0.4758  0.0481
 6954TIP3    H245058   1.189   2.432  11.687  0.0601 -0.2544  1.1880
 6955TIP3   OH245059   1.189   5.673   9.316  0.6300 -0.3875 -0.0822
 6955TIP3    H145060   1.233   5.665   9.401 -0.8783 -1.1454  0.6597
 6955TIP3    H245061   1.133   5.596   9.310 -2.6986  1.7969  0.3134
 6956TIP3   OH245062   0.156   0.424  10.319  0.6649  0.3607 -0.8057
 6956TIP3    H145063   0.081   0.474  10.287 -0.1707 -0.6334 -0.4676
 6956TIP3    H245064   0.189   0.378  10.242 -0.8907 -1.4558 -0.4497
 6957TIP3   OH245065   1.853   3.932   9.951 -0.2778  0.2979 -0.6374
 6957TIP3    H145066   1.766   3.951   9.916 -0.4251  1.7530  0.3936
 6957TIP3    H245067   1.899   4.017   9.949  0.5556 -0.0973  0.2929
 6958TIP3   OH245068   3.582   1.326  10.932 -0.3707 -0.6146 -0.0888
 6958TIP3    H145069   3.656   1.363  10.979 -0.5285 -0.1903 -0.1667
 6958TIP3    H245070   3.563   1.390  10.863 -2.3521  0.5402  1.4198
 6959TIP3   OH245071   6.806   6.946  12.350  0.6612 -0.2534 -0.4965
 6959TIP3    H145072   6.876   7.009  12.335  0.4735  0.2723  0.6894
 6959TIP3    H245073   6.743   6.993  12.405  0.1709 -1.2447 -0.1796
 6960TIP3   OH245074   3.471   2.887  12.267  0.1763 -0.1528 -0.5765
 6960TIP3    H145075   3.384   2.927  12.265  0.1832 -0.1698 -2.0165
 6960TIP3    H245076   3.463   2.809  12.213  0.5352 -1.3780  1.0884
 6961TIP3   OH245077   6.516   3.043  10.523 -0.0559  0.2060 -0.3783
 6961TIP3    H145078   6.590   3.002  10.477  1.2906 -1.4484  2.9037
 6961TIP3    H245079   6.440   2.991  10.497  0.6550 -0.6803 -0.7429
 6962TIP3   OH245080   1.113   2.023   9.766 -0.3078  0.0805  0.6683
 6962TIP3    H145081   1.032   2.063   9.736  0.0203  1.1116  1.1144
 6962TIP3    H245082   1.140   2.076   9.841 -0.0669 -1.2295  1.5490
 6963TIP3   OH245083   7.038   0.896  11.736  0.0762 -0.1367  0.2410
 6963TIP3    H145084   7.084   0.813  11.722  0.8317  0.2486  0.4109
 6963TIP3    H245085   7.015   0.926  11.648  1.3302  0.3217  0.0473
 6964TIP3   OH245086   1.825   3.929  10.600  0.2834 -0.0090 -0.5812
 6964TIP3    H145087   1.790   3.887  10.521 -1.6061 -0.0671  0.2287
 6964TIP3    H245088   1.918   3.941  10.581  0.3040 -1.8364 -2.0260
 6965TIP3   OH245089   2.036   1.151  10.413  0.3424  0.5544 -0.6094
 6965TIP3    H145090   2.081   1.091  10.473 -0.2427 -1.0483 -1.6948
 6965TIP3    H245091   1.987   1.209  10.470 -0.1714 -0.9058  0.5063
 6966TIP3   OH245092   1.178   6.302  11.939 -0.0506 -0.1037 -0.2286
 6966TIP3    H145093   1.150   6.300  12.031 -1.0969  1.5099 -0.4780
 6966TIP3    H245094   1.099   6.283  11.889  0.8955 -2.9755 -0.8219
 6967TIP3   OH245095   6.272   6.471  11.657  0.2275 -0.0781 -0.1159
 6967TIP3    H145096   6.345   6.465  11.596  1.3851 -0.7396  1.2717
 6967TIP3    H245097   6.259   6.382  11.689 -0.1048  0.3034  0.8612
 6968TIP3   OH245098   6.579   6.592  12.094  0.2014  0.4375 -0.5026
 6968TIP3    H145099   6.551   6.575  12.004  0.0957  0.3548 -0.4536
 6968TIP3    H245100   6.637   6.519  12.115 -2.1128 -1.2613  0.5434
 6969TIP3   OH245101   1.932   0.836  11.735  0.4960  0.1845  0.1234
 6969TIP3    H145102   1.965   0.775  11.669 -0.1356 -0.4256  0.3646
 6969TIP3    H245103   1.920   0.918  11.687  1.4051  0.1472 -0.1919
 6970TIP3   OH245104   0.561   6.428  12.095  0.3467 -0.3480  0.0421
 6970TIP3    H145105   0.597   6.411  12.183 -2.5071  0.0241  1.3734
 6970TIP3    H245106   0.558   6.342  12.054 -1.5530 -1.1514  1.7037
 6971TIP3   OH245107   0.552   3.362  11.423  0.1395 -0.4286  0.8365
 6971TIP3    H145108   0.590   3.316  11.348 -0.7423 -0.2900  0.2987
 6971TIP3    H245109   0.623   3.365  11.487  1.2631  0.3879 -0.3928
 6972TIP3   OH245110   0.738   6.814   9.575 -0.2211  0.1240  0.2768
 6972TIP3    H145111   0.657   6.866   9.575 -0.5555 -0.3670 -0.9371
 6972TIP3    H245112   0.709   6.724   9.589  0.2137  0.0516  0.7526
 6973TIP3   OH245113   5.930   4.523   9.928  0.2825 -0.2145 -0.1562
 6973TIP3    H145114   5.849   4.474   9.922  0.6768 -0.8554 -0.3124
 6973TIP3    H245115   5.999   4.457   9.924  0.8571  0.4363 -1.5048
 6974TIP3   OH245116   2.908   7.140  11.453 -0.3389 -0.1581  0.7031
 6974TIP3    H145117   2.910   7.069  11.389 -0.5458  2.2415 -2.1224
 6974TIP3    H245118   2.856   7.105  11.526 -1.0233 -2.6352 -0.8736
 6975TIP3   OH245119   6.356   3.639  11.278  0.0465 -0.0920  0.2272
 6975TIP3    H145120   6.374   3.684  11.195  0.4796 -0.6573  0.0051
 6975TIP3    H245121   6.291   3.573  11.256  0.5049 -0.5526  0.2310
 6976TIP3   OH245122   1.456   5.050  10.253  0.2266  0.0700 -0.1775
 6976TIP3    H145123   1.465   5.073  10.345  1.4684 -1.1273  0.0221
 6976TIP3    H245124   1.400   5.119  10.217 -0.2615  0.5657  1.4497
 6977TIP3   OH245125   2.391   4.465  10.682  0.7091 -0.3469 -0.1437
 6977TIP3    H145126   2.442   4.435  10.607  0.4055 -2.2103  0.3302
 6977TIP3    H245127   2.307   4.419  10.674  0.3721  0.0554  0.8867
 6978TIP3   OH245128   2.498   4.759   9.620 -0.9008  0.6388 -0.6095
 6978TIP3    H145129   2.458   4.723   9.541 -1.2486  1.1578 -0.6721
 6978TIP3    H245130   2.584   4.717   9.624 -1.9882 -1.6911  0.3558
 6979TIP3   OH245131   0.812   2.652  12.661  0.3100 -0.5234  0.2567
 6979TIP3    H145132   0.762   2.596  12.720 -2.2239 -0.4183 -1.6699
 6979TIP3    H245133   0.791   2.621  12.573  0.1557  2.2930 -0.8139
 6980TIP3   OH245134   6.565   1.199  12.236  0.7020 -0.3226 -0.9308
 6980TIP3    H145135   6.519   1.250  12.302  0.0368 -1.5551 -0.4060
 6980TIP3    H245136   6.625   1.144  12.287  0.7334 -0.7382 -1.4122
 6981TIP3   OH245137   0.703   5.945  10.613  0.0305 -0.0018  0.7934
 6981TIP3    H145138   0.775   5.893  10.578 -0.2662  0.1537 -0.0868
 6981TIP3    H245139   0.667   5.990  10.536 -1.2671 -0.3980  1.1444
 6982TIP3   OH245140   0.526   5.475  11.542  0.6300 -0.4099  0.0831
 6982TIP3    H145141   0.564   5.486  11.454  1.2938  2.3299  0.6284
 6982TIP3    H245142   0.601   5.454  11.598  0.6728  0.6775  0.4462
 6983TIP3   OH245143   3.667   4.227  11.538  0.1054  0.0918  0.0833
 6983TIP3    H145144   3.591   4.186  11.499 -0.2387  1.5970 -0.9326
 6983TIP3    H245145   3.671   4.192  11.627 -1.1972 -0.7245 -0.1625
 6984TIP3   OH245146   5.986   5.749  11.855  0.0022  0.0675 -0.8088
 6984TIP3    H145147   6.040   5.760  11.933 -1.2545 -0.5234  0.1704
 6984TIP3    H245148   5.941   5.832  11.844 -0.7663 -0.2589 -0.1638
 6985TIP3   OH245149   1.470   6.773  11.787 -0.1912 -0.3139  0.0007
 6985TIP3    H145150   1.543   6.812  11.835  1.4476 -0.5098 -2.2081
 6985TIP3    H245151   1.456   6.689  11.831  2.3299 -1.2102 -0.7373
 6986TIP3   OH245152   2.346   6.150   9.760 -0.6142 -0.6381 -0.3791
 6986TIP3    H145153   2.424   6.143   9.705  1.0690  1.9183  1.4040
 6986TIP3    H245154   2.373   6.209   9.831 -3.9621 -0.2763  0.7642
 6987TIP3   OH245155   3.283   3.524  12.057  0.1658  0.7746 -0.2303
 6987TIP3    H145156   3.249   3.472  12.130 -0.1640  0.7835 -0.3738
 6987TIP3    H245157   3.248   3.480  11.979  0.3399  0.8892 -0.3731
 6988TIP3   OH245158   7.022   3.936  11.820 -0.4062 -0.3390 -0.0567
 6988TIP3    H145159   7.095   3.907  11.765  0.4727 -0.7095  1.2638
 6988TIP3    H245160   6.946   3.892  11.783  0.3670 -1.5848 -0.2313
 6989TIP3   OH245161   3.582   3.363  11.051 -0.3991 -0.5990 -0.0812
 6989TIP3    H145162   3.570   3.268  11.063 -2.4124 -0.3373  0.4334
 6989TIP3    H245163   3.537   3.382  10.969  1.3739 -0.2832 -1.0297
 6990TIP3   OH245164   2.595   2.860  10.512  0.6164  0.5139  0.1018
 6990TIP3    H145165   2.586   2.953  10.491  0.8355  0.6346  0.5523
 6990TIP3    H245166   2.675   2.854  10.564  0.4785  0.1051  0.2710
 6991TIP3   OH245167   3.708   3.894  11.926  0.0658  0.0150 -0.2557
 6991TIP3    H145168   3.758   3.915  12.005 -1.6560  0.7553  0.6748
 6991TIP3    H245169   3.773   3.856  11.867  1.2897 -1.1800  1.7320
 6992TIP3   OH245170   0.392   5.775  11.550 -0.2535 -0.0691  0.2163
 6992TIP3    H145171   0.301   5.759  11.528 -0.1766  0.1148 -0.2447
 6992TIP3    H245172   0.436   5.787  11.465  0.0490  0.6350  0.4614
 6993TIP3   OH245173   4.454   6.573  12.777 -0.4166 -0.0815  0.1021
 6993TIP3    H145174   4.549   6.583  12.776 -0.4212 -0.0661 -0.8211
 6993TIP3    H245175   4.438   6.488  12.737 -0.8149  0.2411 -0.4501
 6994TIP3   OH245176   4.343   4.331   9.805 -0.0824 -0.4884  0.3527
 6994TIP3    H145177   4.388   4.247   9.800 -0.4395 -0.7110  0.7581
 6994TIP3    H245178   4.263   4.312   9.855 -0.4918 -0.0498 -0.1269
 6995TIP3   OH245179   2.186   5.403  12.403  0.0110  0.2235 -0.1830
 6995TIP3    H145180   2.208   5.406  12.310 -2.2002 -1.8986 -0.8929
 6995TIP3    H245181   2.108   5.459  12.411 -0.3617 -0.3355  0.1696
 6996TIP3   OH245182   2.986   1.629  12.025  0.5358  0.6416 -0.2195
 6996TIP3    H145183   2.958   1.647  11.935  0.2767 -0.7904 -0.4449
 6996TIP3    H245184   2.921   1.568  12.059  0.1130  1.8592  1.2755
 6997TIP3   OH245185   3.807   6.902  11.381 -0.6740 -0.0443 -0.5758
 6997TIP3    H145186   3.822   6.996  11.394 -0.2484 -0.2013  0.0617
 6997TIP3    H245187   3.894   6.862  11.385 -0.7963 -0.4126 -1.3589
 6998TIP3   OH245188   0.250   1.996   9.742 -0.2454 -0.8240 -0.3593
 6998TIP3    H145189   0.215   2.065   9.686  1.7204 -0.4113 -1.1809
 6998TIP3    H245190   0.195   1.998   9.820 -2.6663 -0.9744 -1.9545
 6999TIP3   OH245191   4.329   0.989  11.977  0.7014 -0.1762 -0.0538
 6999TIP3    H145192   4.421   1.007  11.961  0.4414  1.3076 -0.0617
 6999TIP3    H245193   4.292   1.074  12.002 -0.9744 -0.3809 -1.5958
 7000TIP3   OH245194   2.578   4.181  10.596  0.7367 -0.3562 -0.1399
 7000TIP3    H145195   2.595   4.137  10.679  0.1518 -2.3204 -1.0196
 7000TIP3    H245196   2.642   4.145  10.535  1.0557  0.9427 -0.6138
 7001TIP3   OH245197   1.117   2.037  10.635  0.2403  0.8319 -0.5080
 7001TIP3    H145198   1.038   2.012  10.683 -0.0583  0.6126 -1.1156
 7001TIP3    H245199   1.174   2.077  10.702 -0.4207  1.0853 -0.0911
 7002TIP3   OH245200   3.065   1.130  11.552  0.2140  0.4130 -0.3380
 7002TIP3    H145201   3.132   1.067  11.580  1.6265  2.0388  0.0744
 7002TIP3    H245202   3.070   1.131  11.457  1.6853  1.4347 -0.2726
 7003TIP3   OH245203   0.356   3.426  10.673 -0.2519 -0.2214  0.5659
 7003TIP3    H145204   0.405   3.374  10.735  0.9059 -0.9823 -0.9246
 7003TIP3    H245205   0.423   3.473  10.622 -0.6874 -3.2888 -3.3156
 7004TIP3   OH245206   4.215   6.463   9.748  0.5291 -0.4460  0.5049
 7004TIP3    H145207   4.156   6.510   9.807  0.3767 -0.2726  0.2147
 7004TIP3    H245208   4.166   6.384   9.723  1.5262 -1.7878  2.5401
 7005TIP3   OH245209   0.997   0.018  12.344 -0.4445 -0.1305 -0.2481
 7005TIP3    H145210   0.904   0.042  12.339 -0.0955  1.3420 -0.1716
 7005TIP3    H245211   1.014   0.005  12.437 -1.0043 -2.3969 -0.3979
 7006TIP3   OH245212   2.149   2.568  11.242 -0.0874 -0.1569  0.0762
 7006TIP3    H145213   2.230   2.557  11.292 -0.3701  0.8452  0.7867
 7006TIP3    H245214   2.107   2.644  11.282 -0.6365  0.2710 -1.2758
 7007TIP3   OH245215   1.747   3.602  11.744  0.0775 -0.1730 -0.1514
 7007TIP3    H145216   1.696   3.684  11.751 -0.0926 -0.3223  0.4917
 7007TIP3    H245217   1.710   3.546  11.813  0.2461 -0.7632 -0.5403
 7008TIP3   OH245218   3.607   1.607  11.107  0.1570  0.0436 -0.2845
 7008TIP3    H145219   3.519   1.596  11.144 -0.0696  0.7992 -0.5703
 7008TIP3    H245220   3.657   1.534  11.142  0.5643  1.7844  3.2080
 7009TIP3   OH245221   5.471   4.745  11.827  0.0708  0.2187 -0.3263
 7009TIP3    H145222   5.442   4.658  11.856  2.0343 -0.1228  0.7500
 7009TIP3    H245223   5.464   4.800  11.905 -1.1668  1.0811 -1.0039
 7010TIP3   OH245224   3.267   1.466  10.440 -0.4042 -0.1790 -0.1072
 7010TIP3    H145225   3.262   1.561  10.432  1.4174  0.0828  1.1875
 7010TIP3    H245226   3.183   1.441  10.479 -1.1553  0.8043 -1.0249
 7011TIP3   OH245227   6.612   4.155  10.741 -0.1399  0.4525 -0.2242
 7011TIP3    H145228   6.665   4.209  10.799  1.7544 -0.2717 -1.1855
 7011TIP3    H245229   6.596   4.210  10.664  0.7492  0.0965 -0.6803
 7012TIP3   OH245230   6.877   1.704  10.820  0.1417  0.7095 -0.4955
 7012TIP3    H145231   6.910   1.621  10.787 -1.1001 -0.1346  0.2985
 7012TIP3    H245232   6.817   1.736  10.753 -0.2001  0.4125 -0.3373
 7013TIP3   OH245233   3.323   2.900  10.281 -0.1628 -0.3993  0.5595
 7013TIP3    H145234   3.255   2.858  10.334 -0.9133  0.7309  0.5363
 7013TIP3    H245235   3.287   2.900  10.192 -0.5702  1.0105  0.6948
 7014TIP3   OH245236   5.474   4.296  11.310 -0.2098 -0.7634 -0.0210
 7014TIP3    H145237   5.542   4.349  11.268  0.3045 -1.2454  0.1888
 7014TIP3    H245238   5.443   4.351  11.382  0.8319 -1.0207  0.6486
 7015TIP3   OH245239   6.198   3.398  11.168  0.2727 -0.8001  0.1344
 7015TIP3    H145240   6.109   3.434  11.167  0.4836 -0.2420 -2.0452
 7015TIP3    H245241   6.187   3.305  11.151 -0.0666 -1.4355  3.1629
 7016TIP3   OH245242   5.620   5.159  10.753 -0.2606 -0.2256 -0.2404
 7016TIP3    H145243   5.635   5.099  10.680 -0.5047 -0.0721 -0.4195
 7016TIP3    H245244   5.708   5.179  10.786 -0.1116  0.1262 -0.8359
 7017TIP3   OH245245   1.061   2.886  10.005 -0.4695  0.2212  0.7106
 7017TIP3    H145246   1.057   2.913   9.913  0.3097  2.7585  1.3405
 7017TIP3    H245247   1.099   2.798  10.003 -0.1807  0.3528 -1.3746
 7018TIP3   OH245248   5.562   6.190  10.043  0.3029 -0.0766  0.0662
 7018TIP3    H145249   5.656   6.201  10.055 -0.0727  2.1053  1.7084
 7018TIP3    H245250   5.536   6.265   9.989 -0.4614 -0.8660 -0.6870
 7019TIP3   OH245251   2.417   1.432  11.554 -0.1352  0.0165 -0.0870
 7019TIP3    H145252   2.400   1.400  11.465  1.6014 -0.1270 -0.4089
 7019TIP3    H245253   2.352   1.501  11.568 -1.0466 -0.6009 -1.0938
 7020TIP3   OH245254   3.849   3.973  10.148 -0.3412 -0.2366 -0.0731
 7020TIP3    H145255   3.919   4.036  10.164 -1.2647  1.4420 -2.0880
 7020TIP3    H245256   3.802   3.968  10.231  0.9197  0.2008  0.7009
 7021TIP3   OH245257   5.890   0.760  12.523 -0.5963 -0.3117 -0.4552
 7021TIP3    H145258   5.861   0.676  12.487 -2.6983 -0.2869  0.9710
 7021TIP3    H245259   5.847   0.826  12.468 -1.0981 -0.2281  0.0279
 7022TIP3   OH245260   5.145   7.298   9.768  0.2539 -0.7732  0.2700
 7022TIP3    H145261   5.138   7.349   9.688 -0.7151  0.4012  1.0564
 7022TIP3    H245262   5.238   7.279   9.777  0.6814  0.9937 -0.0035
 7023TIP3   OH245263   1.173   5.435  11.705  0.3997 -0.1734  0.6322
 7023TIP3    H145264   1.233   5.464  11.636 -0.8261  1.2746  0.1485
 7023TIP3    H245265   1.195   5.490  11.781  0.5759 -0.5781  0.8820
 7024TIP3   OH245266   0.633   0.305  10.984 -0.4981 -0.5256  0.1861
 7024TIP3    H145267   0.694   0.305  10.910 -0.3074 -1.6637  0.3272
 7024TIP3    H245268   0.569   0.373  10.962 -0.0555 -0.3775 -0.6966
 7025TIP3   OH245269   5.994   2.704  10.526  0.3318  0.0472  0.7032
 7025TIP3    H145270   5.901   2.727  10.533  0.1343 -0.8582  1.1687
 7025TIP3    H245271   6.031   2.731  10.610  0.3527 -0.1678  0.7646
 7026TIP3   OH245272   2.004   0.445  10.185 -0.4573  0.1456  0.0371
 7026TIP3    H145273   1.969   0.517  10.132 -0.6576 -0.7635 -1.0937
 7026TIP3    H245274   1.936   0.429  10.251 -2.2139 -1.4631 -2.0119
 7027TIP3   OH245275   0.162   7.275  12.180  0.2625  0.0109  0.0194
 7027TIP3    H145276   0.181   7.340  12.247  0.5825  0.9174 -0.9146
 7027TIP3    H245277   0.248   7.243  12.152  0.1465 -0.1792 -0.1242
 7028TIP3   OH245278   0.878   5.616  11.843  0.3928  0.2760 -0.0998
 7028TIP3    H145279   0.927   5.675  11.785  0.6322 -0.6924 -0.9136
 7028TIP3    H245280   0.942   5.590  11.910  0.1027  1.4325  0.6516
 7029TIP3   OH245281   0.995   4.413  11.638  0.0608  0.3959  0.0926
 7029TIP3    H145282   1.085   4.383  11.628 -0.1715  0.2535 -1.9579
 7029TIP3    H245283   0.973   4.453  11.554 -2.0057 -0.1627  0.3066
 7030TIP3   OH245284   3.799   2.792   9.610 -0.1550 -0.4152  0.2610
 7030TIP3    H145285   3.816   2.886   9.602 -2.0250 -0.0264  0.4205
 7030TIP3    H245286   3.873   2.759   9.660  0.0220  1.1763  1.1392
 7031TIP3   OH245287   2.369   4.881  12.407  0.3900 -0.0948  0.2738
 7031TIP3    H145288   2.391   4.972  12.425  0.7869  0.4620 -2.5259
 7031TIP3    H245289   2.437   4.851  12.347 -0.9110 -1.5518 -0.5466
 7032TIP3   OH245290   0.503   4.949  10.727 -0.0146 -0.0684  0.1682
 7032TIP3    H145291   0.554   4.868  10.724 -1.4215 -0.9809 -3.0587
 7032TIP3    H245292   0.567   5.019  10.715  0.7500 -1.0662 -1.9726
 7033TIP3   OH245293   1.662   1.742  11.858  0.2921  0.6293 -0.1947
 7033TIP3    H145294   1.659   1.815  11.920 -1.2216  1.1915 -0.8775
 7033TIP3    H245295   1.598   1.679  11.892 -0.6732  1.0119 -1.2302
 7034TIP3   OH245296   1.988   5.535  11.412 -0.1865  0.1038 -0.5505
 7034TIP3    H145297   2.076   5.500  11.400  0.0592  1.1896 -2.3841
 7034TIP3    H245298   1.931   5.475  11.364 -0.0057  1.1098 -2.0782
 7035TIP3   OH245299   0.516   4.110  11.731  0.0771 -0.0731 -0.2836
 7035TIP3    H145300   0.549   4.139  11.816 -1.7696 -0.1998  0.5221
 7035TIP3    H245301   0.579   4.144  11.668  1.0421  0.7415  1.0711
 7036TIP3   OH245302   5.005   5.620  11.919  0.0616 -0.0218 -0.7987
 7036TIP3    H145303   4.926   5.582  11.880 -0.9760  1.6568 -0.4435
 7036TIP3    H245304   5.006   5.589  12.009  0.9556 -1.6726 -1.3317
 7037TIP3   OH245305   3.177   0.028  10.334 -0.3081  0.4118  0.0438
 7037TIP3    H145306   3.210   0.026  10.244  1.5539 -0.3835  0.6916
 7037TIP3    H245307   3.256   0.031  10.388 -1.2800 -1.5622  1.7082
 7038TIP3   OH245308   6.740   0.895  17.404  0.2308  0.1678  0.0681
 7038TIP3    H145309   6.737   0.808  17.366 -0.1930  0.3685 -0.3584
 7038TIP3    H245310   6.709   0.953  17.335 -1.5541  0.4299  1.0472
 7039TIP3   OH245311   4.079   5.285  10.738  0.4045 -0.5870  0.3183
 7039TIP3    H145312   4.154   5.290  10.798 -0.4173  0.2539  1.3318
 7039TIP3    H245313   4.089   5.362  10.681 -0.4758  0.4293  1.4721
 7040TIP3   OH245314   1.468   4.690   9.931  0.0729  0.1328 -0.3483
 7040TIP3    H145315   1.428   4.777   9.934  2.2152  1.2150 -0.9214
 7040TIP3    H245316   1.499   4.682   9.841  1.4422 -0.4684  0.1590
 7041TIP3   OH245317   6.121   4.333   9.894 -0.2111  0.3753  0.5285
 7041TIP3    H145318   6.165   4.268   9.948 -0.9128 -1.6019 -1.1365
 7041TIP3    H245319   6.188   4.363   9.833 -0.3514 -0.2896  0.0317
 7042TIP3   OH245320   1.405   1.105  10.484  0.1599  0.4075  0.0645
 7042TIP3    H145321   1.316   1.102  10.519 -0.7621  2.4973 -1.8126
 7042TIP3    H245322   1.451   1.165  10.543  0.1980 -0.2669  0.7373
 7043TIP3   OH245323   6.129   7.378  12.702 -0.3914  0.2587  0.4907
 7043TIP3    H145324   6.142   7.287  12.674 -0.0337  0.0606  1.2711
 7043TIP3    H245325   6.120   7.372  12.797  2.4418  1.3284  0.9166
 7044TIP3   OH245326   4.735   6.475   9.778  0.2094 -0.3539 -0.3989
 7044TIP3    H145327   4.671   6.526   9.728 -0.1557 -1.1625 -0.7755
 7044TIP3    H245328   4.689   6.394   9.800 -0.6381  1.0317  3.6652
 7045TIP3   OH245329   1.712   2.466  10.913  0.2344  0.6664  0.5414
 7045TIP3    H145330   1.788   2.426  10.872 -1.2119 -0.5305 -1.1229
 7045TIP3    H245331   1.664   2.507  10.841 -2.3048 -1.3170  0.9651
 7046TIP3   OH245332   4.188   5.860  12.634  0.5570  0.4334 -0.9201
 7046TIP3    H145333   4.167   5.804  12.560  1.3802 -0.9869 -0.1322
 7046TIP3    H245334   4.131   5.937  12.624 -0.3310 -0.3664 -2.2358
 7047TIP3   OH245335   0.035   6.607  12.333  0.3771 -0.2338 -0.4685
 7047TIP3    H145336   0.072   6.580  12.249 -1.1214  0.1498 -1.2696
 7047TIP3    H245337   0.032   6.526  12.385  0.5319 -0.6352 -1.0796
 7048TIP3   OH245338   2.972   4.664  11.029  0.3376 -0.0237 -0.5514
 7048TIP3    H145339   2.893   4.675  10.976 -2.1178 -0.3832  2.7573
 7048TIP3    H245340   2.991   4.751  11.063  0.1818 -0.2786  0.2028
 7049TIP3   OH245341   2.954   1.138  10.491  0.3296 -0.0555  0.4787
 7049TIP3    H145342   2.952   1.059  10.436  0.5820  0.7773 -0.7724
 7049TIP3    H245343   2.956   1.210  10.429  2.5148  0.8975  1.5626
 7050TIP3   OH245344   1.085   3.665  11.188  0.0097  0.1818  0.2412
 7050TIP3    H145345   1.097   3.748  11.142  1.2082  0.8889  1.7243
 7050TIP3    H245346   1.174   3.635  11.207 -0.4234 -0.5444  1.2612
 7051TIP3   OH245347   2.798   7.246  12.109 -0.6521  0.3708  0.0366
 7051TIP3    H145348   2.830   7.181  12.046  0.2777  1.1873 -0.3633
 7051TIP3    H245349   2.874   7.267  12.163 -1.9036 -1.8794  2.9167
 7052TIP3   OH245350   7.014   0.966  10.465 -0.1510  0.3610 -0.3403
 7052TIP3    H145351   7.053   1.053  10.474  0.1075  0.1400  0.9188
 7052TIP3    H245352   6.936   0.980  10.413 -0.2547  1.4056  0.0681
 7053TIP3   OH245353   3.635   3.568   9.706 -0.0873 -0.3606 -0.4203
 7053TIP3    H145354   3.578   3.491   9.717  0.3391 -0.5324  0.7606
 7053TIP3    H245355   3.595   3.635   9.761 -0.5410  0.3274 -1.5673
 7054TIP3   OH245356   2.896   5.855   9.552 -0.4884  0.2225 -0.0850
 7054TIP3    H145357   2.840   5.778   9.546 -1.6917  1.0871 -0.4258
 7054TIP3    H245358   2.890   5.895   9.465 -0.8118  1.3248  0.4338
 7055TIP3   OH245359   3.649   4.001  11.038 -0.2688  0.2068 -0.4134
 7055TIP3    H145360   3.699   4.083  11.036 -0.5070  0.3899  0.6126
 7055TIP3    H245361   3.574   4.020  11.094  1.4506 -1.6472  2.8820
 7056TIP3   OH245362   7.341   4.714  11.684  0.3697  0.4245  0.5272
 7056TIP3    H145363   7.310   4.650  11.620 -0.4300  0.1181  1.2040
 7056TIP3    H245364   7.431   4.733  11.657 -0.8098  2.6389 -2.5576
 7057TIP3   OH245365   4.590   1.117   9.672  0.9531 -0.2364  0.4858
 7057TIP3    H145366   4.667   1.173   9.667 -0.7561  2.2197 -0.6510
 7057TIP3    H245367   4.599   1.071   9.755  2.5509  1.6401  1.4447
 7058TIP3   OH245368   0.608   2.145   9.696 -0.2573  0.4256  0.0711
 7058TIP3    H145369   0.577   2.054   9.700  0.6747  0.0529 -0.8000
 7058TIP3    H245370   0.542   2.190   9.643  1.0450 -0.5683 -2.5752
 7059TIP3   OH245371   7.331   0.943  11.481  0.0640 -0.1865  0.5167
 7059TIP3    H145372   7.386   1.021  11.478 -0.1959 -0.0090  0.2712
 7059TIP3    H245373   7.348   0.899  11.398  0.3941 -0.5175  0.7596
 7060TIP3   OH245374   2.257   5.650   9.528 -0.0260  0.1956  0.0174
 7060TIP3    H145375   2.320   5.579   9.515 -1.4544 -0.8629 -1.4929
 7060TIP3    H245376   2.267   5.704   9.450 -0.3220  0.5608  0.2340
 7061TIP3   OH245377   3.835   3.111  10.238  0.3512  0.0797 -0.1329
 7061TIP3    H145378   3.893   3.041  10.208  0.5217  0.9418 -1.9056
 7061TIP3    H245379   3.887   3.160  10.302  0.4310 -1.0180  0.6869
 7062TIP3   OH245380   1.367   0.306  10.933 -0.1408 -0.2511 -0.0318
 7062TIP3    H145381   1.433   0.313  10.864  0.3216  0.8548  0.4933
 7062TIP3    H245382   1.344   0.213  10.936  1.4084 -0.6638 -0.2163
 7063TIP3   OH245383   1.967   5.998  10.349 -0.2435 -0.3646  0.1200
 7063TIP3    H145384   2.021   6.068  10.385 -0.2269 -1.2547  1.9745
 7063TIP3    H245385   1.910   6.042  10.286  0.1137  1.2341  0.8525
 7064TIP3   OH245386   7.325   7.470  10.427 -0.7552 -0.1833 -0.9106
 7064TIP3    H145387   7.248   7.414  10.414 -1.2122  0.0280  0.6621
 7064TIP3    H245388   7.289   7.552  10.460  0.1467 -0.0763 -0.1688
 7065TIP3   OH245389   7.019   0.918   9.762  0.2263  0.8788  0.4123
 7065TIP3    H145390   7.098   0.941   9.713  0.1129 -1.3521 -0.9526
 7065TIP3    H245391   7.009   0.824   9.749 -2.8804  1.1187  0.1993
 7066TIP3   OH245392   5.682   7.009  10.069  0.0819  0.0528 -0.1567
 7066TIP3    H145393   5.681   7.053   9.984 -0.9057  0.1152 -0.1169
 7066TIP3    H245394   5.634   7.067  10.128 -0.1052 -0.4611  0.2076
 7067TIP3   OH245395   6.655   4.968  10.573 -0.1271  0.1821  0.4933
 7067TIP3    H145396   6.571   4.979  10.618 -0.4535  2.6891 -0.5643
 7067TIP3    H245397   6.639   4.900  10.508 -0.7541 -0.7344  1.5620
 7068TIP3   OH245398   1.391   2.619  10.359 -0.7453  0.2218 -0.3565
 7068TIP3    H145399   1.363   2.537  10.318  0.6008 -0.0113 -0.8617
 7068TIP3    H245400   1.473   2.640  10.316 -0.9420  1.7127 -0.0405
 7069TIP3   OH245401   2.910   2.841  11.723  0.6784  0.1865 -0.5212
 7069TIP3    H145402   2.918   2.795  11.640  2.0206  0.6470 -0.6888
 7069TIP3    H245403   2.832   2.805  11.764  2.0518 -2.8110 -0.2899
 7070TIP3   OH245404   4.820   6.961  10.204  0.1012  0.1456  0.5258
 7070TIP3    H145405   4.762   7.037  10.196  1.1420  0.9778  0.6898
 7070TIP3    H245406   4.845   6.941  10.114 -0.6273 -0.3866  0.4282
 7071TIP3   OH245407   0.386   4.483  11.403 -0.2560 -0.2319  0.2165
 7071TIP3    H145408   0.418   4.430  11.476 -3.5728 -1.2743  1.1173
 7071TIP3    H245409   0.373   4.420  11.332  0.7126  0.3703 -0.5232
 7072TIP3   OH245410   7.129   6.995   9.979  0.0464  0.1428 -0.5148
 7072TIP3    H145411   7.083   7.054  10.038 -0.3136 -0.8207  0.1907
 7072TIP3    H245412   7.153   6.920  10.034 -1.5708 -1.4549 -1.8796
 7073TIP3   OH245413   0.272   2.204  10.234 -0.3976  0.1366  0.3144
 7073TIP3    H145414   0.297   2.198  10.142 -1.4757 -2.0475  0.0943
 7073TIP3    H245415   0.344   2.163  10.282 -0.4762 -0.0179  0.3019
 7074TIP3   OH245416   7.464   2.788  11.294  0.4403 -0.0416 -0.1447
 7074TIP3    H145417   7.462   2.725  11.366 -0.6931 -1.3973 -1.3013
 7074TIP3    H245418   7.376   2.824  11.291 -0.6628 -2.5784 -2.9336
 7075TIP3   OH245419   4.712   3.915   9.940 -0.2747  0.0506 -0.0581
 7075TIP3    H145420   4.734   3.822   9.949  0.4839  0.2901  0.5998
 7075TIP3    H245421   4.781   3.951   9.886  0.2131  0.5144  0.8517
 7076TIP3   OH245422   2.849   2.492  12.405  0.0358 -0.1802  0.2127
 7076TIP3    H145423   2.794   2.559  12.364  0.6407  1.1912  1.5132
 7076TIP3    H245424   2.807   2.409  12.384 -0.5831  0.5781 -1.7135
 7077TIP3   OH245425   3.991   0.962  10.716  0.8784  0.4078 -0.5873
 7077TIP3    H145426   3.898   0.956  10.694  0.4765  0.1323  1.0719
 7077TIP3    H245427   4.029   0.880  10.681  0.4147  0.3056 -0.8532
 7078TIP3   OH245428   3.086   0.477  10.552 -0.2375  0.1169  0.0767
 7078TIP3    H145429   3.105   0.414  10.622  2.4355 -0.9077 -1.4245
 7078TIP3    H245430   3.158   0.540  10.556 -0.7918  0.8287 -0.8783
 7079TIP3   OH245431   4.889   2.394  10.797  0.3346  0.0530 -0.2246
 7079TIP3    H145432   4.883   2.381  10.892  0.5670  0.7060 -0.1190
 7079TIP3    H245433   4.827   2.331  10.760 -0.2314  0.2445  0.3903
 7080TIP3   OH245434   5.149   3.395   9.825  0.5405 -0.2041  0.1882
 7080TIP3    H145435   5.073   3.444   9.793 -0.7268 -1.6575  0.8349
 7080TIP3    H245436   5.120   3.304   9.827  1.9358 -0.6640  1.4957
 7081TIP3   OH245437   3.666   0.268  11.959  0.2612  0.2880  0.0724
 7081TIP3    H145438   3.593   0.310  12.004 -0.6053  0.7765 -1.6824
 7081TIP3    H245439   3.744   0.315  11.990 -0.1967  0.0855  1.5996
 7082TIP3   OH245440   3.148   5.616  11.860 -0.1302 -0.1651  0.2387
 7082TIP3    H145441   3.207   5.615  11.784  0.8814  0.5499  0.9821
 7082TIP3    H245442   3.130   5.523  11.877 -1.8024 -0.3221 -1.9015
 7083TIP3   OH245443   4.674   0.977  10.835 -0.6747 -0.9363 -0.2527
 7083TIP3    H145444   4.647   0.893  10.871 -1.0614 -0.5999  0.2683
 7083TIP3    H245445   4.762   0.991  10.870 -0.7204 -0.9995 -0.1094
 7084TIP3   OH245446   5.392   4.604  10.580  0.0176 -0.1258 -0.7866
 7084TIP3    H145447   5.451   4.587  10.654 -0.7636  0.9670  0.1076
 7084TIP3    H245448   5.315   4.551  10.599 -0.3529  0.4744 -0.5953
 7085TIP3   OH245449   5.868   7.367  10.215 -0.2192 -0.0706 -0.4635
 7085TIP3    H145450   5.872   7.272  10.208 -2.2550 -0.2714  0.3260
 7085TIP3    H245451   5.826   7.383  10.299 -1.6794  1.4509 -1.4174
 7086TIP3   OH245452   6.940   4.828  11.011 -0.4624 -0.1495  0.0184
 7086TIP3    H145453   7.019   4.826  11.065 -0.1389  0.6984 -0.4027
 7086TIP3    H245454   6.882   4.890  11.056 -0.2352  0.4757 -0.5361
 7087TIP3   OH245455   3.995   4.463  10.120 -0.8625  0.1387 -0.2597
 7087TIP3    H145456   4.039   4.548  10.122 -0.8162  0.1236 -0.5768
 7087TIP3    H245457   3.931   4.470  10.049 -1.0826  0.0190 -0.0748
 7088TIP3   OH245458   2.348   0.180  10.007  0.3154  0.3293 -0.3448
 7088TIP3    H145459   2.363   0.095  10.049 -2.1463 -0.2651 -0.5189
 7088TIP3    H245460   2.434   0.223  10.009  0.7778 -0.3492  3.6809
 7089TIP3   OH245461   2.067   7.130  10.215  0.2891  0.1170 -0.4265
 7089TIP3    H145462   2.021   7.201  10.258  0.9809  0.6873 -0.6227
 7089TIP3    H245463   2.092   7.165  10.130  2.9973  0.5845  0.4764
 7090TIP3   OH245464   5.818   4.837  11.325  0.3508 -0.2048  0.2636
 7090TIP3    H145465   5.861   4.786  11.393  0.5818 -1.5316 -0.8285
 7090TIP3    H245466   5.858   4.924  11.330 -0.4460  0.0950  2.5335
 7091TIP3   OH245467   2.990   1.013  10.734 -0.2416  0.2767  0.1986
 7091TIP3    H145468   2.929   1.039  10.665  0.9026 -1.0312 -1.3789
 7091TIP3    H245469   3.077   1.021  10.694  0.5874  1.0021  2.0243
 7092TIP3   OH245470   1.363   6.156  11.088  0.1451 -0.2261 -0.2417
 7092TIP3    H145471   1.456   6.164  11.108  0.3328 -2.1297 -0.2335
 7092TIP3    H245472   1.353   6.194  11.001  0.8176  0.4328 -0.0429
 7093TIP3   OH245473   0.774   0.500  11.335 -0.0800  0.1030  0.3948
 7093TIP3    H145474   0.809   0.424  11.288  0.8921 -0.1381  1.4583
 7093TIP3    H245475   0.836   0.571  11.316 -0.1445  0.2242  0.6342
 7094TIP3   OH245476   0.877   0.855  12.391  0.7259 -0.0678 -0.4617
 7094TIP3    H145477   0.877   0.770  12.345  0.9370  0.4921 -1.5322
 7094TIP3    H245478   0.866   0.919  12.321  0.0696  0.7701  0.4012
 7095TIP3   OH245479   4.157   1.956  10.275  0.1025 -0.4519  0.0095
 7095TIP3    H145480   4.222   2.008  10.228  0.7980 -0.3932  1.0049
 7095TIP3    H245481   4.089   2.019  10.299 -0.5545 -0.5936 -1.4016
 7096TIP3   OH245482   0.933   2.432  11.753 -0.0585  0.3235  0.4324
 7096TIP3    H145483   0.874   2.495  11.711 -0.3240  0.5936  1.1753
 7096TIP3    H245484   0.984   2.395  11.682 -0.9268  0.3022 -0.1997
 7097TIP3   OH245485   1.605   6.424   9.744 -0.1132  0.1355  0.9165
 7097TIP3    H145486   1.671   6.385   9.687 -0.4364 -0.5325  0.9885
 7097TIP3    H245487   1.647   6.503   9.779 -0.4187  1.3916 -1.3760
 7098TIP3   OH245488   7.474   6.628  10.926  0.2791 -0.2265  0.5820
 7098TIP3    H145489   7.542   6.598  10.986  0.0385 -0.7017  0.6207
 7098TIP3    H245490   7.426   6.549  10.902  0.4114 -0.0414 -0.2929
 7099TIP3   OH245491   4.103   5.525  11.750  0.5734  0.7990 -0.8381
 7099TIP3    H145492   4.073   5.469  11.679  1.2324 -0.7515  0.0457
 7099TIP3    H245493   4.135   5.604  11.707  1.5010 -0.3317 -2.3219
 7100TIP3   OH245494   2.477   6.598  11.485 -0.3282  0.2587 -0.5027
 7100TIP3    H145495   2.564   6.592  11.445  0.3939  0.0051  1.0660
 7100TIP3    H245496   2.419   6.556  11.421  0.7354  0.1243 -1.4151
 7101TIP3   OH245497   4.254   0.295  11.628 -0.4122 -0.2662  0.3492
 7101TIP3    H145498   4.311   0.230  11.585 -1.4848 -0.9372 -0.0907
 7101TIP3    H245499   4.169   0.252  11.634 -0.7662  0.5552  1.4205
 7102TIP3   OH245500   2.632   2.940  10.119  0.3352 -0.2522 -0.1935
 7102TIP3    H145501   2.727   2.936  10.116  0.2950 -2.4694 -2.7581
 7102TIP3    H245502   2.606   2.861  10.165 -0.3243  0.9796  1.6561
 7103TIP3   OH245503   0.596   1.039  11.213 -0.9397 -0.2478  0.1267
 7103TIP3    H145504   0.684   1.010  11.237 -0.8786 -0.1997 -0.0361
 7103TIP3    H245505   0.537   0.986  11.266 -0.8399 -0.8833 -0.3840
 7104TIP3   OH245506   1.297   7.007  11.418  0.3434 -0.3397 -0.0556
 7104TIP3    H145507   1.278   7.090  11.461  0.2538  1.1181 -2.7305
 7104TIP3    H245508   1.223   6.993  11.358  0.8092 -1.8882 -0.3107
 7105TIP3   OH245509   6.060   1.731  11.367  0.7930 -0.5099 -0.0445
 7105TIP3    H145510   6.121   1.705  11.435  2.0625  1.4568 -0.3413
 7105TIP3    H245511   6.079   1.824  11.352 -0.9282 -0.3397 -1.5536
 7106TIP3   OH245512   1.903   4.248  10.986  0.3473 -0.4918 -0.0613
 7106TIP3    H145513   1.824   4.219  10.941  0.5453  0.0866 -0.7958
 7106TIP3    H245514   1.871   4.304  11.057  0.0840 -0.6599 -0.0441
 7107TIP3   OH245515   2.342   1.139  12.376  0.0355 -0.1932 -0.2672
 7107TIP3    H145516   2.329   1.191  12.456 -0.1306 -0.6321 -0.0053
 7107TIP3    H245517   2.255   1.133  12.337  0.1540  0.2067 -0.6021
 7108TIP3   OH245518   1.988   4.332  11.587 -0.1321  0.5936  0.1400
 7108TIP3    H145519   1.972   4.249  11.632  0.7181  1.4288  2.0526
 7108TIP3    H245520   2.074   4.320  11.546  0.4540  0.8472  1.2551
 7109TIP3   OH245521   2.498   4.508  11.815  0.0814  0.6438 -0.0459
 7109TIP3    H145522   2.499   4.457  11.734 -0.8121  0.1952  0.2043
 7109TIP3    H245523   2.460   4.448  11.880  1.7111  0.6438  0.9671
 7110TIP3   OH245524   5.703   3.355  11.134  0.2867  0.2657  0.2893
 7110TIP3    H145525   5.632   3.411  11.101 -0.7658 -1.4797 -0.5769
 7110TIP3    H245526   5.778   3.413  11.141 -1.3015  2.3218  1.7027
 7111TIP3   OH245527   6.465   6.210   9.711  0.6645  0.0732  0.1944
 7111TIP3    H145528   6.396   6.261   9.669  0.0702 -0.1614  0.8763
 7111TIP3    H245529   6.533   6.202   9.644  0.1082  0.4562 -0.4235
 7112TIP3   OH245530   6.735   4.589  10.586  0.6460  0.2964  0.0725
 7112TIP3    H145531   6.755   4.672  10.629  0.0101  0.5250 -0.0725
 7112TIP3    H245532   6.650   4.603  10.544  0.3822 -0.5287  0.3137
 7113TIP3   OH245533   6.477   0.268  11.696  0.3326 -0.3409 -0.2409
 7113TIP3    H145534   6.467   0.359  11.725 -0.0772 -0.7354  0.9186
 7113TIP3    H245535   6.388   0.239  11.675  0.3183 -0.7723  0.3756
 7114TIP3   OH245536   3.486   2.798   9.815 -0.0752 -0.0191  0.9172
 7114TIP3    H145537   3.526   2.723   9.770  1.6451 -0.1097  2.4470
 7114TIP3    H245538   3.408   2.762   9.857 -0.8837 -0.2572 -0.6962
 7115TIP3   OH245539   2.623   1.077  10.772 -0.2662 -0.4110  0.1218
 7115TIP3    H145540   2.682   1.005  10.792  1.1198  0.9548  1.1543
 7115TIP3    H245541   2.564   1.081  10.847  1.7804  1.5789  1.7119
 7116TIP3   OH245542   0.796   0.468  12.581  0.6376  0.3157  0.4005
 7116TIP3    H145543   0.717   0.419  12.604 -0.5333  1.1969 -1.5027
 7116TIP3    H245544   0.862   0.401  12.566  0.0716 -0.4705  1.2989
 7117TIP3   OH245545   5.713   3.083  11.167  0.0993  0.3536  0.5010
 7117TIP3    H145546   5.636   3.066  11.114  0.7529  1.0667 -0.7126
 7117TIP3    H245547   5.729   3.177  11.157  1.7198  0.0330 -0.1064
 7118TIP3   OH245548   2.069   5.194  12.528 -0.5364 -0.0563  0.2344
 7118TIP3    H145549   2.039   5.149  12.449  0.0539  0.6126 -0.3932
 7118TIP3    H245550   2.114   5.272  12.495 -0.5458  0.3948  1.2464
 7119TIP3   OH245551   5.546   7.115  11.549 -0.2071 -0.0305  0.1577
 7119TIP3    H145552   5.568   7.182  11.484  2.6251 -1.8438 -0.9291
 7119TIP3    H245553   5.563   7.157  11.633 -2.0948  1.7460 -0.2804
 7120TIP3   OH245554   4.001   2.966   9.450  0.2766  0.2034  0.1670
 7120TIP3    H145555   4.050   2.885   9.463 -1.0260 -0.4195  1.4150
 7120TIP3    H245556   3.959   2.956   9.365  1.6497  0.4255 -0.5714
 7121TIP3   OH245557   3.999   3.394  10.808 -0.0540 -0.1997  0.0704
 7121TIP3    H145558   4.047   3.422  10.730 -0.1514  0.2170  0.1537
 7121TIP3    H245559   3.915   3.362  10.775 -0.4431  0.7822  0.0589
 7122TIP3   OH245560   3.769   6.915  10.406  0.9182  0.7739  0.0957
 7122TIP3    H145561   3.765   6.850  10.477  0.4001  0.5894 -0.0960
 7122TIP3    H245562   3.745   6.997  10.448  4.2526  1.4573  0.9917
 7123TIP3   OH245563   7.168   3.010  11.051 -0.3465  0.6043 -0.1179
 7123TIP3    H145564   7.171   3.089  10.998 -1.1556  0.7013 -0.0415
 7123TIP3    H245565   7.170   2.938  10.988  0.7548  0.6637 -0.1710
 7124TIP3   OH245566   0.918   1.828  11.087 -0.0865  0.6884 -0.5818
 7124TIP3    H145567   0.972   1.767  11.036  1.1463  1.4435 -0.2125
 7124TIP3    H245568   0.877   1.773  11.154  0.4052  0.1323 -0.7259
 7125TIP3   OH245569   3.687   2.993  11.308 -0.2394  0.1396  0.4902
 7125TIP3    H145570   3.605   2.953  11.338 -0.6902  0.7469  0.0968
 7125TIP3    H245571   3.754   2.957  11.367 -1.0141  0.8784  1.8795
 7126TIP3   OH245572   2.466   0.365   9.751  0.9383  0.0359 -0.0185
 7126TIP3    H145573   2.394   0.402   9.802 -0.6816 -1.3534 -1.2090
 7126TIP3    H245574   2.503   0.440   9.704  0.3440  0.7893  0.6950
 7127TIP3   OH245575   5.132   1.705  10.957  0.1504 -0.1848  0.1824
 7127TIP3    H145576   5.190   1.673  10.888  0.1820 -0.5296  0.3673
 7127TIP3    H245577   5.066   1.637  10.966 -0.6441  0.4919 -0.4547
 7128TIP3   OH245578   2.274   7.228  10.054  0.0411 -0.3682  0.1779
 7128TIP3    H145579   2.216   7.296  10.021  0.7644  0.2787  0.2237
 7128TIP3    H245580   2.360   7.252  10.022  0.0295 -2.4268 -1.6747
 7129TIP3   OH245581   3.919   6.787  10.934  0.7018  0.4820 -0.5468
 7129TIP3    H145582   3.995   6.814  10.985  1.3413  1.2468 -1.8477
 7129TIP3    H245583   3.954   6.766  10.847 -0.7306  2.3485 -1.6560
 7130TIP3   OH245584   0.249   7.392  11.342 -0.0842 -0.0203  0.2325
 7130TIP3    H145585   0.278   7.421  11.428 -1.3779 -1.6548  1.2871
 7130TIP3    H245586   0.205   7.468  11.304  1.4073  1.0382  0.5384
 7131TIP3   OH245587   4.304   6.113   9.807  0.2492  0.1619  0.0166
 7131TIP3    H145588   4.290   6.019   9.815  0.8098  0.2059  1.8879
 7131TIP3    H245589   4.220   6.147   9.776 -0.0928 -0.8948 -0.2664
 7132TIP3   OH245590   3.742   0.092  12.833 -0.0929 -0.4510 -0.0776
 7132TIP3    H145591   3.816   0.052  12.786 -0.4356 -0.9233 -0.2192
 7132TIP3    H245592   3.669   0.032  12.819 -0.6487  0.2691 -0.3763
 7133TIP3   OH245593   3.930   4.393  11.655  0.2535  0.1204 -0.4297
 7133TIP3    H145594   3.984   4.316  11.671 -0.5868 -0.3189  0.4460
 7133TIP3    H245595   3.844   4.357  11.630  0.1886  0.7906 -1.2286
 7134TIP3   OH245596   3.111   2.673  12.513 -0.3908 -0.4237  0.4934
 7134TIP3    H145597   3.085   2.606  12.576 -0.1200 -0.6181  0.4041
 7134TIP3    H245598   3.202   2.692  12.535 -0.2065 -0.6905 -0.0041
 7135TIP3   OH245599   4.581   2.852   9.753 -0.9801 -0.0325 -0.0058
 7135TIP3    H145600   4.589   2.928   9.810 -2.7607  0.4512 -0.3335
 7135TIP3    H245601   4.489   2.826   9.761 -0.9494 -0.7407 -1.6675
 7136TIP3   OH245602   5.532   5.524  11.872  0.3429  0.7162  0.1308
 7136TIP3    H145603   5.626   5.530  11.891  0.6090  0.9783 -1.1722
 7136TIP3    H245604   5.493   5.490  11.952  1.9735 -2.8014 -0.4097
 7137TIP3   OH245605   0.988   6.222  11.588  0.3656 -0.2878 -0.0962
 7137TIP3    H145606   1.044   6.169  11.644 -0.4677 -1.0790  0.0291
 7137TIP3    H245607   0.986   6.308  11.629 -1.3749 -1.2125  1.9582
 7138TIP3   OH245608   2.257   1.322  10.366  0.6396 -0.2949  0.0022
 7138TIP3    H145609   2.215   1.237  10.353  0.0500 -0.1644  0.9364
 7138TIP3    H245610   2.337   1.318  10.314  0.0571 -0.9940 -0.8785
 7139TIP3   OH245611   3.019   1.350  11.103 -0.0232  0.0826 -0.0394
 7139TIP3    H145612   3.092   1.384  11.051 -1.3033  1.1961 -1.1934
 7139TIP3    H245613   2.963   1.306  11.039 -0.0753 -1.3232  0.9336
 7140TIP3   OH245614   5.094   4.802   9.790  0.6045 -0.1657 -0.7319
 7140TIP3    H145615   5.081   4.792   9.885  0.8812 -0.1378 -0.6908
 7140TIP3    H245616   5.073   4.716   9.754  1.8701 -0.6006 -0.4935
 7141TIP3   OH245617   5.763   0.611  11.614  0.2418  0.3192  0.1897
 7141TIP3    H145618   5.844   0.619  11.664  1.5201  2.0805 -2.0239
 7141TIP3    H245619   5.785   0.556  11.540  0.0505  2.4023 -1.5089
 7142TIP3   OH245620   4.592   6.475  12.077  0.0422  0.0284  0.1114
 7142TIP3    H145621   4.674   6.523  12.086  0.4908 -1.0317  2.3760
 7142TIP3    H245622   4.619   6.383  12.071 -0.9215 -0.1972 -1.5150
 7143TIP3   OH245623   4.982   3.990  11.803  0.1199  0.2593  0.1862
 7143TIP3    H145624   4.901   4.031  11.834 -0.1266  0.2945 -0.4961
 7143TIP3    H245625   5.007   4.041  11.726  0.6281  0.0553  0.2135
 7144TIP3   OH245626   3.230   5.761  10.517 -0.6405  0.5698 -0.1937
 7144TIP3    H145627   3.151   5.760  10.570  0.1124  0.9745  0.9595
 7144TIP3    H245628   3.300   5.735  10.577  0.0348 -0.3555 -1.3285
 7145TIP3   OH245629   4.975   4.342  10.878 -0.2078  0.3152 -0.1305
 7145TIP3    H145630   4.986   4.302  10.792  0.0237 -0.5523  0.2880
 7145TIP3    H245631   4.904   4.404  10.866 -0.2776  0.1001 -0.9160
 7146TIP3   OH245632   0.633   3.745  11.501 -0.0243 -0.3060 -0.3686
 7146TIP3    H145633   0.656   3.691  11.426  1.0087  0.2865 -0.4973
 7146TIP3    H245634   0.635   3.835  11.467  0.8094 -0.0045  0.4371
 7147TIP3   OH245635   1.762   1.404  11.497  0.0309 -0.0995  0.1359
 7147TIP3    H145636   1.834   1.456  11.533 -0.2091 -0.6950  1.5548
 7147TIP3    H245637   1.696   1.469  11.472  0.4802  0.3765  0.1626
 7148TIP3   OH245638   3.420   5.559  12.681  0.3770 -0.1876  0.3909
 7148TIP3    H145639   3.512   5.569  12.658  0.3599  0.2126  0.4923
 7148TIP3    H245640   3.378   5.637  12.647  0.4539  0.7204  2.2694
 7149TIP3   OH245641   7.252   1.722  10.860  0.1073  0.2569  0.1144
 7149TIP3    H145642   7.218   1.810  10.879 -0.5982  0.4766 -1.9540
 7149TIP3    H245643   7.257   1.718  10.765  1.7469 -1.3732  0.2050
 7150TIP3   OH245644   4.898   2.729  11.288 -0.2536  0.3275  0.0876
 7150TIP3    H145645   4.977   2.675  11.285  0.2070  0.7822  2.1431
 7150TIP3    H245646   4.848   2.702  11.212  1.2705 -0.9370 -0.5384
 7151TIP3   OH245647   1.224   6.532   9.858  0.1627 -0.3823 -0.2017
 7151TIP3    H145648   1.221   6.556   9.951 -0.2973  1.0027 -0.5491
 7151TIP3    H245649   1.192   6.609   9.812  1.2171 -0.7162 -1.5810
 7152TIP3   OH245650   5.576   4.878  10.365  0.1938 -0.3184 -0.3531
 7152TIP3    H145651   5.523   4.939  10.313 -0.2643  0.5440  1.0657
 7152TIP3    H245652   5.559   4.793  10.325  1.8923  0.5686 -3.2278
 7153TIP3   OH245653   5.140   0.800  11.381  0.4001 -0.6148 -0.5317
 7153TIP3    H145654   5.170   0.820  11.292  0.3760  1.3658 -0.1275
 7153TIP3    H245655   5.055   0.842  11.388  1.0520  0.5404  0.9032
 7154TIP3   OH245656   4.040   0.713  10.614  0.5547  0.1249  0.6597
 7154TIP3    H145657   3.982   0.675  10.680  0.3035  3.1164  2.3448
 7154TIP3    H245658   4.122   0.664  10.624  0.5292  0.4828  3.2932
 7155TIP3   OH245659   4.704   3.613  11.229  0.0402 -0.4694 -0.4144
 7155TIP3    H145660   4.797   3.605  11.206  0.5822  0.4003  1.3289
 7155TIP3    H245661   4.674   3.522  11.236  0.5864 -0.7593 -1.5878
 7156TIP3   OH245662   4.002   3.239  10.445  0.2934  0.1196 -0.1584
 7156TIP3    H145663   3.990   3.332  10.428 -2.0292 -0.4193 -2.1348
 7156TIP3    H245664   3.937   3.219  10.512 -1.4251 -0.5430 -1.9137
 7157TIP3   OH245665   6.333   1.130  10.847 -0.0499 -0.3152  0.1318
 7157TIP3    H145666   6.329   1.035  10.843  0.1445 -0.3380  0.3900
 7157TIP3    H245667   6.362   1.149  10.936  2.0063 -0.0935 -0.5333
 7158TIP3   OH245668   3.195   1.239   9.838  0.0749 -0.3301 -0.3101
 7158TIP3    H145669   3.246   1.162   9.811  0.4502  0.1607 -1.0052
 7158TIP3    H245670   3.255   1.313   9.828  0.1660 -0.0896  1.6776
 7159TIP3   OH245671   4.567   0.642   9.557  0.0868  0.2371 -0.0106
 7159TIP3    H145672   4.659   0.633   9.535  0.2084  0.4419  0.4168
 7159TIP3    H245673   4.554   0.584   9.632 -0.6069 -1.4423 -1.3390
 7160TIP3   OH245674   3.416   3.792  12.466 -0.0971  0.3794  0.0734
 7160TIP3    H145675   3.354   3.726  12.495  0.9750 -0.0674  1.4789
 7160TIP3    H245676   3.401   3.867  12.523  0.3361  0.4407  0.1101
 7161TIP3   OH245677   4.660   5.556  10.005  0.4178 -0.2675 -0.0772
 7161TIP3    H145678   4.727   5.609   9.962  0.9023  0.8260  1.9456
 7161TIP3    H245679   4.691   5.466   9.996  1.8340  0.1694  0.2695
 7162TIP3   OH245680   7.052   4.592   9.342  0.3758  0.0860  0.1134
 7162TIP3    H145681   7.125   4.642   9.305 -0.2381  0.0321 -1.2763
 7162TIP3    H245682   6.974   4.635   9.305 -0.1797 -1.9585 -1.2965
 7163TIP3   OH245683   6.261   6.660  11.895 -0.2328 -0.3013  0.1661
 7163TIP3    H145684   6.291   6.600  11.963 -0.3943 -0.2916  0.2462
 7163TIP3    H245685   6.246   6.605  11.819  1.0629 -0.1602 -0.2262
 7164TIP3   OH245686   4.517   6.398  11.573  0.0428 -0.1140  0.1442
 7164TIP3    H145687   4.505   6.331  11.641  1.0942  0.1367  0.5978
 7164TIP3    H245688   4.438   6.392  11.519 -0.1177 -1.3721  0.4816
 7165TIP3   OH245689   6.901   0.389  11.389 -0.0914  0.1418  0.0724
 7165TIP3    H145690   6.889   0.422  11.478 -0.5075 -0.5606  0.2839
 7165TIP3    H245691   6.902   0.294  11.399 -0.8178  0.0359 -0.7564
 7166TIP3   OH245692   4.539   5.118  11.938  0.5812 -0.0285 -0.0717
 7166TIP3    H145693   4.532   5.044  11.877 -0.0621  0.8678 -1.0971
 7166TIP3    H245694   4.489   5.090  12.015 -0.4799 -0.2657 -0.8385
 7167TIP3   OH245695   4.530   7.129  12.197 -0.2101  0.0927 -0.3060
 7167TIP3    H145696   4.554   7.204  12.141  0.1135 -1.8789 -3.0286
 7167TIP3    H245697   4.444   7.101  12.164 -0.1813 -0.9131  0.4372
 7168TIP3   OH245698   5.294   1.925   9.906  0.4932 -0.2044 -0.1860
 7168TIP3    H145699   5.204   1.918   9.937  0.6653  0.4720  0.4994
 7168TIP3    H245700   5.286   1.936   9.811 -0.3346  2.4710  0.0957
 7169TIP3   OH245701   3.541   1.611  10.531 -0.6378 -0.0890  0.0101
 7169TIP3    H145702   3.473   1.650  10.477  1.0365  0.0960 -2.1439
 7169TIP3    H245703   3.603   1.574  10.468  1.6156  0.3816  1.7895
 7170TIP3   OH245704   1.457   7.053  11.198 -0.5048  0.0592  0.0676
 7170TIP3    H145705   1.376   7.081  11.156 -0.2355  0.6413 -0.0770
 7170TIP3    H245706   1.436   7.050  11.291 -0.5334  0.8073  0.0926
 7171TIP3   OH245707   1.935   4.768  11.769 -0.3168 -0.3296  0.2064
 7171TIP3    H145708   1.971   4.679  11.760 -1.7392 -0.7310 -2.7146
 7171TIP3    H245709   1.993   4.822  11.714  0.4260  0.5624  1.8179
 7172TIP3   OH245710   0.477   3.855  10.118 -0.2876 -0.0265 -0.7063
 7172TIP3    H145711   0.509   3.784  10.175  0.4014  0.5755 -0.3202
 7172TIP3    H245712   0.385   3.864  10.141 -0.7000 -1.5789 -1.5982
 7173TIP3   OH245713   2.970   6.425   9.671  0.2267 -0.2222 -0.2929
 7173TIP3    H145714   3.056   6.390   9.696 -0.7326 -1.9834  0.7910
 7173TIP3    H245715   2.964   6.509   9.715  1.3809 -0.0683 -0.3935
 7174TIP3   OH245716   3.042   5.053  11.420 -0.0152  0.1983 -0.0183
 7174TIP3    H145717   2.960   5.081  11.380 -0.2296  0.6924  0.7471
 7174TIP3    H245718   3.107   5.061  11.350 -0.5256  0.2703 -0.4906
 7175TIP3   OH245719   5.167   0.436  12.355  0.4427  0.0274 -0.3087
 7175TIP3    H145720   5.098   0.371  12.344  1.3807 -1.6971  2.8755
 7175TIP3    H245721   5.128   0.503  12.411 -0.2119  1.8854 -2.8074
 7176TIP3   OH245722   0.024   4.325  11.543  0.7086  0.1494 -0.0884
 7176TIP3    H145723   0.074   4.337  11.624 -2.2748  1.4427  1.7524
 7176TIP3    H245724  -0.039   4.397  11.544 -1.5595 -1.6603 -1.9002
 7177TIP3   OH245725   3.980   3.169  11.016  0.1131  0.0499  0.3941
 7177TIP3    H145726   4.004   3.249  10.969 -0.0392  0.0203  0.2669
 7177TIP3    H245727   3.995   3.191  11.108  3.2379 -0.8307  0.1990
 7178TIP3   OH245728   1.314   2.153  10.819 -0.4357  0.1573  0.6692
 7178TIP3    H145729   1.389   2.094  10.811 -1.7746 -1.4853 -0.5296
 7178TIP3    H245730   1.346   2.238  10.789  0.5432 -0.8910 -1.4141
 7179TIP3   OH245731   6.840   4.298   9.771  0.0840 -0.2146 -0.6286
 7179TIP3    H145732   6.818   4.205   9.776 -1.1301 -0.0387 -2.0467
 7179TIP3    H245733   6.761   4.343   9.801  0.8180  0.3906  0.5034
 7180TIP3   OH245734   1.384   1.913  11.626 -0.3113 -0.2356 -0.1003
 7180TIP3    H145735   1.388   1.820  11.648 -1.0827 -0.2967 -0.2089
 7180TIP3    H245736   1.434   1.919  11.544 -0.4093 -0.5822 -0.1900
 7181TIP3   OH245737   4.848   1.938  11.219  0.2264 -0.5383  0.5062
 7181TIP3    H145738   4.793   1.945  11.297  0.3905  0.6047  0.5488
 7181TIP3    H245739   4.848   2.027  11.182  0.9499 -0.8318 -0.2437
 7182TIP3   OH245740   5.516   4.346  10.133  0.1874 -0.4341  0.2490
 7182TIP3    H145741   5.437   4.376  10.178 -0.7182  0.5292 -1.8455
 7182TIP3    H245742   5.489   4.266  10.089 -0.1102  0.6620 -1.6599
 7183TIP3   OH245743   2.642   1.743  10.527 -0.5475 -0.1744 -0.1407
 7183TIP3    H145744   2.648   1.718  10.434 -3.3856  2.2558 -1.1422
 7183TIP3    H245745   2.729   1.779  10.547  0.3564 -1.3968 -1.5968
 7184TIP3   OH245746   5.903   7.472  11.093  0.8464  0.5089 -0.2630
 7184TIP3    H145747   5.815   7.468  11.056  1.4109  0.5806 -1.7233
 7184TIP3    H245748   5.929   7.563  11.081 -0.1697  1.4539  3.5153
 7185TIP3   OH245749   0.024   5.121  10.006 -0.3856  0.2857 -0.1903
 7185TIP3    H145750  -0.042   5.159   9.948 -0.6732  0.0245 -0.0309
 7185TIP3    H245751   0.106   5.160   9.976 -0.5840  0.4601 -0.5146
 7186TIP3   OH245752   6.148   0.528  10.948 -0.0264  0.1150 -0.0976
 7186TIP3    H145753   6.063   0.571  10.939 -0.4639 -0.7695 -0.3523
 7186TIP3    H245754   6.146   0.458  10.883  0.4050 -0.6829  0.7222
 7187TIP3   OH245755   7.457   6.240   9.819  0.8633  0.2345 -0.3924
 7187TIP3    H145756   7.516   6.172   9.788 -0.6678 -1.3602 -0.0127
 7187TIP3    H245757   7.488   6.260   9.907  1.8317  0.6571 -0.8211
 7188TIP3   OH245758   3.731   5.977  11.882 -0.2095  0.1820 -0.0316
 7188TIP3    H145759   3.678   6.052  11.910  1.4749  0.5193  2.6723
 7188TIP3    H245760   3.670   5.922  11.832 -2.3442  1.8295  0.5920
 7189TIP3   OH245761   0.832   6.344  10.653 -0.3525  0.8515  0.0962
 7189TIP3    H145762   0.887   6.266  10.640 -2.0732 -0.3617 -0.3179
 7189TIP3    H245763   0.750   6.309  10.688 -1.6344  2.3340 -1.2771
 7190TIP3   OH245764   2.361   3.338  10.702  0.0234  0.3420  0.3009
 7190TIP3    H145765   2.387   3.252  10.670  2.8536  1.4204 -0.6256
 7190TIP3    H245766   2.285   3.361  10.648  0.1447 -0.9474 -0.4677
 7191TIP3   OH245767   3.229   1.324  12.204  0.0915  0.3297  0.0286
 7191TIP3    H145768   3.278   1.366  12.275  0.0913 -2.3670  1.7736
 7191TIP3    H245769   3.138   1.349  12.219  0.2715  1.0114  0.0171
 7192TIP3   OH245770   4.313   2.645  12.281  0.4261 -0.0447 -0.0310
 7192TIP3    H145771   4.236   2.644  12.225 -0.5231 -0.7675  1.2360
 7192TIP3    H245772   4.311   2.731  12.324  1.7379  0.9454 -1.8045
 7193TIP3   OH245773   1.025   6.735  11.476 -0.4084 -0.3215 -0.1215
 7193TIP3    H145774   1.004   6.810  11.420 -1.9506  0.2628  1.1590
 7193TIP3    H245775   1.058   6.668  11.415 -1.5555  0.4510 -1.6624
 7194TIP3   OH245776   4.485   5.252  11.407  0.4842  0.0440  0.0739
 7194TIP3    H145777   4.512   5.165  11.377 -1.0301 -0.2973 -0.3840
 7194TIP3    H245778   4.473   5.302  11.326 -1.4156 -0.1994  0.1592
 7195TIP3   OH245779   7.230   0.834  12.357 -0.1892  0.4134  0.8962
 7195TIP3    H145780   7.250   0.920  12.320 -0.5079  0.5099  0.9482
 7195TIP3    H245781   7.216   0.851  12.450 -1.7574  0.5500  0.6530
 7196TIP3   OH245782   0.863   3.276  11.997 -0.4268  0.0570  0.4794
 7196TIP3    H145783   0.886   3.264  12.089 -1.3066 -0.1099  0.6921
 7196TIP3    H245784   0.777   3.318  12.000  0.1448  1.3561 -0.2672
 7197TIP3   OH245785   3.306   5.913   9.435  0.2057 -0.9366  0.1471
 7197TIP3    H145786   3.274   5.958   9.357 -2.1175 -1.2934  0.8127
 7197TIP3    H245787   3.352   5.981   9.485  1.2353 -0.5779 -1.2166
 7198TIP3   OH245788   4.791   6.264  11.332 -0.2169  0.3185  0.0297
 7198TIP3    H145789   4.762   6.324  11.401  2.1063  1.5976  0.0063
 7198TIP3    H245790   4.809   6.182  11.377 -1.5845  0.2061  0.4005
 7199TIP3   OH245791   1.777   7.363  10.032  0.3517 -0.3161  0.4737
 7199TIP3    H145792   1.785   7.268  10.026  2.7120 -0.1420 -0.6091
 7199TIP3    H245793   1.828   7.387  10.109  1.2017  0.1412 -0.1985
 7200TIP3   OH245794   3.367   2.598  11.527  0.0710 -0.3257  0.0487
 7200TIP3    H145795   3.454   2.616  11.564 -0.1351  0.8050  0.0206
 7200TIP3    H245796   3.354   2.504  11.540  1.7374 -0.7197 -0.9005
 7201TIP3   OH245797   4.596   7.269  10.024 -0.5044 -0.1432 -0.4331
 7201TIP3    H145798   4.563   7.187  10.062  1.9435 -1.2774 -0.5563
 7201TIP3    H245799   4.527   7.333  10.042 -1.9139 -1.9072  0.8783
 7202TIP3   OH245800   6.899   3.311  12.074  0.1660 -0.1305 -0.3786
 7202TIP3    H145801   6.992   3.326  12.055  0.3834 -1.1369 -0.1680
 7202TIP3    H245802   6.888   3.340  12.165 -0.0088  1.0951 -0.7718
 7203TIP3   OH245803   5.353   6.802  11.395  0.3651  0.2967 -0.2993
 7203TIP3    H145804   5.261   6.782  11.377  0.0336  0.4648  1.0839
 7203TIP3    H245805   5.368   6.768  11.484  1.7574 -0.0978 -0.6665
 7204TIP3   OH245806   6.352   5.392   9.827 -0.0868 -0.3428 -0.3915
 7204TIP3    H145807   6.427   5.441   9.791 -1.7775  1.1232 -2.1835
 7204TIP3    H245808   6.297   5.459   9.867 -1.6864 -0.9427 -1.4741
 7205TIP3   OH245809   3.895   2.348  11.874  0.2270 -0.7946 -0.1788
 7205TIP3    H145810   3.921   2.334  11.965  1.2738  0.4568 -0.2597
 7205TIP3    H245811   3.964   2.402  11.837 -1.4944  1.0189 -0.9680
 7206TIP3   OH245812   3.287   3.588   9.765  0.2286  0.5914 -0.2491
 7206TIP3    H145813   3.199   3.563   9.793  0.3832  0.9437  0.5780
 7206TIP3    H245814   3.338   3.507   9.770 -0.0921  0.3499 -0.9067
 7207TIP3   OH245815   6.643   3.519  11.990 -0.1054  0.4920 -0.1548
 7207TIP3    H145816   6.561   3.565  12.006 -0.5897  0.1323 -1.4463
 7207TIP3    H245817   6.635   3.438  12.042 -0.5222  0.5117 -0.1805
 7208TIP3   OH245818   4.770   3.678  12.451 -0.2348 -0.2294 -0.0874
 7208TIP3    H145819   4.852   3.628  12.457  1.1227  1.6111 -1.7744
 7208TIP3    H245820   4.702   3.612  12.445  1.2753 -1.8536 -0.1723
 7209TIP3   OH245821   0.812   5.781  10.960 -0.1481 -0.4031 -0.1833
 7209TIP3    H145822   0.771   5.867  10.974  0.7418 -0.0778  0.5830
 7209TIP3    H245823   0.756   5.719  11.006 -2.4776 -0.7330 -3.1968
 7210TIP3   OH245824   5.139   2.219   9.973  0.2821  0.7931 -0.1541
 7210TIP3    H145825   5.102   2.257   9.892  0.0590  3.3018  1.0227
 7210TIP3    H245826   5.234   2.223   9.959  0.2530 -1.0441 -1.1987
 7211TIP3   OH245827   6.478   0.307   9.564 -0.0801  0.4251  0.2717
 7211TIP3    H145828   6.464   0.371   9.634  1.2320 -1.0932  2.0020
 7211TIP3    H245829   6.552   0.342   9.514  1.6343 -0.3931  2.1191
 7212TIP3   OH245830   6.531   6.159  10.412  0.1838 -0.1091 -0.5927
 7212TIP3    H145831   6.513   6.171  10.505  2.2421  2.4859 -0.3844
 7212TIP3    H245832   6.623   6.131  10.409  0.2737  0.2583 -1.8321
 7213TIP3   OH245833   1.506   7.187  11.645  0.0602 -0.4218 -0.0842
 7213TIP3    H145834   1.569   7.241  11.692 -0.9475  0.9279 -0.2050
 7213TIP3    H245835   1.558   7.120  11.601  1.3828  0.5423 -0.0357
 7214TIP3   OH245836   7.212   2.204  10.711  0.5607 -0.0226 -0.5134
 7214TIP3    H145837   7.247   2.292  10.697 -0.0159  0.2671 -0.1794
 7214TIP3    H245838   7.279   2.145  10.676  1.8772  0.4687  1.0386
 7215TIP3   OH245839   4.948   6.643  10.564  0.4500  0.6141  0.4058
 7215TIP3    H145840   4.909   6.643  10.477 -2.4130  1.1804  1.5842
 7215TIP3    H245841   4.965   6.550  10.582  1.6287  0.5337 -0.9103
 7216TIP3   OH245842   0.387   0.641  11.524  0.6914 -0.1352  0.0643
 7216TIP3    H145843   0.302   0.668  11.558  0.2845 -0.2968 -0.7877
 7216TIP3    H245844   0.369   0.563  11.472  0.7430  1.7122 -2.9756
 7217TIP3   OH245845   5.891   4.090  10.740  0.4306 -0.1725  0.8134
 7217TIP3    H145846   5.847   4.164  10.698  0.2777 -1.2198 -0.9885
 7217TIP3    H245847   5.978   4.123  10.762  0.5572  0.4030 -0.4574
 7218TIP3   OH245848   0.868   2.826  11.577 -0.5203 -0.4842  0.1378
 7218TIP3    H145849   0.842   2.736  11.560 -1.9890 -0.0182 -0.2050
 7218TIP3    H245850   0.796   2.879  11.544 -0.2139  0.7725  1.3740
 7219TIP3   OH245851   1.204   5.897  11.844 -0.3623 -0.3050  0.3519
 7219TIP3    H145852   1.255   5.958  11.792 -0.0089 -0.5251  0.4370
 7219TIP3    H245853   1.191   5.942  11.928 -0.3000 -0.2540  0.3338
 7220TIP3   OH245854   3.719   5.627  10.335  0.2242 -0.1366  0.4249
 7220TIP3    H145855   3.711   5.681  10.413  0.3022 -0.3406  0.5743
 7220TIP3    H245856   3.757   5.686  10.270  0.3375 -0.0194  0.5955
 7221TIP3   OH245857   4.171   6.465  11.123 -0.2775  0.0490  0.0421
 7221TIP3    H145858   4.168   6.522  11.200 -0.3126 -1.2966  1.0819
 7221TIP3    H245859   4.257   6.424  11.128  1.2098  2.4959 -2.6260
 7222TIP3   OH245860   4.756   4.087  10.167 -0.5098  0.3240  0.3222
 7222TIP3    H145861   4.741   4.032  10.090  0.1261  0.8668 -0.1993
 7222TIP3    H245862   4.674   4.081  10.217 -1.6122  1.3856 -1.2949
 7223TIP3   OH245863   4.190   5.102  10.379  0.8615  0.6431  0.2740
 7223TIP3    H145864   4.275   5.057  10.380 -0.3235 -1.7965 -0.5594
 7223TIP3    H245865   4.155   5.084  10.292 -1.9754 -1.5038  1.7031
 7224TIP3   OH245866   5.168   5.748  11.506  0.5580  0.7970 -0.6549
 7224TIP3    H145867   5.174   5.675  11.567 -2.4609  0.0169 -1.1539
 7224TIP3    H245868   5.173   5.826  11.560 -3.9605  0.1556  1.0427
 7225TIP3   OH245869   4.399   4.597  10.043 -0.6103  0.1018 -0.9518
 7225TIP3    H145870   4.400   4.509  10.080 -2.5274  1.4983  3.0465
 7225TIP3    H245871   4.477   4.639  10.078 -1.2165  0.7785 -0.3709
 7226TIP3   OH245872   6.386   1.051  10.426  0.3174  0.4458 -0.3813
 7226TIP3    H145873   6.405   1.112  10.497  1.2048  1.5771 -1.5557
 7226TIP3    H245874   6.472   1.018  10.399 -0.0442 -0.2783 -0.6710
 7227TIP3   OH245875   1.335   5.460   9.828 -0.0079 -0.4229 -0.3621
 7227TIP3    H145876   1.402   5.392   9.829 -0.1132 -0.5226  0.0484
 7227TIP3    H245877   1.361   5.520   9.897  1.4881  1.3358 -2.3130
 7228TIP3   OH245878   4.604   1.486  10.358 -0.1350  0.6725  0.2720
 7228TIP3    H145879   4.542   1.416  10.378  0.7832 -0.0812  0.5920
 7228TIP3    H245880   4.571   1.526  10.278  0.4098 -1.5113 -1.1223
 7229TIP3   OH245881   5.111   6.069  11.369 -0.1974 -0.3117 -0.2170
 7229TIP3    H145882   5.183   6.035  11.423  0.9159  0.4331 -1.2022
 7229TIP3    H245883   5.053   6.111  11.432  0.7385 -0.0310  0.4931
 7230TIP3   OH245884   5.982   6.268  11.046  0.0060 -0.0830  0.4545
 7230TIP3    H145885   5.927   6.192  11.065  0.4765 -0.2283  1.2927
 7230TIP3    H245886   5.921   6.341  11.037 -0.4213 -0.4906  0.0120
 7231TIP3   OH245887   1.607   5.697  11.028 -0.8014 -0.0932  0.2210
 7231TIP3    H145888   1.595   5.636  10.955 -0.8784  0.7869 -0.5148
 7231TIP3    H245889   1.522   5.701  11.070 -2.3309  3.2367 -2.7075
 7232TIP3   OH245890   7.376   1.114  10.609  0.7112  0.3894  0.1468
 7232TIP3    H145891   7.363   1.200  10.649  2.9651 -0.0128  1.9805
 7232TIP3    H245892   7.400   1.134  10.519 -1.7698  1.4756 -0.3561
 7233TIP3   OH245893   3.197   3.855  11.854 -0.6605  0.4995  0.3690
 7233TIP3    H145894   3.159   3.770  11.834  1.9225 -0.4076 -1.1281
 7233TIP3    H245895   3.121   3.913  11.866 -2.4960 -1.2780 -1.8205
 7234TIP3   OH245896   2.915   4.120   9.843 -0.3630  0.9657  0.2696
 7234TIP3    H145897   2.892   4.111   9.750 -1.5822  2.8830  0.3373
 7234TIP3    H245898   2.833   4.106   9.890  0.3277 -0.4404  1.1270
 7235TIP3   OH245899   2.840   1.955   9.757  0.2089 -0.2594  0.2014
 7235TIP3    H145900   2.903   2.012   9.714  2.0185 -0.7870  1.9999
 7235TIP3    H245901   2.852   1.870   9.715  1.0822 -0.4770  0.8708
 7236TIP3   OH245902   0.892   2.157  11.886  0.3110  0.0241 -0.8328
 7236TIP3    H145903   0.973   2.200  11.857  1.0389 -0.0921  0.9325
 7236TIP3    H245904   0.840   2.149  11.806  0.5839  3.1820 -1.4529
 7237TIP3   OH245905   6.756   7.355  11.598 -0.4587 -0.0590  0.1833
 7237TIP3    H145906   6.719   7.267  11.595 -1.6261  0.4045  0.1351
 7237TIP3    H245907   6.684   7.411  11.570  0.4989  0.8431 -0.5278
 7238TIP3   OH245908   1.800   6.791  10.470 -0.2255 -0.2982 -0.1162
 7238TIP3    H145909   1.750   6.862  10.509 -1.7324 -1.3192 -0.1086
 7238TIP3    H245910   1.876   6.780  10.528 -1.2584 -0.3194  1.2874
 7239TIP3   OH245911   1.086   0.452  11.208 -0.6886 -0.5122  0.3716
 7239TIP3    H145912   1.070   0.437  11.115 -0.2711  1.1476 -0.0127
 7239TIP3    H245913   1.039   0.382  11.252 -1.0115 -1.2546 -1.0794
 7240TIP3   OH245914   1.733   3.119  10.448  0.1696  0.3088 -0.2239
 7240TIP3    H145915   1.779   3.165  10.519  1.1847 -1.3224  0.2286
 7240TIP3    H245916   1.782   3.142  10.369 -0.5881  1.6315 -0.3327
 7241TIP3   OH245917   5.770   6.604   9.704  0.5420  0.1529 -0.8249
 7241TIP3    H145918   5.760   6.619   9.610 -2.3999  0.6972 -0.5207
 7241TIP3    H245919   5.775   6.509   9.713  2.3858  0.1255 -1.5664
 7242TIP3   OH245920   5.248   4.569  12.148 -0.0957 -0.3728  0.1251
 7242TIP3    H145921   5.154   4.547  12.148 -0.1136 -0.5492 -2.0247
 7242TIP3    H245922   5.251   4.663  12.132  0.0560 -0.6292 -1.5954
 7243TIP3   OH245923   2.491   1.493  11.233  0.5533  0.3116  0.5345
 7243TIP3    H145924   2.553   1.420  11.234  1.6612  1.2326  0.4462
 7243TIP3    H245925   2.411   1.457  11.272 -0.0302 -1.8900 -2.3457
 7244TIP3   OH245926   0.368   3.998   9.793 -0.1250 -0.0714  0.4900
 7244TIP3    H145927   0.379   4.067   9.859  0.1342 -0.7913  1.2204
 7244TIP3    H245928   0.457   3.973   9.769 -0.2212  0.4430 -0.4181
 7245TIP3   OH245929   7.089   5.200  11.311  0.6352  0.3273 -0.4361
 7245TIP3    H145930   7.176   5.216  11.346  0.0989  1.9837  0.2519
 7245TIP3    H245931   7.033   5.193  11.388 -0.2525  2.0635 -0.8657
 7246TIP3   OH245932   2.436   3.916  10.520 -0.7129 -0.4466 -0.1281
 7246TIP3    H145933   2.439   4.012  10.523 -1.3219 -0.4500  2.3760
 7246TIP3    H245934   2.351   3.897  10.479 -1.3016  0.1127  0.8004
 7247TIP3   OH245935   6.383   5.215  12.013 -0.2098  0.7511 -0.3972
 7247TIP3    H145936   6.425   5.176  12.090  1.5308 -0.3119 -1.7955
 7247TIP3    H245937   6.397   5.309  12.024  2.3210  0.4833 -0.5802
 7248TIP3   OH245938   4.306   2.521  11.277  0.3924 -0.2594 -0.5325
 7248TIP3    H145939   4.292   2.587  11.210  1.3798 -1.1803 -1.6939
 7248TIP3    H245940   4.399   2.528  11.299  0.6092 -1.5107 -0.9704
 7249TIP3   OH245941   6.797   6.038  11.650 -0.2789  0.2185  0.1262
 7249TIP3    H145942   6.773   5.980  11.578 -0.2181 -0.1858  0.4237
 7249TIP3    H245943   6.890   6.056  11.637  0.3528 -1.7815  1.3944
 7250TIP3   OH245944   5.042   5.520   9.874  0.0112 -0.1449 -0.2724
 7250TIP3    H145945   5.122   5.571   9.863 -0.9502  1.7540  1.0976
 7250TIP3    H245946   5.038   5.465   9.796  1.3744  1.4659 -1.5447
 7251TIP3   OH245947   1.375   5.481  10.100  0.2281  0.1732  0.3741
 7251TIP3    H145948   1.468   5.499  10.089  0.0349  0.2223 -1.4759
 7251TIP3    H245949   1.337   5.565  10.126  0.7774 -0.0319  1.9697
 7252TIP3   OH245950   3.263   2.827  11.137 -0.7360 -0.4398  0.0110
 7252TIP3    H145951   3.223   2.792  11.057 -1.8507 -5.0897  2.2784
 7252TIP3    H245952   3.357   2.814  11.124 -0.6755  0.9974 -1.3287
 7253TIP3   OH245953   5.776   1.370  10.569  0.2764  0.3763 -1.0074
 7253TIP3    H145954   5.702   1.427  10.547 -1.0200 -0.8882 -0.0340
 7253TIP3    H245955   5.756   1.286  10.528 -0.2622 -0.8413  1.5295
 7254TIP3   OH245956   2.383   3.639  10.290 -0.4912 -0.1285  0.9557
 7254TIP3    H145957   2.471   3.670  10.269 -0.5322  0.7695  2.0474
 7254TIP3    H245958   2.326   3.691  10.234 -0.5990  2.2608  3.1151
 7255TIP3   OH245959   7.159   5.678  11.143  0.0215 -0.2574 -0.5261
 7255TIP3    H145960   7.072   5.719  11.142 -0.0736 -0.2093  1.9993
 7255TIP3    H245961   7.144   5.588  11.116 -0.3756  0.3604 -2.4970
 7256TIP3   OH245962   4.631   1.176  11.226  0.6090  0.6203 -0.2625
 7256TIP3    H145963   4.549   1.156  11.181 -0.5621  0.2073  1.9158
 7256TIP3    H245964   4.646   1.269  11.210 -0.3398  0.7163 -0.6288
 7257TIP3   OH245965   3.005   2.544  10.704  0.3744 -0.5405 -0.6051
 7257TIP3    H145966   2.916   2.533  10.736  0.1045  0.5749 -0.9145
 7257TIP3    H245967   3.037   2.455  10.690 -0.9605 -0.9486 -1.2253
 7258TIP3   OH245968   6.957   3.666   9.767 -0.2949  0.0655  0.2401
 7258TIP3    H145969   7.016   3.738   9.748 -0.7068  0.9206  2.0354
 7258TIP3    H245970   7.003   3.614   9.834 -0.1885 -1.1391 -0.7164
 7259TIP3   OH245971   2.053   0.105  10.503  0.2458 -0.0557  0.1899
 7259TIP3    H145972   2.135   0.154  10.502 -0.0861  0.5125 -0.9048
 7259TIP3    H245973   2.000   0.144  10.433 -0.2832 -1.5267 -0.2787
 7260TIP3   OH245974   1.592   6.845  12.047  0.2700  0.5931  0.6516
 7260TIP3    H145975   1.502   6.853  12.078  0.6887 -2.5494  3.1080
 7260TIP3    H245976   1.646   6.866  12.123  1.5649  0.1435 -0.1093
 7261TIP3   OH245977   0.435   1.125  11.996 -0.4195 -0.2825  0.6994
 7261TIP3    H145978   0.445   1.045  12.047  1.0341 -2.0994 -2.1356
 7261TIP3    H245979   0.380   1.100  11.922  0.6165  1.1064 -0.6165
 7262TIP3   OH245980   0.269   0.876  12.348  0.2492 -0.0763 -0.3166
 7262TIP3    H145981   0.227   0.882  12.262  0.9373 -0.2558 -0.6732
 7262TIP3    H245982   0.272   0.782  12.367 -1.2690  0.0425  0.6034
 7263TIP3   OH245983   3.362   2.352  10.014  0.8270 -0.1159  0.0192
 7263TIP3    H145984   3.288   2.369  10.072  0.4804 -0.3421 -0.3434
 7263TIP3    H245985   3.351   2.414   9.942  1.1371  0.0245  0.0928
 7264TIP3   OH245986   6.501   5.154  11.767 -0.2622  0.0320 -0.2428
 7264TIP3    H145987   6.544   5.233  11.734  0.3427 -0.0104  0.4108
 7264TIP3    H245988   6.439   5.187  11.833  0.9767 -0.1118  1.0413
 7265TIP3   OH245989   0.234   6.902  16.398  0.2463  0.4012 -0.3279
 7265TIP3    H145990   0.300   6.878  16.463 -1.2734  0.9399  1.4722
 7265TIP3    H245991   0.283   6.952  16.332  1.6677  0.6323  0.8632
 7266TIP3   OH245992   4.819   0.516  11.199  0.2570 -0.0606 -0.1390
 7266TIP3    H145993   4.776   0.601  11.188  0.8321  0.3075  0.3587
 7266TIP3    H245994   4.892   0.534  11.258  1.7571 -0.4337 -1.7920
 7267TIP3   OH245995   5.571   0.585  10.255 -0.1906  0.3771  0.1327
 7267TIP3    H145996   5.589   0.493  10.274 -1.1180 -0.1852 -1.5228
 7267TIP3    H245997   5.500   0.608  10.314 -0.4109 -0.1709  0.0886
 7268TIP3   OH245998   4.528   6.505  10.548 -0.1893 -0.0527  0.2556
 7268TIP3    H145999   4.603   6.456  10.582 -0.5200 -1.7129 -1.2720
 7268TIP3    H246000   4.466   6.507  10.621  0.1249 -1.3538  0.5873
 7269TIP3   OH246001   4.955   5.524  12.165  0.2635  0.0977  0.1770
 7269TIP3    H146002   4.991   5.574  12.238  0.2666 -1.8583  1.6094
 7269TIP3    H246003   4.875   5.485  12.200  1.7490 -3.2754  0.2127
 7270TIP3   OH246004   1.481   5.847  10.254 -0.3397  0.1782 -0.0458
 7270TIP3    H146005   1.499   5.842  10.348  1.4242  1.6298 -0.2389
 7270TIP3    H246006   1.524   5.770  10.217 -1.2247 -0.5117  0.3535
 7271TIP3   OH246007   4.988   4.194  10.012  0.1836 -0.3126 -0.1863
 7271TIP3    H146008   4.977   4.289  10.005  0.8400 -0.2908 -1.0012
 7271TIP3    H246009   4.906   4.164  10.052 -0.5088  0.4613 -0.9845
 7272TIP3   OH246010   2.393   2.493  11.912  0.0901 -0.1163  0.3434
 7272TIP3    H146011   2.318   2.485  11.971  0.4721 -0.0098  0.8400
 7272TIP3    H246012   2.459   2.540  11.962  0.2810  0.3133 -0.2943
 7273TIP3   OH246013   4.376   6.401  10.334 -0.1148 -0.2054 -0.0073
 7273TIP3    H146014   4.449   6.431  10.388  1.7232 -0.9274 -1.9310
 7273TIP3    H246015   4.354   6.315  10.370  1.1799 -0.7362 -0.4031
 7274TIP3   OH246016   6.314   3.192  10.715 -0.0503  0.0577  0.9991
 7274TIP3    H146017   6.250   3.135  10.672 -0.2690 -0.5055  2.0423
 7274TIP3    H246018   6.393   3.185  10.661 -0.1282 -1.1106  1.0158
 7275TIP3   OH246019   4.288   6.759   9.929 -0.2628 -0.2576  0.5062
 7275TIP3    H146020   4.203   6.741   9.889 -0.8906 -1.7531  2.3460
 7275TIP3    H246021   4.278   6.845   9.970 -1.6975 -1.3286  2.5568
 7276TIP3   OH246022   6.858   1.663   9.990 -0.6433  0.4140 -0.0216
 7276TIP3    H146023   6.796   1.599  10.026 -1.3809 -0.3509 -2.4495
 7276TIP3    H246024   6.944   1.625  10.008 -1.0361 -0.7862 -0.5627
 7277TIP3   OH246025   1.226   5.586  10.831 -0.4151  0.1545  0.5071
 7277TIP3    H146026   1.184   5.541  10.758 -2.0920 -1.1247  2.1840
 7277TIP3    H246027   1.157   5.596  10.896  1.1107  0.9473  2.0861
 7278TIP3   OH246028   6.333   5.297  10.867  0.3762 -0.2063  0.3619
 7278TIP3    H146029   6.337   5.206  10.836  2.1142 -0.4833  1.2660
 7278TIP3    H246030   6.290   5.344  10.796  2.8199 -1.0771 -1.8664
 7279TIP3   OH246031   6.021   6.980  10.240  0.0047  0.1762  0.0176
 7279TIP3    H146032   6.025   7.009  10.149 -0.8494 -2.6480 -1.0417
 7279TIP3    H246033   6.112   6.973  10.267  0.4949 -1.9780 -1.8015
 7280TIP3   OH246034   2.958   6.756  10.455  0.2989  0.7050  0.3015
 7280TIP3    H146035   2.875   6.709  10.457  0.3236  0.6885  1.7061
 7280TIP3    H246036   2.973   6.774  10.362  0.7821 -2.9574 -0.4726
 7281TIP3   OH246037   2.283   4.611   9.430  0.2205 -0.4776 -0.0042
 7281TIP3    H146038   2.371   4.637   9.402 -0.0998  1.7132  0.7881
 7281TIP3    H246039   2.283   4.516   9.425  2.1869 -0.4702 -1.3217
 7282TIP3   OH246040   2.232   4.456  11.987 -0.3548  0.4650 -0.1252
 7282TIP3    H146041   2.243   4.457  12.082  0.5308  0.9321 -0.2233
 7282TIP3    H246042   2.201   4.544  11.965 -1.8103 -0.0198 -0.1509
 7283TIP3   OH246043   1.006   6.069  10.003  0.0508  0.4000  0.6472
 7283TIP3    H146044   1.033   6.145   9.951  0.3320 -0.2672 -0.2058
 7283TIP3    H246045   1.085   6.043  10.050  0.2937 -0.1033 -0.0167
 7284TIP3   OH246046   0.135   3.485  10.505 -0.5596  0.0617  0.0435
 7284TIP3    H146047   0.208   3.507  10.562  0.6143 -1.2863 -0.8687
 7284TIP3    H246048   0.176   3.451  10.425 -2.1757 -0.1868 -0.7273
 7285TIP3   OH246049   1.039   4.741  10.028  0.0805 -0.0866  0.3220
 7285TIP3    H146050   1.113   4.799  10.048  0.8122 -1.2765  1.1393
 7285TIP3    H246051   1.065   4.656  10.062 -1.7935 -0.4784  0.8600
 7286TIP3   OH246052   5.779   7.170  12.057 -0.4367  0.2817  0.4531
 7286TIP3    H146053   5.851   7.106  12.054 -1.7023 -1.5001  3.5193
 7286TIP3    H246054   5.820   7.250  12.090  0.2901 -0.5308  1.6018
 7287TIP3   OH246055   6.240   5.861  11.648  0.5859 -0.0816  0.0335
 7287TIP3    H146056   6.263   5.775  11.613  2.7880  0.5952 -0.4042
 7287TIP3    H246057   6.318   5.915  11.630 -0.8217  2.0712  0.0369
 7288TIP3   OH246058   0.448   0.411  10.382  0.0387 -0.0481  0.0714
 7288TIP3    H146059   0.510   0.467  10.334  1.1146 -1.6495 -0.5023
 7288TIP3    H246060   0.362   0.448  10.362  0.7575  2.4470  1.1384
 7289TIP3   OH246061   1.990   5.783  10.526  0.3719 -0.5214  0.2881
 7289TIP3    H146062   1.989   5.855  10.463  2.0435  0.3211  1.1619
 7289TIP3    H246063   1.951   5.820  10.605  0.6999 -0.7562  0.5603
 7290TIP3   OH246064   2.386   4.219  11.686  0.1804 -0.7820  0.3013
 7290TIP3    H146065   2.298   4.199  11.717  0.0142 -1.5983 -0.6330
 7290TIP3    H246066   2.376   4.303  11.640 -0.0835 -0.8020  0.3193
 7291TIP3   OH246067   7.303   3.270  11.068  0.1521 -0.1685  0.1367
 7291TIP3    H146068   7.385   3.270  11.018  1.2110 -4.0897  1.5545
 7291TIP3    H246069   7.235   3.261  11.001  1.2314 -1.0650 -0.8972
 7292TIP3   OH246070   5.050   2.604  11.019 -0.0532  0.5366  1.4016
 7292TIP3    H146071   5.135   2.562  11.005 -0.8969 -0.8464  0.0620
 7292TIP3    H246072   5.069   2.698  11.016  1.1055  0.3166 -1.5444
 7293TIP3   OH246073   1.354   5.671   9.575  0.1453 -0.2226 -0.0439
 7293TIP3    H146074   1.440   5.631   9.562  0.9612  0.7325  2.0637
 7293TIP3    H246075   1.308   5.612   9.634 -0.1945 -0.1029 -0.1847
 7294TIP3   OH246076   3.553   4.816  11.149 -0.4422 -0.4123  0.1598
 7294TIP3    H146077   3.597   4.852  11.226  0.3528 -1.1538  0.0681
 7294TIP3    H246078   3.477   4.770  11.184 -0.5687 -0.0066  0.4199
 7295TIP3   OH246079   0.973   6.514  10.151  0.0795 -0.5419 -0.2701
 7295TIP3    H146080   0.891   6.547  10.186  0.6508 -0.0915  0.6716
 7295TIP3    H246081   1.036   6.585  10.164  0.9816 -1.4468  0.4688
 7296TIP3   OH246082   3.399   5.156  12.411 -0.9904 -0.4787 -0.4745
 7296TIP3    H146083   3.370   5.190  12.496 -2.7311 -0.2812 -1.1076
 7296TIP3    H246084   3.400   5.061  12.422 -1.0585 -0.4473 -0.1949
 7297TIP3   OH246085   4.154   4.770  12.299  0.1366  0.0008  0.0103
 7297TIP3    H146086   4.199   4.737  12.376 -0.1600 -0.0212  0.1721
 7297TIP3    H246087   4.165   4.865  12.304 -0.2831  0.0317  0.3233
 7298TIP3   OH246088   6.886   4.163  11.787  0.3560 -0.1970  0.2375
 7298TIP3    H146089   6.913   4.214  11.710 -1.9324 -0.3341 -0.7442
 7298TIP3    H246090   6.921   4.075  11.771  0.1329 -0.1527 -0.5429
 7299TIP3   OH246091   6.437   3.161  10.254 -0.6025  0.0209  0.4052
 7299TIP3    H146092   6.473   3.076  10.279  2.5406 -0.0753 -3.4514
 7299TIP3    H246093   6.372   3.141  10.186  1.7887  0.5073 -2.2433
 7300TIP3   OH246094   0.861   6.554  10.835  0.8915  0.1283 -0.1606
 7300TIP3    H146095   0.870   6.483  10.771  0.2017  0.9743 -1.2343
 7300TIP3    H246096   0.920   6.530  10.906 -0.6151 -2.4477  0.3741
 7301TIP3   OH246097   1.259   4.699  11.702  0.2216  0.2766 -0.2280
 7301TIP3    H146098   1.292   4.623  11.752 -0.0247  0.6359  0.4905
 7301TIP3    H246099   1.169   4.710  11.732 -0.0936  0.2017 -1.1200
 7302TIP3   OH246100   5.577   0.142  11.325  0.4841  0.3244 -0.2500
 7302TIP3    H146101   5.612   0.166  11.411 -0.1593  0.8699 -0.1368
 7302TIP3    H246102   5.550   0.224  11.285  1.1531  0.1209 -1.1579
 7303TIP3   OH246103   4.078   4.611  10.864  0.4620  0.5168 -0.1062
 7303TIP3    H146104   4.108   4.659  10.787 -0.8019  3.5931  1.1260
 7303TIP3    H246105   4.123   4.654  10.937  2.4287 -2.9653  0.9684
 7304TIP3   OH246106   3.963   1.375  11.626  0.1508  0.1878  0.4135
 7304TIP3    H146107   3.878   1.358  11.666  0.0116 -0.9429 -0.3374
 7304TIP3    H246108   3.989   1.460  11.662 -1.2448  0.5120  0.7321
 7305TIP3   OH246109   2.246   4.481  12.245 -0.1933 -0.3194  0.2825
 7305TIP3    H146110   2.227   4.453  12.335 -1.6687  1.6743  0.6503
 7305TIP3    H246111   2.242   4.576  12.248  1.7605 -0.1286 -1.5072
 7306TIP3   OH246112   2.175   6.352  12.370 -0.9509  0.3888 -0.4878
 7306TIP3    H146113   2.252   6.321  12.415 -0.0632  2.1679 -0.6759
 7306TIP3    H246114   2.141   6.276  12.323 -1.8193 -1.5075  2.9083
 7307TIP3   OH246115   4.577   4.190  11.246  0.0592  0.0464 -0.5175
 7307TIP3    H146116   4.527   4.268  11.221  0.3701 -0.1638 -1.8596
 7307TIP3    H246117   4.511   4.123  11.263 -0.1515 -0.4259 -2.9306
 7308TIP3   OH246118   6.194   6.888  10.819  0.4783  0.5285 -0.6648
 7308TIP3    H146119   6.182   6.876  10.913 -0.0461 -2.1924 -1.0023
 7308TIP3    H246120   6.109   6.916  10.786  0.1324 -0.3681 -0.5546
 7309TIP3   OH246121   4.140   4.043  10.144  0.2749 -0.1088  0.2175
 7309TIP3    H146122   4.110   4.073  10.231  0.3811  0.1727  0.1569
 7309TIP3    H246123   4.216   3.988  10.163 -0.7273 -1.4678  0.4354
 7310TIP3   OH246124   4.693   1.261  10.546 -0.0645 -0.1571  0.7488
 7310TIP3    H146125   4.634   1.277  10.472  1.1477  0.1176 -0.1914
 7310TIP3    H246126   4.635   1.241  10.619 -1.3828  1.3346  0.1692
 7311TIP3   OH246127   3.695   0.417  11.025  0.2999  0.2403  0.5429
 7311TIP3    H146128   3.771   0.426  11.081  1.1403 -0.9118 -0.3575
 7311TIP3    H246129   3.628   0.376  11.080  0.3088  1.3064  1.3497
 7312TIP3   OH246130   5.782   2.564  10.715 -0.0557 -0.0263  0.3723
 7312TIP3    H146131   5.767   2.500  10.645 -3.0201  0.7259  0.1645
 7312TIP3    H246132   5.760   2.648  10.675  0.7945  0.7600  1.5002
 7313TIP3   OH246133   2.179   0.759  11.170 -0.0217  0.3802  0.5081
 7313TIP3    H146134   2.166   0.667  11.192 -2.2302 -0.3229 -2.9205
 7313TIP3    H246135   2.097   0.802  11.194 -0.4590  0.6139 -1.2877
 7314TIP3   OH246136   5.752   3.384   9.943  0.0687  0.2901 -0.0169
 7314TIP3    H146137   5.822   3.378   9.878  0.1591 -0.4273  0.1414
 7314TIP3    H246138   5.746   3.296   9.981 -1.4152  0.1468 -0.5249
 7315TIP3   OH246139   3.247   5.850  10.115  0.1971  0.2879 -0.3876
 7315TIP3    H146140   3.297   5.847  10.196 -0.8881 -0.0914  0.2922
 7315TIP3    H246141   3.180   5.917  10.129  0.2582  0.5175 -1.1253
 7316TIP3   OH246142   7.127   4.615  12.316  0.0889  0.0630 -0.4152
 7316TIP3    H146143   7.040   4.602  12.278 -0.2138 -1.6163  0.7516
 7316TIP3    H246144   7.165   4.527  12.321  1.2013  0.5667  0.5950
 7317TIP3   OH246145   4.253   4.740  11.044 -0.5260 -0.0169 -0.3753
 7317TIP3    H146146   4.332   4.688  11.061 -1.4075 -1.3531 -0.2338
 7317TIP3    H246147   4.215   4.756  11.131  0.5442  2.2809 -0.2424
 7318TIP3   OH246148   3.023   4.670  11.857  0.0796  0.0694 -0.0898
 7318TIP3    H146149   2.957   4.711  11.913  0.3867  3.1023 -1.7222
 7318TIP3    H246150   2.974   4.611  11.801 -0.4795 -1.5727  2.0208
 7319TIP3   OH246151   4.130   2.372  10.159  0.3754  0.0414  0.2026
 7319TIP3    H146152   4.105   2.316  10.232  1.8857  0.7486  1.3201
 7319TIP3    H246153   4.145   2.311  10.086 -3.6426 -0.5034 -0.4189
 7320TIP3   OH246154   6.142   3.890  10.223 -0.2201  0.7514  0.3122
 7320TIP3    H146155   6.057   3.846  10.225  0.3964 -0.5104 -0.1466
 7320TIP3    H246156   6.171   3.890  10.314  0.6712 -1.7087  0.1248
 7321TIP3   OH246157   0.170   5.937  12.765 -0.1608  0.3710 -0.8021
 7321TIP3    H146158   0.229   6.011  12.753  0.0749  0.2620 -0.3446
 7321TIP3    H246159   0.203   5.893  12.844 -1.5435  0.9788  0.1584
 7322TIP3   OH246160   2.986   3.262  11.735  0.3352 -0.3046 -0.2043
 7322TIP3    H146161   2.988   3.180  11.685 -0.1011 -1.4550  1.5851
 7322TIP3    H246162   2.895   3.292  11.726  0.7806  0.6978 -1.8756
 7323TIP3   OH246163   5.821   5.735  10.934  0.0323 -0.6716  0.4601
 7323TIP3    H146164   5.726   5.740  10.933  0.0673  0.4876  0.9329
 7323TIP3    H246165   5.845   5.702  10.848 -0.7202  1.1724 -0.5142
 7324TIP3   OH246166   6.621   6.914  12.751  0.4825  0.1684  0.5350
 7324TIP3    H146167   6.564   6.962  12.691  0.2957  0.9093  1.3021
 7324TIP3    H246168   6.567   6.842  12.783  0.1369  0.5645  0.8571
 7325TIP3   OH246169   5.914   6.966  11.576 -0.2594 -0.0871 -0.4289
 7325TIP3    H146170   5.951   6.879  11.594  0.2548  0.4257  1.1669
 7325TIP3    H246171   5.859   6.984  11.652  1.6264  2.0235  0.5432
 7326TIP3   OH246172   5.999   6.491  10.518 -0.0248 -0.0631 -0.5367
 7326TIP3    H146173   6.073   6.437  10.545  0.9349  1.0747 -0.7682
 7326TIP3    H246174   6.040   6.563  10.468 -1.3322  0.3387 -1.0590
 7327TIP3   OH246175   1.191   5.991  10.502 -0.3834 -0.0849 -0.0877
 7327TIP3    H146176   1.140   5.932  10.446  0.3190 -0.3559 -0.4623
 7327TIP3    H246177   1.234   5.934  10.565 -1.3356  0.2432  0.8800
 7328TIP3   OH246178   7.220   4.647  11.259  0.3123  0.2713  0.1508
 7328TIP3    H146179   7.272   4.568  11.274 -1.4891 -0.9182  0.3383
 7328TIP3    H246180   7.261   4.688  11.182  0.1768 -1.8172 -1.1008
 7329TIP3   OH246181   2.075   2.565  10.507  0.1852  0.5085 -0.3376
 7329TIP3    H146182   2.054   2.610  10.589  0.1219  0.0541 -0.1021
 7329TIP3    H246183   2.008   2.498  10.498  0.5424  0.1607 -0.4517
 7330TIP3   OH246184   1.609   3.094  11.685 -0.1056 -0.5954  0.6676
 7330TIP3    H146185   1.604   3.139  11.769 -1.4963  0.7862 -0.0872
 7330TIP3    H246186   1.679   3.139  11.638 -0.0955 -0.5989  0.6795
 7331TIP3   OH246187   2.327   1.292  10.854  0.3580  0.1101 -0.2881
 7331TIP3    H146188   2.267   1.305  10.780 -0.6481  1.2803  0.6852
 7331TIP3    H246189   2.405   1.342  10.830  0.7928 -1.0063 -1.3397
 7332TIP3   OH246190   1.096   2.290  11.581 -0.2663  0.0638 -0.2827
 7332TIP3    H146191   1.082   2.304  11.487  0.5713  0.8768 -0.2964
 7332TIP3    H246192   1.135   2.203  11.587  0.0339  0.1647 -0.7257
 7333TIP3   OH246193   4.780   0.882   9.788  0.1014  0.3523  0.0313
 7333TIP3    H146194   4.712   0.829   9.830  1.4926  1.2404  3.7844
 7333TIP3    H246195   4.787   0.961   9.842  3.0570  0.9754 -1.0394
 7334TIP3   OH246196   4.822   2.106  12.060 -0.0972  0.3712  0.3750
 7334TIP3    H146197   4.816   2.011  12.056 -1.4204  0.4452  0.3860
 7334TIP3    H246198   4.747   2.133  12.113  0.9096  1.3531  1.3509
 7335TIP3   OH246199   5.701   6.101  11.921  0.2249 -0.4027 -0.3230
 7335TIP3    H146200   5.626   6.074  11.973  0.9994 -1.4432  0.2797
 7335TIP3    H246201   5.777   6.072  11.971  1.0326  0.4617 -1.0118
 7336TIP3   OH246202   1.321   4.126  11.338  0.0151 -0.1643  0.4084
 7336TIP3    H146203   1.235   4.168  11.350  0.2487  0.3458  0.3160
 7336TIP3    H246204   1.362   4.129  11.424  0.5414  0.9395  0.1298
 7337TIP3   OH246205   1.825   0.045  11.202 -0.3647  0.1025 -0.6103
 7337TIP3    H146206   1.789  -0.034  11.243 -1.2670  0.5072 -0.6125
 7337TIP3    H246207   1.778   0.052  11.119  1.3047 -0.6031 -1.6771
 7338TIP3   OH246208   5.046   0.163  11.573 -0.3588  0.4495  0.2484
 7338TIP3    H146209   5.062   0.164  11.479 -0.1575 -0.6889  0.2606
 7338TIP3    H246210   5.125   0.203  11.611 -0.6396  1.3323 -0.0841
 7339TIP3   OH246211   1.296   3.848  11.574  0.1189  0.1773  0.0152
 7339TIP3    H146212   1.212   3.814  11.605  1.1416 -1.2780  1.4039
 7339TIP3    H246213   1.317   3.795  11.498 -0.1815  0.4903 -0.2875
 7340TIP3   OH246214   0.046   7.176  10.074 -0.1056 -0.2720  0.0871
 7340TIP3    H146215   0.032   7.081  10.075  0.2867 -0.3722  2.3740
 7340TIP3    H246216   0.047   7.200  10.167 -1.8606  2.2369 -0.4631
 7341TIP3   OH246217   0.347   7.199  10.280 -0.4123 -0.2684 -0.8027
 7341TIP3    H146218   0.395   7.120  10.255  1.5950  0.2470  1.0969
 7341TIP3    H246219   0.262   7.167  10.309  0.4762 -1.8446  0.2584
 7342TIP3   OH246220   3.128   2.760  11.938 -0.2253 -0.2070 -0.2276
 7342TIP3    H146221   3.132   2.783  11.846 -0.6525 -0.8459 -0.4133
 7342TIP3    H246222   3.035   2.749  11.957 -0.1077 -0.6078  0.1404
 7343TIP3   OH246223   0.435   1.078  12.432 -0.1924 -1.0910  0.7448
 7343TIP3    H146224   0.490   1.000  12.440  1.6109  0.1777  1.2008
 7343TIP3    H246225   0.367   1.052  12.370  0.6166 -2.8773  0.5251
 7344TIP3   OH246226   0.024   0.358   9.607 -0.1984  0.0350 -0.0468
 7344TIP3    H146227   0.088   0.300   9.650 -0.0241  1.3502  1.5606
 7344TIP3    H246228  -0.010   0.306   9.534  2.1122 -1.0007 -0.4686
 7345TIP3   OH246229   1.858   1.517  12.443  0.4423  0.7278  0.1343
 7345TIP3    H146230   1.788   1.559  12.493  1.4289  1.0436  1.2857
 7345TIP3    H246231   1.938   1.560  12.473  1.1909  0.0184 -0.7839
 7346TIP3   OH246232   0.985   0.613  12.213 -0.6924  0.8815  1.0301
 7346TIP3    H146233   1.056   0.549  12.213 -0.6821  0.8876  0.6140
 7346TIP3    H246234   0.909   0.565  12.245 -1.0198  0.2643 -0.5712
 7347TIP3   OH246235   0.825   7.335   9.946 -0.0400  0.5672  0.2023
 7347TIP3    H146236   0.841   7.408  10.007 -1.5045  0.3711  0.8673
 7347TIP3    H246237   0.731   7.319   9.953  0.1697 -1.0366 -0.3518
 7348TIP3   OH246238   4.978   2.920  11.079 -0.3572  0.1897 -0.8558
 7348TIP3    H146239   4.981   2.912  11.174 -0.6583  0.8072 -0.7862
 7348TIP3    H246240   5.069   2.931  11.052 -0.1444 -1.1678 -0.7666
 7349TIP3   OH246241   5.076   7.358  11.308  0.2083  0.2061 -0.3676
 7349TIP3    H146242   5.136   7.432  11.318  0.4755 -0.2223  1.5267
 7349TIP3    H246243   4.990   7.399  11.295  0.2083  0.9271  1.5047
 7350TIP3   OH246244   6.938   2.494  10.032 -0.2757  0.1574  0.3495
 7350TIP3    H146245   6.860   2.472   9.982  1.0496  0.4310 -1.9932
 7350TIP3    H246246   6.934   2.590  10.042 -0.6717  0.0748  1.0333
 7351TIP3   OH246247   4.277   1.592   9.695 -0.8166 -0.0334  0.9449
 7351TIP3    H146248   4.258   1.637   9.613  0.6911 -0.7427  0.1714
 7351TIP3    H246249   4.279   1.499   9.672 -0.9180 -0.2870  1.8984
 7352TIP3   OH246250   5.449   6.277  10.930  0.7359  0.0279 -0.1904
 7352TIP3    H146251   5.427   6.185  10.913  1.4136  0.0879 -1.4595
 7352TIP3    H246252   5.500   6.304  10.854  1.5870  1.1113  0.7422
 7353TIP3   OH246253   6.355   0.091   9.911 -0.0061  0.3440 -0.0898
 7353TIP3    H146254   6.412   0.115   9.838 -0.5785 -0.7140 -0.9225
 7353TIP3    H246255   6.416   0.065   9.981  0.5492  0.3344 -0.5647
 7354TIP3   OH246256   5.201   3.807   9.793  0.4782  0.0748 -0.0468
 7354TIP3    H146257   5.170   3.800   9.884  0.9817  1.7562  0.2802
 7354TIP3    H246258   5.243   3.722   9.776 -1.9415 -1.3144  0.3537
 7355TIP3   OH246259   4.519   4.961  11.724 -0.1650 -0.7021  0.0341
 7355TIP3    H146260   4.511   4.866  11.717 -0.6345 -0.6168 -0.6789
 7355TIP3    H246261   4.462   4.995  11.654  1.5416  0.0557 -1.0533
 7356TIP3   OH246262   0.998   2.324   9.709 -0.0234  0.5569 -0.2808
 7356TIP3    H146263   0.990   2.373   9.627 -0.8635  1.0812  0.0962
 7356TIP3    H246264   1.091   2.331   9.731  0.5634 -0.9974 -2.0055
 7357TIP3   OH246265   3.126   3.433  12.303 -0.2761 -0.0215  0.3895
 7357TIP3    H146266   3.093   3.361  12.357 -2.2451  1.2644  0.9970
 7357TIP3    H246267   3.067   3.434  12.227  0.9894 -0.2878 -0.6339
 7358TIP3   OH246268   2.080   5.662  10.855 -0.1596 -0.2002  0.0193
 7358TIP3    H146269   1.995   5.648  10.814 -1.1364  0.0740  1.8488
 7358TIP3    H246270   2.123   5.577  10.849 -1.2893 -0.8420  0.6216
 7359TIP3   OH246271   1.479   3.234  12.312  0.3984  0.5824  0.0893
 7359TIP3    H146272   1.483   3.306  12.250 -1.8520  1.2475  0.6449
 7359TIP3    H246273   1.387   3.207  12.313  0.7999 -0.9472  1.4255
 7360TIP3   OH246274   4.402   1.650  10.222  0.1648 -0.1056  0.3233
 7360TIP3    H146275   4.402   1.566  10.174  2.7870 -0.0468  0.0953
 7360TIP3    H246276   4.377   1.715  10.156 -1.9133 -0.6431  0.5068
 7361TIP3   OH246277   3.612   5.978  11.553  0.6745 -0.2458 -0.2964
 7361TIP3    H146278   3.676   5.909  11.570 -0.0340 -0.9249 -0.3260
 7361TIP3    H246279   3.622   6.038  11.626 -0.0568 -1.4189  0.8059
 7362TIP3   OH246280   6.450   2.608  12.120  0.3894 -0.5042 -0.5910
 7362TIP3    H146281   6.510   2.664  12.169 -2.2284  0.5902  1.6399
 7362TIP3    H246282   6.394   2.669  12.072 -1.4879 -1.1772  0.6202
 7363TIP3   OH246283   1.501   2.546   9.721 -0.5380 -0.9372  0.7108
 7363TIP3    H146284   1.489   2.480   9.788 -0.4120 -0.0650  1.6244
 7363TIP3    H246285   1.583   2.523   9.678  0.0878 -0.7685  1.7677
 7364TIP3   OH246286   6.729   2.822   9.890  0.0619  0.3600 -0.8327
 7364TIP3    H146287   6.752   2.740   9.933  1.0423  1.5618  1.0904
 7364TIP3    H246288   6.812   2.869   9.883 -0.8791  2.4499  0.9766
 7365TIP3   OH246289   0.306   6.702  10.850  0.4873  0.0370  0.3743
 7365TIP3    H146290   0.272   6.635  10.909  0.6940  0.3957  0.9141
 7365TIP3    H246291   0.401   6.691  10.853  0.6230  1.1762  1.5134
 7366TIP3   OH246292   0.810   3.845  12.237  0.1286  0.5003 -0.3808
 7366TIP3    H146293   0.754   3.833  12.160 -1.3370  0.5062  0.6475
 7366TIP3    H246294   0.848   3.758  12.252 -0.0009  0.3675 -0.8100
 7367TIP3   OH246295   6.392   0.328  10.680  0.1871 -0.1645  0.0107
 7367TIP3    H146296   6.403   0.250  10.734 -1.4986 -1.0555 -0.8613
 7367TIP3    H246297   6.299   0.348  10.685  0.3224  0.8546 -1.0374
 7368TIP3   OH246298   3.769   1.819  10.352 -0.2469  0.3587  0.0894
 7368TIP3    H146299   3.796   1.854  10.437 -0.4530 -0.7958  0.6638
 7368TIP3    H246300   3.821   1.867  10.288  2.8692 -1.3581  1.0922
 7369TIP3   OH246301   4.465   6.344   9.864  0.0597  0.3007  0.4992
 7369TIP3    H146302   4.390   6.392   9.827 -0.2307 -0.0413  0.6365
 7369TIP3    H246303   4.445   6.252   9.847  0.9828  0.2554 -0.4475
 7370TIP3   OH246304   6.230   0.565  10.053 -0.2765 -0.2628 -0.0923
 7370TIP3    H146305   6.174   0.601  10.121  1.3611 -0.9577  1.6962
 7370TIP3    H246306   6.186   0.485  10.024 -2.0529  1.1096 -1.4630
 7371TIP3   OH246307   5.083   4.136  11.579 -0.1952  0.5880  0.3016
 7371TIP3    H146308   5.104   4.209  11.522 -3.3449 -0.2527 -2.2184
 7371TIP3    H246309   5.143   4.066  11.551  0.4695  1.1272  0.3396
 7372TIP3   OH246310   7.461   5.053  11.071  0.8924  0.0432  0.0267
 7372TIP3    H146311   7.449   5.148  11.062  1.1508 -0.0444 -1.4852
 7372TIP3    H246312   7.522   5.044  11.144  1.0875  1.0663  0.0105
 7373TIP3   OH246313   3.249   7.139  10.052 -0.5423  0.6803 -1.1066
 7373TIP3    H146314   3.275   7.055  10.090  0.5587  1.7215  0.5475
 7373TIP3    H246315   3.260   7.126   9.957  2.7409 -0.1137 -0.7411
 7374TIP3   OH246316   2.879   1.077  11.168  0.2990  0.2903  0.5710
 7374TIP3    H146317   2.851   1.119  11.087  1.3316 -0.9870 -0.4962
 7374TIP3    H246318   2.966   1.114  11.186  1.3730 -1.4970 -0.5659
 7375TIP3   OH246319   1.312   3.772  10.631  0.1338  0.0982 -0.0720
 7375TIP3    H146320   1.303   3.788  10.537 -0.2186  2.1137  0.2475
 7375TIP3    H246321   1.316   3.860  10.670 -0.9944 -0.6553  1.9064
 7376TIP3   OH246322   2.865   5.693  11.098  0.0248  0.1015 -0.4208
 7376TIP3    H146323   2.858   5.760  11.029  0.4357 -0.5684 -1.1326
 7376TIP3    H246324   2.936   5.636  11.068 -0.3316 -0.6632  0.1687
 7377TIP3   OH246325   7.250   4.066  10.246 -0.8463  0.4822 -0.5409
 7377TIP3    H146326   7.241   4.038  10.337  1.0560 -3.2936 -1.3463
 7377TIP3    H246327   7.272   4.159  10.252  1.4357 -0.1199  2.9993
 7378TIP3   OH246328   0.185   4.944  11.929 -0.2279  0.3025  0.6107
 7378TIP3    H146329   0.186   4.877  11.998  0.8380 -0.5412 -0.1804
 7378TIP3    H246330   0.266   4.992  11.941  0.0005  0.1029 -0.0839
 7379TIP3   OH246331   0.733   5.208   9.946 -0.4544 -0.1031 -0.0682
 7379TIP3    H146332   0.680   5.271   9.997  0.3317  0.5508 -0.0441
 7379TIP3    H246333   0.716   5.232   9.855 -0.1023  0.1998 -0.0575
 7380TIP3   OH246334   5.402   2.467  10.148 -0.4577 -0.3651  0.4994
 7380TIP3    H146335   5.393   2.377  10.115  1.5281 -0.4693  0.1288
 7380TIP3    H246336   5.316   2.488  10.184 -1.4786 -1.7601 -1.0174
 7381TIP3   OH246337   6.866   1.301  11.219 -0.6049 -0.6541 -0.0007
 7381TIP3    H146338   6.843   1.218  11.176 -0.3273 -1.6104  1.6176
 7381TIP3    H246339   6.961   1.298  11.228 -0.4318  0.5262 -1.2217
 7382TIP3   OH246340   3.412   0.347   9.675 -0.0271  0.2790  0.5111
 7382TIP3    H146341   3.398   0.303   9.591 -0.1391 -0.0449  0.6989
 7382TIP3    H246342   3.408   0.440   9.653  1.6575  0.2376 -0.1422
 7383TIP3   OH246343   6.881   4.563  11.102  0.1970  0.7679  0.2253
 7383TIP3    H146344   6.791   4.575  11.073  1.0559  0.0113 -3.1750
 7383TIP3    H246345   6.929   4.636  11.064  1.5066 -0.5539 -0.7629
 7384TIP3   OH246346   5.443   1.765  11.203 -0.0250 -0.1925 -0.2880
 7384TIP3    H146347   5.435   1.800  11.115 -3.1417 -0.5452 -0.2507
 7384TIP3    H246348   5.402   1.678  11.199 -0.4360 -0.1311  1.5362
 7385TIP3   OH246349   5.761   1.781  10.294  0.5600 -0.4232  0.6191
 7385TIP3    H146350   5.742   1.856  10.237 -0.6146 -1.3197 -0.2092
 7385TIP3    H246351   5.855   1.769  10.287  0.4437 -0.5791 -1.2628
 7386TIP3   OH246352   3.395   2.297  11.375 -0.2175 -0.4184  0.4828
 7386TIP3    H146353   3.474   2.350  11.365 -0.8136  0.2072 -1.4166
 7386TIP3    H246354   3.394   2.240  11.298 -1.0035 -1.2695  1.0947
 7387TIP3   OH246355   3.621   3.666  10.247  0.0059  0.1159  0.0643
 7387TIP3    H146356   3.549   3.665  10.310 -0.4398 -1.2656 -0.4130
 7387TIP3    H246357   3.675   3.741  10.272 -0.8093  0.3075  1.3327
 7388TIP3   OH246358   5.964   7.102   9.990  0.1545  0.6658 -0.0526
 7388TIP3    H146359   5.874   7.075   9.970  0.6308 -2.1211  1.0757
 7388TIP3    H246360   5.973   7.188   9.948 -1.5256 -0.9194 -4.1907
 7389TIP3   OH246361   7.094   4.728   9.588  0.6444 -0.4007  0.5784
 7389TIP3    H146362   7.094   4.663   9.517 -0.8638 -0.0564  0.2098
 7389TIP3    H246363   7.003   4.759   9.591  1.6224  3.1361 -0.6150
 7390TIP3   OH246364   4.479   5.978  10.887  0.5170  0.1227  0.0484
 7390TIP3    H146365   4.550   5.931  10.843  1.6037 -0.1646  2.0336
 7390TIP3    H246366   4.421   5.909  10.919  1.0645  0.1924  1.2311
 7391TIP3   OH246367   5.272   3.316  10.858 -0.5398 -0.2152 -0.8746
 7391TIP3    H146368   5.289   3.355  10.772 -0.2154 -1.3454 -1.3406
 7391TIP3    H246369   5.230   3.232  10.839 -0.8645 -0.2926  0.0952
 7392TIP3   OH246370   7.273   5.337  10.589  0.1340 -0.6822 -0.0702
 7392TIP3    H146371   7.351   5.285  10.570  2.3079  1.7359  1.5574
 7392TIP3    H246372   7.223   5.283  10.650  1.1266 -1.8175 -0.2219
 7393TIP3   OH246373   1.904   4.057  11.735  0.2547  0.6732  0.1571
 7393TIP3    H146374   1.971   4.041  11.801  2.0855  0.0629 -1.7394
 7393TIP3    H246375   1.939   4.016  11.656 -0.4096  3.9387 -2.0023
 7394TIP3   OH246376   6.982   2.964  10.160 -0.0107 -0.1396 -0.7482
 7394TIP3    H146377   7.076   2.954  10.177 -0.3473  1.3416  2.8536
 7394TIP3    H246378   6.951   2.874  10.146  1.2062 -1.3879  3.2432
 7395TIP3   OH246379   4.472   1.665  10.893  0.3642  0.3685 -0.1569
 7395TIP3    H146380   4.441   1.632  10.809 -0.1432  0.5692 -0.0524
 7395TIP3    H246381   4.561   1.695  10.875 -0.5768  2.7578 -1.2660
 7396TIP3   OH246382   2.097   3.715  10.926 -0.5168  0.1503  0.7142
 7396TIP3    H146383   2.167   3.772  10.957 -0.5000  0.1420  0.6909
 7396TIP3    H246384   2.022   3.737  10.981 -0.7473  0.7824  0.1636
 7397TIP3   OH246385   5.253   6.143   9.993 -0.4175  0.0504 -0.1762
 7397TIP3    H146386   5.282   6.140   9.901  0.0442  0.0926 -0.0360
 7397TIP3    H246387   5.333   6.129  10.043 -0.5172  0.9244  0.2390
 7398TIP3   OH246388   7.460   4.194  11.294  0.3641 -0.2326  0.0614
 7398TIP3    H146389   7.495   4.245  11.367  0.7596  0.6438 -0.7143
 7398TIP3    H246390   7.390   4.142  11.332  0.9175 -0.2004  1.1703
 7399TIP3   OH246391   5.017   0.576  10.510  0.3114 -0.1381  0.0962
 7399TIP3    H146392   5.108   0.556  10.534  0.7766  0.9773 -0.6525
 7399TIP3    H246393   4.993   0.649  10.567 -0.5620 -1.2080  1.1515
 7400TIP3   OH246394   0.316   3.566  10.053 -0.2601 -0.2378 -0.1746
 7400TIP3    H146395   0.324   3.518   9.970 -0.0277  0.2855 -0.4658
 7400TIP3    H246396   0.293   3.655  10.026  0.8229  0.1919  0.2598
 7401TIP3   OH246397   2.419   1.758  11.678  0.1066  0.2924  0.2691
 7401TIP3    H146398   2.454   1.680  11.721  0.7136  0.6329  0.4094
 7401TIP3    H246399   2.363   1.724  11.609  0.7045 -0.2771  0.0534
 7402TIP3   OH246400   7.321   1.554  10.252 -0.4026  0.2071 -0.0638
 7402TIP3    H146401   7.316   1.628  10.313 -0.2801  0.2164 -0.0647
 7402TIP3    H246402   7.295   1.591  10.168 -0.2984  0.2592 -0.0730
 7403TIP3   OH246403   6.341   4.698  11.791 -0.3357  0.3855 -0.2732
 7403TIP3    H146404   6.290   4.760  11.739  0.2558  0.7927 -0.3682
 7403TIP3    H246405   6.419   4.746  11.817  1.5649 -1.1583 -2.7356
 7404TIP3   OH246406   7.287   6.073  12.125  0.1604  0.4084 -0.2156
 7404TIP3    H146407   7.300   6.098  12.217 -0.3285 -1.0590  0.2839
 7404TIP3    H246408   7.218   6.006  12.128 -1.1316  1.5956 -1.8422
 7405TIP3   OH246409   7.065   4.687  10.597 -0.4577  0.5251 -0.1537
 7405TIP3    H146410   7.006   4.707  10.669 -0.3550  0.1916  0.0261
 7405TIP3    H246411   7.096   4.772  10.566  0.7824  0.6329  1.2613
 7406TIP3   OH246412   5.471   5.404  11.235  0.0588  0.4644  0.8691
 7406TIP3    H146413   5.396   5.456  11.265 -0.0312  1.0896 -0.3673
 7406TIP3    H246414   5.498   5.354  11.312  1.0368  3.3511  2.5623
 7407TIP3   OH246415   4.530   6.608   9.989 -0.0821 -0.3139  0.2939
 7407TIP3    H146416   4.447   6.655   9.986 -0.1453 -0.3720  0.9874
 7407TIP3    H246417   4.515   6.529   9.937 -0.2861 -0.0589 -0.0381
 7408TIP3   OH246418   4.344   2.402   9.713 -0.1643  0.5231 -0.2238
 7408TIP3    H146419   4.324   2.496   9.718  1.9400  0.9748  1.7950
 7408TIP3    H246420   4.403   2.394   9.639  1.2442  1.2112  0.7699
 7409TIP3   OH246421   7.411   0.694   9.884  0.4980 -0.6765 -0.3122
 7409TIP3    H146422   7.411   0.671   9.977 -1.1042 -0.4768 -0.2389
 7409TIP3    H246423   7.501   0.723   9.867  0.5412  0.4006  1.4634
 7410TIP3   OH246424   3.838   2.680  11.836  0.3781  0.9676  0.3895
 7410TIP3    H146425   3.902   2.610  11.825 -0.2596  0.3985  0.2334
 7410TIP3    H246426   3.817   2.679  11.930 -0.6880 -0.0094  0.1550
 7411TIP3   OH246427   5.346   4.612  10.081 -0.7088  0.0961 -0.0886
 7411TIP3    H146428   5.352   4.612  10.177 -1.2917  2.2165  0.0042
 7411TIP3    H246429   5.253   4.598  10.063 -0.7829  0.8144 -0.2912
 7412TIP3   OH246430   2.285   5.879   9.366  0.9969  0.2791 -0.3272
 7412TIP3    H146431   2.203   5.901   9.408  0.9004 -1.1740  0.3172
 7412TIP3    H246432   2.352   5.923   9.418  0.7097  0.5697 -0.2040
 7413TIP3   OH246433   5.780   3.112  10.553  0.1385 -0.5572  0.8204
 7413TIP3    H146434   5.865   3.142  10.522  0.4099 -1.2198  0.9123
 7413TIP3    H246435   5.752   3.179  10.616  0.0821  0.2309 -0.0113
 7414TIP3   OH246436   6.094   1.225  10.792 -0.2454 -0.2507 -0.3042
 7414TIP3    H146437   6.174   1.188  10.828 -1.0707 -0.7853  1.0916
 7414TIP3    H246438   6.120   1.309  10.755  0.4365  1.2359  3.2061
 7415TIP3   OH246439   0.480   6.266   9.435 -0.2021  0.3522 -0.0337
 7415TIP3    H146440   0.415   6.205   9.468  0.9188 -0.4055  0.8432
 7415TIP3    H246441   0.502   6.232   9.348 -1.7227  1.2365 -0.8146
 7416TIP3   OH246442   0.580   7.463  11.007 -0.1227 -0.5333 -0.1031
 7416TIP3    H146443   0.571   7.509  10.923  0.1571  0.5642  0.4410
 7416TIP3    H246444   0.503   7.406  11.012 -0.9218  0.4800 -0.4631
 7417TIP3   OH246445   7.233   1.666  11.282  0.0291  0.0158  0.1211
 7417TIP3    H146446   7.201   1.590  11.233 -0.0829 -0.0915  0.3593
 7417TIP3    H246447   7.171   1.735  11.262  0.8598  0.4255 -1.1506
 7418TIP3   OH246448   4.892   1.057  10.534 -0.4414 -0.6791 -0.2503
 7418TIP3    H146449   4.811   1.105  10.519  1.6060  3.6882  0.9130
 7418TIP3    H246450   4.941   1.065  10.452  0.4813  0.6742  0.3817
 7419TIP3   OH246451   7.446   4.850  10.098  0.7268 -0.0124 -0.5917
 7419TIP3    H146452   7.457   4.930  10.046  1.8969 -0.8841 -1.7862
 7419TIP3    H246453   7.360   4.817  10.073  1.2276 -0.3628 -1.9587
 7420TIP3   OH246454   6.744   5.728  12.607  0.3883 -0.2292  0.1869
 7420TIP3    H146455   6.711   5.640  12.626  1.5510 -0.5492  0.8616
 7420TIP3    H246456   6.818   5.739  12.667  0.7252  0.9225 -0.4089
 7421TIP3   OH246457   6.532   3.411  12.301 -0.1469 -0.0043 -0.2346
 7421TIP3    H146458   6.449   3.380  12.266 -0.3314  0.1710  0.0460
 7421TIP3    H246459   6.528   3.506  12.292  0.3771 -0.0452 -1.0027
 7422TIP3   OH246460   3.851   1.005  12.213  0.2946  0.4079  0.9923
 7422TIP3    H146461   3.901   1.042  12.140  0.8185 -1.7255  0.1939
 7422TIP3    H246462   3.917   0.972  12.274 -0.1389  0.1600  1.3372
 7423TIP3   OH246463   2.273   4.455  11.272  0.6887 -0.0350  0.0530
 7423TIP3    H146464   2.264   4.550  11.285  0.3075 -0.2387  1.3324
 7423TIP3    H246465   2.215   4.436  11.197  2.6029  1.0838 -1.8304
 7424TIP3   OH246466   5.349   0.368  10.389  0.1832  0.1490  0.3665
 7424TIP3    H146467   5.332   0.457  10.361 -1.4626 -0.0540  0.5996
 7424TIP3    H246468   5.401   0.377  10.469  0.2599  0.8836  0.2386
 7425TIP3   OH246469   0.928   5.387  10.125 -0.5863  0.0305 -0.2319
 7425TIP3    H146470   0.972   5.302  10.116  0.0717  0.1017  1.8804
 7425TIP3    H246471   0.946   5.432  10.043  0.6582 -1.1546 -0.6438
 7426TIP3   OH246472   4.941   3.972   9.807  0.3887  0.3758  0.4454
 7426TIP3    H146473   4.983   4.052   9.838  1.1333  0.4383 -0.6548
 7426TIP3    H246474   5.011   3.907   9.806 -0.3996 -0.5596  2.1810
 7427TIP3   OH246475   1.081   2.472  11.000 -0.0361 -0.0225  0.2185
 7427TIP3    H146476   1.105   2.564  10.991 -0.8543  0.0606 -1.8726
 7427TIP3    H246477   1.157   2.430  11.040  0.3711  1.5291  1.1354
 7428TIP3   OH246478   7.062   1.108  12.511  0.5662 -0.4801  0.0850
 7428TIP3    H146479   6.982   1.060  12.535 -0.2202  1.4467  1.5762
 7428TIP3    H246480   7.133   1.053  12.545 -0.2220 -1.1943  0.6415
 7429TIP3   OH246481   0.766   6.937  10.653 -0.4614 -0.1490  0.4708
 7429TIP3    H146482   0.811   6.966  10.574  2.2478  1.8915  2.5773
 7429TIP3    H246483   0.726   7.016  10.689  2.6729  0.2380  3.6444
 7430TIP3   OH246484   4.002   3.627  10.962 -0.3078 -0.2976  0.0472
 7430TIP3    H146485   3.911   3.657  10.962 -0.3721 -0.4001 -1.4618
 7430TIP3    H246486   3.999   3.538  10.928  0.2512 -0.7611  1.1565
 7431TIP3   OH246487   4.516   3.084  10.786  0.2150 -0.4219  0.1451
 7431TIP3    H146488   4.538   3.136  10.709  0.7575  0.0232  0.5896
 7431TIP3    H246489   4.600   3.054  10.819  0.1885  0.9610  1.6383
 7432TIP3   OH246490   2.659   4.062  11.403  0.8065  0.2507 -0.6431
 7432TIP3    H146491   2.747   4.085  11.434  0.5007  1.0015 -0.2996
 7432TIP3    H246492   2.613   4.146  11.397 -1.2090 -0.3487  3.2826
 7433TIP3   OH246493   4.166   6.492  10.513  0.0452  0.2550 -0.6062
 7433TIP3    H146494   4.221   6.482  10.590 -0.4606 -0.4140 -0.3233
 7433TIP3    H246495   4.169   6.407  10.469 -3.4601 -1.0640  1.2724
 7434TIP3   OH246496   6.479   4.881  11.491  0.1610  0.3531 -0.0183
 7434TIP3    H146497   6.550   4.902  11.552 -0.4946  0.2085  0.8207
 7434TIP3    H246498   6.399   4.895  11.542 -0.3786 -0.7851 -0.5060
 7435TIP3   OH246499   6.975   7.212  10.109  0.1652 -0.3270 -0.2208
 7435TIP3    H146500   7.006   7.301  10.092  1.0578 -0.3681  1.0118
 7435TIP3    H246501   6.896   7.204  10.057  0.5229  0.8983 -1.0052
 7436TIP3   OH246502   5.066   3.274  10.497 -0.0273 -0.0647  0.8266
 7436TIP3    H146503   5.072   3.206  10.564  1.0331 -0.3018  0.5059
 7436TIP3    H246504   5.047   3.225  10.416  0.4911  0.0384  0.6398
 7437TIP3   OH246505   5.310   2.901  10.945 -0.2093  0.2265 -0.5548
 7437TIP3    H146506   5.389   2.852  10.919  0.0476  0.6010 -0.4837
 7437TIP3    H246507   5.283   2.861  11.028 -0.3994 -0.2479 -0.8409
 7438TIP3   OH246508   4.625   2.467  10.942 -0.7018 -0.5319  0.8753
 7438TIP3    H146509   4.595   2.385  10.901  1.4278 -0.9653  0.0261
 7438TIP3    H246510   4.580   2.536  10.894  1.3504 -1.0488 -2.1168
 7439TIP3   OH246511   4.123   2.383  10.958 -0.0277 -0.3991 -0.8065
 7439TIP3    H146512   4.064   2.448  10.922 -0.4602 -0.5874 -0.4555
 7439TIP3    H246513   4.197   2.380  10.898  0.6952  1.4572 -0.0767
 7440TIP3   OH246514   0.867   0.987  10.350  0.2884  0.6829  0.8559
 7440TIP3    H146515   0.797   0.939  10.394  0.9089 -0.1390  0.9506
 7440TIP3    H246516   0.902   0.926  10.286 -0.2362  1.6743 -0.4395
 7441TIP3   OH246517   1.894   2.314  12.144 -0.1100  0.1445  0.6577
 7441TIP3    H146518   1.808   2.275  12.162  0.4412 -0.6116  1.8147
 7441TIP3    H246519   1.956   2.257  12.191  1.0539  0.5080 -0.3904
 7442TIP3   OH246520   2.979   1.391  12.245 -0.6944 -0.9204 -0.3112
 7442TIP3    H146521   2.905   1.399  12.185 -1.9840 -0.8081  1.2363
 7442TIP3    H246522   2.940   1.394  12.332  1.3968  2.9074  0.7242
 7443TIP3   OH246523   4.979   3.638  11.651  0.2783 -0.6027 -0.3290
 7443TIP3    H146524   4.969   3.704  11.719  0.4219 -0.3865 -0.5142
 7443TIP3    H246525   5.034   3.570  11.690 -1.2244 -1.4325  0.4349
 7444TIP3   OH246526   4.468   6.990  11.214 -0.0494 -0.0966 -0.4782
 7444TIP3    H146527   4.476   7.085  11.218  2.3060 -0.2108 -0.8512
 7444TIP3    H246528   4.446   6.964  11.303  3.6419  0.5817  0.7861
 7445TIP3   OH246529   4.582   3.264   9.831  0.3456 -0.5134  0.1549
 7445TIP3    H146530   4.597   3.182   9.878 -0.0978 -0.6068  0.1286
 7445TIP3    H246531   4.507   3.304   9.874  0.0672 -0.4980 -0.3429
 7446TIP3   OH246532   0.298   1.276  12.600 -0.4497  0.0616 -0.1691
 7446TIP3    H146533   0.339   1.362  12.589 -0.3996  0.1692  0.7619
 7446TIP3    H246534   0.355   1.216  12.551  0.3877  0.3296  0.4611
 7447TIP3   OH246535   6.353   5.201  10.010 -0.6274 -0.5127 -0.0510
 7447TIP3    H146536   6.360   5.277   9.952 -1.3124  0.9682  1.6801
 7447TIP3    H246537   6.265   5.208  10.048 -0.7615 -2.2722  0.0505
 7448TIP3   OH246538   0.845   6.227  10.987  0.6034 -0.6438  0.7207
 7448TIP3    H146539   0.818   6.251  11.076 -0.0009  0.3268  0.2848
 7448TIP3    H246540   0.770   6.179  10.951  1.4247 -2.3964  1.2375
 7449TIP3   OH246541   7.184   2.569  12.232  0.1584 -0.3038  0.1559
 7449TIP3    H146542   7.249   2.543  12.298 -0.7242 -1.1308  0.7352
 7449TIP3    H246543   7.174   2.664  12.245  2.1498  0.0831 -0.8044
 7450TIP3   OH246544   3.065   3.428   9.849 -0.0190 -0.4681  0.3535
 7450TIP3    H146545   3.129   3.398   9.914  1.5342 -1.4342 -1.5246
 7450TIP3    H246546   3.035   3.348   9.806 -0.0094  0.2344 -1.0046
 7451TIP3   OH246547   5.888   6.858   9.814 -0.2839  0.0899 -0.2661
 7451TIP3    H146548   5.817   6.921   9.804  0.6864  0.9734 -1.9912
 7451TIP3    H246549   5.854   6.778   9.774 -0.9930 -0.1061  0.6714
 7452TIP3   OH246550   3.536   4.475  11.523 -0.3166 -0.0646  0.0877
 7452TIP3    H146551   3.595   4.401  11.537 -0.3858 -0.2553 -0.5885
 7452TIP3    H246552   3.539   4.490  11.428  0.9604  1.8322  0.3689
 7453TIP3   OH246553   7.049   4.780   9.868  0.0581  0.0444 -0.4700
 7453TIP3    H146554   7.052   4.746   9.779 -0.1779 -0.3297 -0.3373
 7453TIP3    H246555   6.981   4.728   9.911 -1.7441  1.9474 -0.8118
 7454TIP3   OH246556   6.842   5.370  11.520  0.0158 -0.1678  0.7238
 7454TIP3    H146557   6.766   5.316  11.497 -1.2166  1.5792  0.4162
 7454TIP3    H246558   6.846   5.367  11.616 -0.3946 -0.3487  0.7371
 7455TIP3   OH246559   3.433   3.833  11.498 -0.2738  0.2160  0.4167
 7455TIP3    H146560   3.340   3.852  11.508 -0.2535 -0.6731  3.0960
 7455TIP3    H246561   3.442   3.741  11.521  1.1074 -0.1336 -1.2685
 7456TIP3   OH246562   7.360   2.177  12.116  0.2167  0.1541 -0.2158
 7456TIP3    H146563   7.430   2.113  12.101  0.4405  0.4735 -0.5455
 7456TIP3    H246564   7.399   2.241  12.175 -0.8323 -1.4065  2.3761
 7457TIP3   OH246565   1.601   5.902  10.504  0.0600  0.6419 -0.0266
 7457TIP3    H146566   1.579   5.812  10.529 -1.1230  0.8782 -0.1211
 7457TIP3    H246567   1.685   5.919  10.546  0.6181 -0.7148 -0.5393
 7458TIP3   OH246568   0.376   4.201  10.378  0.4078  0.3171  0.4625
 7458TIP3    H146569   0.281   4.192  10.383  0.4314 -0.4729 -0.1738
 7458TIP3    H246570   0.392   4.294  10.388 -0.4981  0.5558 -0.1632
 7459TIP3   OH246571   7.113   6.539  10.741 -0.3679  0.1206  0.0745
 7459TIP3    H146572   7.171   6.500  10.676  0.4267  1.9758 -0.3992
 7459TIP3    H246573   7.025   6.533  10.703  0.0612  0.9596 -1.0819
 7460TIP3   OH246574   5.430   6.405  10.202 -0.4309  0.6606 -0.3641
 7460TIP3    H146575   5.361   6.423  10.138  0.0088 -1.7868 -1.6578
 7460TIP3    H246576   5.511   6.409  10.151  0.3394  2.3783  0.8988
 7461TIP3   OH246577   5.872   1.593  11.601  0.4964 -0.1221 -0.2191
 7461TIP3    H146578   5.885   1.501  11.576  0.3742 -0.8602  2.1380
 7461TIP3    H246579   5.959   1.621  11.631  0.3814  0.3167 -0.2950
 7462TIP3   OH246580   6.105   7.261  11.132  0.7280 -0.3062 -0.3521
 7462TIP3    H146581   6.058   7.201  11.190 -2.2647 -2.1030 -4.1515
 7462TIP3    H246582   6.052   7.341  11.133  2.5023  0.9527  1.6582
 7463TIP3   OH246583   5.810   0.768  11.335  0.3047 -0.5027  0.1028
 7463TIP3    H146584   5.880   0.822  11.373  1.0443  0.5600 -2.5502
 7463TIP3    H246585   5.848   0.680  11.331  0.8207 -0.2977  0.3505
 7464TIP3   OH246586   5.032   5.792  10.523 -0.3043 -0.4837  0.0999
 7464TIP3    H146587   5.063   5.705  10.549  0.7380 -0.2774 -0.3931
 7464TIP3    H246588   4.970   5.776  10.452 -0.4083 -0.8413  0.2695
 7465TIP3   OH246589   2.649   1.661  10.243  0.1934  0.2602 -0.1690
 7465TIP3    H146590   2.653   1.630  10.153  0.7891  0.4585 -0.2147
 7465TIP3    H246591   2.698   1.596  10.293  0.7173  0.6754 -0.1399
 7466TIP3   OH246592   1.840   5.035  11.817 -0.5052 -0.2611  0.0639
 7466TIP3    H146593   1.815   4.976  11.746 -3.2046  0.6422  0.1561
 7466TIP3    H246594   1.783   5.111  11.807  0.7776  1.0111  1.7486
 7467TIP3   OH246595   1.648   4.326  10.251 -0.0112  0.1728  0.1814
 7467TIP3    H146596   1.704   4.362  10.321  0.4236 -0.5486  0.2115
 7467TIP3    H246597   1.606   4.403  10.212 -0.6052  0.5744  1.5196
 7468TIP3   OH246598   1.635   2.022  11.152  0.7605  0.1877 -0.6622
 7468TIP3    H146599   1.651   2.082  11.079  1.8113 -2.3670 -2.7190
 7468TIP3    H246600   1.722   2.010  11.192  0.0021  2.5741  2.0386
 7469TIP3   OH246601   6.527   1.209  11.043  0.2349  0.2290  0.3009
 7469TIP3    H146602   6.588   1.260  10.989 -1.8731  1.1319 -1.4056
 7469TIP3    H246603   6.545   1.236  11.133  0.9946  1.9557 -0.3325
 7470TIP3   OH246604   1.195   7.221  11.521  0.5370 -0.1178 -0.0276
 7470TIP3    H146605   1.151   7.224  11.605  0.1545  0.4768 -0.2414
 7470TIP3    H246606   1.229   7.310  11.508 -2.2660  0.8005 -1.9974
 7471TIP3   OH246607   2.737   7.034  11.634  0.1475 -0.1091  0.0100
 7471TIP3    H146608   2.679   7.050  11.709 -0.2345 -1.1453 -0.0527
 7471TIP3    H246609   2.778   6.950  11.653  2.4931  1.0906  0.5665
 7472TIP3   OH246610   6.329   0.579  11.438  0.2823 -0.1897  0.3778
 7472TIP3    H146611   6.273   0.648  11.475  0.5628  0.5393 -0.5382
 7472TIP3    H246612   6.340   0.603  11.346  1.8701 -0.4718  0.4644
 7473TIP3   OH246613   1.578   2.701  11.152  0.2560 -0.5183 -0.2633
 7473TIP3    H146614   1.663   2.680  11.114  0.0354  0.6239 -1.4477
 7473TIP3    H246615   1.580   2.795  11.166 -0.5055 -0.6041  0.5075
 7474TIP3   OH246616   3.383   4.574  10.323  0.2035 -0.4063  0.2588
 7474TIP3    H146617   3.362   4.643  10.386  0.0354 -0.1844 -0.0378
 7474TIP3    H246618   3.406   4.498  10.377  1.9303  0.3158  0.6166
 7475TIP3   OH246619   1.831   0.970  10.370  0.9618  0.3822 -0.3208
 7475TIP3    H146620   1.747   0.972  10.415  1.7254 -0.8839  1.2706
 7475TIP3    H246621   1.867   1.058  10.381  0.7624  0.3275  0.8665
 7476TIP3   OH246622   3.844   5.213  10.857  0.4491  0.0211 -0.1574
 7476TIP3    H146623   3.928   5.219  10.811  0.5745 -1.2755 -0.1552
 7476TIP3    H246624   3.838   5.120  10.882 -1.1904 -0.0018 -0.5552
 7477TIP3   OH246625   2.195   3.920  10.373 -0.3277 -0.5950  0.1151
 7477TIP3    H146626   2.110   3.955  10.350  0.4134  1.7230  0.6839
 7477TIP3    H246627   2.239   3.908  10.289 -0.7658 -0.6083 -0.1142
 7478TIP3   OH246628   3.306   4.729  11.194 -0.2521  0.2159 -0.1108
 7478TIP3    H146629   3.232   4.706  11.250  0.2068 -0.9003  0.0467
 7478TIP3    H246630   3.267   4.780  11.123 -0.8120  1.8637  1.3090
 7479TIP3   OH246631   5.548   6.771  16.093 -0.0265 -0.4248 -0.2417
 7479TIP3    H146632   5.638   6.762  16.061 -0.5568 -0.6833 -1.7853
 7479TIP3    H246633   5.495   6.737  16.021 -1.3484 -0.5497  0.7668
 7480TIP3   OH246634   2.134   2.642   9.873 -0.4224  0.3042  0.6360
 7480TIP3    H146635   2.043   2.665   9.887 -0.9520 -2.5699  2.7734
 7480TIP3    H246636   2.131   2.562   9.820  0.7942 -0.1966  1.2811
 7481TIP3   OH246637   1.439   2.294   9.923  0.3706 -0.8085 -0.5292
 7481TIP3    H146638   1.525   2.251   9.918  0.7738  0.0473 -1.3063
 7481TIP3    H246639   1.423   2.305  10.017  1.2539 -0.7221 -0.3797
 7482TIP3   OH246640   1.436   0.668  12.291 -0.8236  0.5293 -0.8684
 7482TIP3    H146641   1.457   0.574  12.299 -1.7872  0.4183  0.6398
 7482TIP3    H246642   1.442   0.701  12.380 -1.3256  1.7385 -1.2711
 7483TIP3   OH246643   2.159   1.341  10.624 -0.2531  0.5972 -0.2532
 7483TIP3    H146644   2.075   1.298  10.611  0.1234 -0.5108  0.7698
 7483TIP3    H246645   2.205   1.330  10.540 -0.1623 -1.0690 -0.0157
 7484TIP3   OH246646   5.973   2.958  11.151  0.5077 -0.2318  0.0835
 7484TIP3    H146647   5.890   2.999  11.175  1.3320  1.2912  0.4663
 7484TIP3    H246648   5.954   2.864  11.152 -1.6060  0.0927 -1.3749
 7485TIP3   OH246649   2.785   6.878  10.627 -0.0749 -0.2293 -0.0486
 7485TIP3    H146650   2.857   6.869  10.564 -0.5910 -0.5708 -0.6053
 7485TIP3    H246651   2.824   6.855  10.711  0.5121 -0.2397 -0.3163
 7486TIP3   OH246652   6.825   4.826   9.598 -0.0381 -0.6810  0.1143
 7486TIP3    H146653   6.865   4.870   9.672  1.0430 -1.7063  0.1865
 7486TIP3    H246654   6.788   4.896   9.544 -0.2513  0.1160  1.2726
 7487TIP3   OH246655   2.800   2.645  10.927 -0.0741  0.0191  0.3995
 7487TIP3    H146656   2.742   2.620  10.854  0.4304  1.6194 -0.5970
 7487TIP3    H246657   2.865   2.575  10.930  0.4999  0.4162 -1.3996
 7488TIP3   OH246658   0.047   4.488   9.454  0.6412  0.3450 -0.7793
 7488TIP3    H146659  -0.026   4.436   9.487  1.6069  0.0627  1.0048
 7488TIP3    H246660   0.121   4.428   9.453  1.6927  1.5364  0.9379
 7489TIP3   OH246661   7.084   5.754  11.532 -0.2090 -0.2596 -0.1304
 7489TIP3    H146662   7.080   5.768  11.627  0.2247  0.7048 -0.2373
 7489TIP3    H246663   7.040   5.671  11.518  0.0964 -0.6254  0.9670
 7490TIP3   OH246664   7.386   5.163  11.454 -0.1051  0.1295  0.4193
 7490TIP3    H146665   7.405   5.203  11.539 -0.4064  0.7573  0.1989
 7490TIP3    H246666   7.440   5.084  11.452  0.2322  0.3356  1.0140
 7491TIP3   OH246667   6.071   5.113  10.768  0.1836  0.1787 -0.4314
 7491TIP3    H146668   6.025   5.178  10.822  0.3007 -0.0366 -0.0693
 7491TIP3    H246669   6.096   5.044  10.830  2.4852  1.0495 -0.2885
 7492TIP3   OH246670   4.706   1.665  11.118  0.3074  0.4511  0.2854
 7492TIP3    H146671   4.712   1.691  11.026  3.7425  0.2089  0.3046
 7492TIP3    H246672   4.711   1.747  11.167  0.7240  0.4437  0.2587
 7493TIP3   OH246673   7.171   1.994  10.898  0.1620 -0.2973 -0.0095
 7493TIP3    H146674   7.231   2.025  10.965 -0.4837 -0.1377  0.5058
 7493TIP3    H246675   7.161   2.069  10.839 -0.6430  0.1811  0.7046
 7494TIP3   OH246676   1.044   0.136  12.114 -0.3824 -0.1594  0.1079
 7494TIP3    H146677   1.124   0.184  12.132  0.4961 -1.1883 -0.9456
 7494TIP3    H246678   1.026   0.087  12.195  0.7077 -0.8148 -0.0320
 7495TIP3   OH246679   1.727   2.766  10.823  0.1727 -0.0787 -0.3205
 7495TIP3    H146680   1.793   2.833  10.839  0.5935 -0.6972  0.5794
 7495TIP3    H246681   1.686   2.751  10.908  0.4158 -1.2906 -0.3977
 7496TIP3   OH246682   4.168   1.368  10.684  0.1910 -0.2178 -0.2513
 7496TIP3    H146683   4.135   1.286  10.647  0.5587 -0.5767  0.2036
 7496TIP3    H246684   4.176   1.427  10.609  1.2831 -1.0439 -0.8023
 7497TIP3   OH246685   7.422   3.365  11.631 -0.6207 -0.5804 -0.0374
 7497TIP3    H146686   7.390   3.340  11.545 -0.1584 -0.7235 -0.1662
 7497TIP3    H246687   7.351   3.418  11.668 -1.1744 -1.2121 -0.1687
 7498TIP3   OH246688   3.585   4.097  11.778  0.4863  0.2329  0.4169
 7498TIP3    H146689   3.607   4.023  11.835  0.7155 -1.0217 -1.2217
 7498TIP3    H246690   3.494   4.080  11.752  0.9502 -0.2081 -0.9975
 7499TIP3   OH246691   2.002   2.436  10.854  0.6416 -0.1994  0.1184
 7499TIP3    H146692   2.086   2.411  10.816  0.1667 -2.3407  0.3330
 7499TIP3    H246693   2.012   2.420  10.948 -0.5433 -2.3904 -0.0613
 7500TIP3   OH246694   0.443   7.077  11.173  0.2425 -0.4795 -0.2907
 7500TIP3    H146695   0.411   7.166  11.156  0.3335  0.0952  2.1652
 7500TIP3    H246696   0.398   7.023  11.108  0.1734  1.3305 -1.8516
 7501TIP3   OH246697   2.918   1.226   9.980  0.2931 -0.5831  0.3021
 7501TIP3    H146698   3.000   1.246   9.934  0.9341 -2.9358  0.2838
 7501TIP3    H246699   2.872   1.166   9.922 -1.3512  0.4991  0.4480
 7502TIP3   OH246700   2.841   3.205  10.566 -0.6863  0.2147  0.3274
 7502TIP3    H146701   2.855   3.285  10.617  0.7129  1.0570 -1.2724
 7502TIP3    H246702   2.929   3.177  10.541 -1.0804 -2.2805  1.4267
 7503TIP3   OH246703   3.999   3.593   9.751 -0.2655 -0.1846 -0.6441
 7503TIP3    H146704   4.087   3.627   9.764 -0.5212 -0.4698  2.4983
 7503TIP3    H246705   3.941   3.661   9.784 -1.0938 -1.0716 -0.2177
 7504TIP3   OH246706   0.634   5.273   9.700 -0.6576  0.2602  0.0510
 7504TIP3    H146707   0.580   5.195   9.713  0.6687 -0.5757  0.8152
 7504TIP3    H246708   0.645   5.280   9.605  0.7667 -1.6411  0.0127
 7505TIP3   OH246709   0.807   4.123  10.707 -0.1505 -0.5080 -0.0098
 7505TIP3    H146710   0.775   4.213  10.712 -0.1364 -0.4299 -1.0978
 7505TIP3    H246711   0.731   4.069  10.727 -1.0242 -0.3220 -2.5674
 7506TIP3   OH246712   2.888   5.348  10.021 -0.0354  0.3405 -0.4313
 7506TIP3    H146713   2.896   5.427   9.967 -0.8456  0.9916  0.3630
 7506TIP3    H246714   2.848   5.283   9.963  1.2533  0.2828 -1.2891
 7507TIP3   OH246715   5.369   5.259  10.288 -0.0656  0.6544  0.6040
 7507TIP3    H146716   5.305   5.328  10.273 -1.6081 -0.8471 -0.1692
 7507TIP3    H246717   5.329   5.204  10.356  0.9960  0.3563  1.0073
 7508TIP3   OH246718   4.131   4.660  11.298 -0.2068  0.2226  0.1499
 7508TIP3    H146719   4.118   4.579  11.248 -0.7202  0.6422 -0.4053
 7508TIP3    H246720   4.124   4.633  11.390  0.1959 -0.4589 -0.0067
 7509TIP3   OH246721   0.857   1.496  10.411 -0.1057 -0.3278  0.1600
 7509TIP3    H146722   0.882   1.428  10.348 -0.9992  0.1212 -0.6991
 7509TIP3    H246723   0.837   1.572  10.357 -0.3289  0.2390  1.0385
 7510TIP3   OH246724   0.979   0.165  11.854 -0.2852 -0.1486 -0.2377
 7510TIP3    H146725   0.896   0.118  11.859 -0.7140  0.6140  0.0998
 7510TIP3    H246726   1.027   0.139  11.932  0.1369 -1.1885 -0.8208
 7511TIP3   OH246727   3.809   5.135  12.237 -0.3966  0.2360 -0.5020
 7511TIP3    H146728   3.758   5.056  12.257 -2.0820  1.2934 -0.4951
 7511TIP3    H246729   3.778   5.164  12.152 -1.0801  1.8421  0.2417
 7512TIP3   OH246730   1.674   1.694  10.149  0.0921 -0.1831  0.5122
 7512TIP3    H146731   1.657   1.604  10.123  0.2988 -0.4545  1.2883
 7512TIP3    H246732   1.588   1.735  10.153  0.1075  0.1444 -1.4986
 7513TIP3   OH246733   5.617   2.632  12.345  0.1672 -0.2527 -0.9379
 7513TIP3    H146734   5.534   2.653  12.387  1.3116  2.1794  0.3289
 7513TIP3    H246735   5.668   2.588  12.413  1.0494  1.2626 -0.5574
 7514TIP3   OH246736   2.229   1.464  12.345 -0.4908  0.1330  0.6030
 7514TIP3    H146737   2.141   1.432  12.324 -0.0900 -0.9882  0.5852
 7514TIP3    H246738   2.253   1.518  12.269 -0.8892 -0.1113  0.2955
 7515TIP3   OH246739   5.630   0.657  10.872  0.1332  0.4804 -0.0160
 7515TIP3    H146740   5.652   0.679  10.962  1.4819  2.0296 -0.6823
 7515TIP3    H246741   5.536   0.673  10.866  0.4858  2.9885  0.4352
 7516TIP3   OH246742   1.834   4.652  11.431  0.1635  0.1352 -0.4967
 7516TIP3    H146743   1.811   4.562  11.455  3.3504 -0.6266  0.1225
 7516TIP3    H246744   1.821   4.655  11.336  0.2694 -1.0720 -0.5754
 7517TIP3   OH246745   7.077   6.755  12.625  0.5213  0.5864  0.5108
 7517TIP3    H146746   7.020   6.817  12.670  0.0999  0.2173  0.4901
 7517TIP3    H246747   7.141   6.810  12.580  0.7828  0.9709  1.3240
 7518TIP3   OH246748   1.100   5.491  10.332  0.2296  0.0323  0.4503
 7518TIP3    H146749   1.081   5.414  10.279 -0.5436  0.6681 -0.2331
 7518TIP3    H246750   1.116   5.561  10.268  1.4858  0.3261  1.0494
 7519TIP3   OH246751   2.293   6.073  12.339  0.1709  0.1548  0.0308
 7519TIP3    H146752   2.383   6.047  12.361  0.5119  0.4755 -0.9307
 7519TIP3    H246753   2.241   5.994  12.352  0.1654  0.5208  2.8123
 7520TIP3   OH246754   3.463   6.088  12.293  0.0657 -0.0728 -0.1130
 7520TIP3    H146755   3.368   6.088  12.277  0.1341  2.9889 -1.1085
 7520TIP3    H246756   3.502   6.087  12.205  0.9082  0.2768  0.2471
 7521TIP3   OH246757   2.719   6.193  12.069  0.3381 -0.1489  0.3380
 7521TIP3    H146758   2.688   6.172  12.157  2.1685 -0.1165  1.0410
 7521TIP3    H246759   2.732   6.108  12.028 -0.7721 -0.1598 -0.0184
 7522TIP3   OH246760   4.073   0.909   9.791 -0.1581 -0.2394 -0.3001
 7522TIP3    H146761   4.102   0.911   9.699 -1.9210  1.3980 -0.8823
 7522TIP3    H246762   4.018   0.831   9.797 -0.8342  0.1760 -0.9194
 7523TIP3   OH246763   6.346   7.120  10.854  0.0657 -0.3110  0.3931
 7523TIP3    H146764   6.303   7.035  10.844 -1.4444  0.4279  0.1956
 7523TIP3    H246765   6.273   7.183  10.857  1.1704  1.1818 -1.5610
 7524TIP3   OH246766   3.257   1.305   9.499 -0.7241 -0.5124 -0.2238
 7524TIP3    H146767   3.341   1.258   9.506 -0.7249 -0.3124  1.6282
 7524TIP3    H246768   3.276   1.379   9.442  0.4614 -0.3223  0.3733
 7525TIP3   OH246769   3.358   0.925  11.203  0.3569  0.0227 -0.5351
 7525TIP3    H146770   3.290   0.880  11.153 -0.7560  1.3170 -0.2492
 7525TIP3    H246771   3.437   0.874  11.187 -0.7704 -1.8398 -0.4416
 7526TIP3   OH246772   1.170   0.831  11.606  1.3546 -0.1345  0.1505
 7526TIP3    H146773   1.136   0.743  11.620  2.2180 -0.4551  0.2979
 7526TIP3    H246774   1.214   0.827  11.521 -0.7355  0.8412 -1.0594
 7527TIP3   OH246775   0.545   1.897  12.742 -0.5405 -0.0386 -0.0181
 7527TIP3    H146776   0.542   1.869  12.651 -1.1363  0.2468 -0.0937
 7527TIP3    H246777   0.624   1.951  12.748 -0.7157  0.2752 -0.4690
 7528TIP3   OH246778   6.871   0.457  11.674  0.3368 -0.1734 -0.1811
 7528TIP3    H146779   6.902   0.517  11.741  0.5562 -1.2995  0.7733
 7528TIP3    H246780   6.803   0.505  11.627 -0.3176  0.4139  1.3164
 7529TIP3   OH246781   3.555   6.269  10.026  0.3029 -0.2028 -0.5094
 7529TIP3    H146782   3.482   6.327  10.051 -0.2648 -0.3326 -1.8177
 7529TIP3    H246783   3.545   6.193  10.084  0.4015  0.5100  0.4676
 7530TIP3   OH246784   7.407   0.711  10.720  0.0239 -0.0705  0.4561
 7530TIP3    H146785   7.347   0.775  10.682  0.9530  0.4175 -0.2135
 7530TIP3    H246786   7.458   0.679  10.645  0.5419 -0.5450  1.0062
 7531TIP3   OH246787   5.546   5.926  10.546  0.1062  0.5678  0.0149
 7531TIP3    H146788   5.470   5.868  10.547 -0.2362  1.0169  1.0588
 7531TIP3    H246789   5.561   5.943  10.453 -0.5222 -0.2307 -0.2480
 7532TIP3   OH246790   1.214   2.299  11.941  0.3554 -0.9511 -0.6126
 7532TIP3    H146791   1.192   2.223  11.888 -0.9735 -1.2987  0.3942
 7532TIP3    H246792   1.190   2.374  11.887 -1.9797 -1.3077 -0.1638
 7533TIP3   OH246793   1.731   4.761  10.392  0.1152  0.1623 -0.2166
 7533TIP3    H146794   1.646   4.735  10.428  1.2492 -0.3352  2.3183
 7533TIP3    H246795   1.774   4.679  10.369  0.4872  0.3160 -0.0754
 7534TIP3   OH246796   6.980   1.208  10.021  0.2507  0.2619  0.0418
 7534TIP3    H146797   6.921   1.224   9.947  0.9142  0.4857 -0.4494
 7534TIP3    H246798   7.019   1.122  10.003  0.2788  0.2350  0.2269
 7535TIP3   OH246799   6.642   5.959  11.136  0.8402 -0.1303  0.0517
 7535TIP3    H146800   6.659   6.007  11.055 -2.5137 -1.3153 -1.5556
 7535TIP3    H246801   6.641   5.867  11.110 -1.2730 -0.4873  1.1323
 7536TIP3   OH246802   4.914   6.567  10.976  0.1715  0.6651 -0.1789
 7536TIP3    H146803   4.917   6.475  10.952  0.0878  0.5890  0.0960
 7536TIP3    H246804   4.869   6.609  10.903  0.8115  0.5957 -0.6202
 7537TIP3   OH246805   1.892   4.559   9.520 -0.4459  0.5713 -0.2519
 7537TIP3    H146806   1.856   4.508   9.593  2.9252  1.0603  1.9710
 7537TIP3    H246807   1.927   4.493   9.460 -0.1786  0.2047  0.3010
 7538TIP3   OH246808   4.433   2.368  10.049  0.3615  0.3416 -0.0466
 7538TIP3    H146809   4.343   2.370  10.017  0.2009 -0.7485  0.2899
 7538TIP3    H246810   4.466   2.456  10.035 -0.1559  0.2823 -1.8805
 7539TIP3   OH246811   3.084   6.486  10.083 -0.0158 -0.2506  0.2250
 7539TIP3    H146812   3.117   6.399  10.058 -2.1598 -0.6521 -1.4898
 7539TIP3    H246813   2.989   6.476  10.084 -0.3535  2.2207 -0.5889
 7540TIP3   OH246814   0.452   4.481  10.400  0.4030 -0.3512  0.4416
 7540TIP3    H146815   0.509   4.554  10.379 -0.1952 -0.3258 -1.3213
 7540TIP3    H246816   0.363   4.517  10.394  0.1157 -1.0835  0.0636
 7541TIP3   OH246817   4.627   5.050  11.352 -0.7196 -0.1772  0.4852
 7541TIP3    H146818   4.622   4.958  11.377 -1.6974  0.4044  2.6504
 7541TIP3    H246819   4.703   5.083  11.400  0.3214 -0.0733 -1.1721
 7542TIP3   OH246820   2.803   1.418  12.066  0.7688  0.3608 -0.0322
 7542TIP3    H146821   2.716   1.459  12.073  1.2469  1.3890  0.1736
 7542TIP3    H246822   2.799   1.368  11.984  0.6866  2.2299 -1.2522
 7543TIP3   OH246823   0.316   6.151  12.721 -0.0462  0.4396 -0.9107
 7543TIP3    H146824   0.403   6.139  12.684 -0.0319  1.2413 -1.1598
 7543TIP3    H246825   0.287   6.236  12.688 -0.7725  0.3496 -0.5350
 7544TIP3   OH246826   1.013   1.826  11.784  0.0004 -0.2117 -0.0653
 7544TIP3    H146827   1.008   1.911  11.740  0.5839 -0.9823 -1.6953
 7544TIP3    H246828   1.055   1.845  11.868 -1.3502  1.3380  0.2999
 7545TIP3   OH246829   4.828   3.007  10.502 -0.0022 -0.1046  0.4083
 7545TIP3    H146830   4.753   3.065  10.515 -0.2322 -0.5182  0.9737
 7545TIP3    H246831   4.805   2.955  10.425  0.6921  1.2967 -0.8068
 7546TIP3   OH246832   4.646   2.291  10.406  0.9359 -0.1894 -0.2795
 7546TIP3    H146833   4.626   2.202  10.432  0.0676  0.4098  1.1931
 7546TIP3    H246834   4.739   2.303  10.428  0.9329 -0.5775 -0.0613
 7547TIP3   OH246835   4.058   6.218  11.667  0.3649  0.4174 -0.2461
 7547TIP3    H146836   3.969   6.244  11.691  0.4736 -0.4600  1.2617
 7547TIP3    H246837   4.055   6.209  11.572 -0.6159  2.2734 -0.4357
 7548TIP3   OH246838   3.380   0.205  12.320  0.0712  0.0958 -0.5024
 7548TIP3    H146839   3.305   0.243  12.367  0.2731  0.7762 -0.7226
 7548TIP3    H246840   3.342   0.135  12.268 -0.4036  0.3690 -0.5312
 7549TIP3   OH246841   0.243   2.010  10.975  0.0293  0.3335 -0.2733
 7549TIP3    H146842   0.327   1.970  10.952  0.9890  1.7033  0.6817
 7549TIP3    H246843   0.214   2.051  10.893 -0.1898 -0.9279 -0.8478
 7550TIP3   OH246844   3.588   2.888  10.295  0.7298  0.3279  0.3613
 7550TIP3    H146845   3.637   2.960  10.256  0.3558  0.2561 -0.2421
 7550TIP3    H246846   3.496   2.908  10.277  0.6244 -0.3111  0.1652
 7551TIP3   OH246847   6.114   2.400  10.212  0.1520 -0.8056 -0.3594
 7551TIP3    H146848   6.168   2.400  10.133  0.6358 -1.7289 -0.0355
 7551TIP3    H246849   6.136   2.482  10.256  0.8651 -0.9070 -0.5162
 7552TIP3   OH246850   0.698   3.048  11.193  0.1044 -0.1658 -0.1893
 7552TIP3    H146851   0.619   3.032  11.143  0.5034  1.3087 -1.3918
 7552TIP3    H246852   0.711   3.143  11.187  0.9863 -0.1474  1.4785
 7553TIP3   OH246853   0.670   5.185  10.779  0.1198 -0.3383 -0.6739
 7553TIP3    H146854   0.663   5.270  10.736 -1.1107  0.1744  0.4532
 7553TIP3    H246855   0.654   5.204  10.871  0.3767 -1.7209 -0.3283
 7554TIP3   OH246856   1.178   6.452   9.455  0.3035 -0.0435 -0.2995
 7554TIP3    H146857   1.205   6.429   9.366 -0.1634  0.1661 -0.4993
 7554TIP3    H246858   1.258   6.447   9.506  0.8274  0.9913 -0.9746
 7555TIP3   OH246859   4.581   0.143  11.319 -0.0654  0.7716 -0.1041
 7555TIP3    H146860   4.495   0.103  11.329  1.0670 -1.5701  1.3510
 7555TIP3    H246861   4.564   0.235  11.298 -2.8684  0.0063 -1.5707
 7556TIP3   OH246862   5.503   5.062  10.168  0.0270  0.2173  0.8870
 7556TIP3    H146863   5.458   5.141  10.198 -1.1381 -1.0115  2.5417
 7556TIP3    H246864   5.437   5.015  10.117 -0.4724 -1.3361  2.8680
 7557TIP3   OH246865   2.114   3.040  12.129  0.0333 -0.4676  0.2441
 7557TIP3    H146866   2.121   3.135  12.135 -1.8400 -0.2464 -0.4146
 7557TIP3    H246867   2.176   3.007  12.194 -0.9156  1.2438  2.1101
 7558TIP3   OH246868   4.676   2.265  11.317  0.2396 -0.3282  0.0362
 7558TIP3    H146869   4.703   2.263  11.225  0.6733 -0.3110  0.1628
 7558TIP3    H246870   4.583   2.243  11.315  0.3473 -0.7483 -0.3670
 7559TIP3   OH246871   1.884   6.916  11.205  0.6159 -0.3220  0.2792
 7559TIP3    H146872   1.915   6.868  11.128  1.8009 -0.5641  0.8820
 7559TIP3    H246873   1.832   6.853  11.254 -0.5935 -0.0183 -0.5586
 7560TIP3   OH246874   5.107   2.108  10.482 -0.0882  0.0135  0.1134
 7560TIP3    H146875   5.180   2.139  10.536 -0.6916  1.8654 -0.0597
 7560TIP3    H246876   5.051   2.060  10.543  1.9100 -2.7612 -0.0227
 7561TIP3   OH246877   4.228   4.987  11.255  0.2605  0.6537 -0.2650
 7561TIP3    H146878   4.143   4.958  11.288  0.4288  0.0664 -0.3370
 7561TIP3    H246879   4.213   5.004  11.161  0.1490  0.8644 -0.2109
 7562TIP3   OH246880   7.207   6.494  11.651 -0.3813 -0.1130  0.1602
 7562TIP3    H146881   7.221   6.518  11.559 -0.3635  0.3881  0.2904
 7562TIP3    H246882   7.134   6.433  11.649 -0.0682 -0.4809 -0.2378
 7563TIP3   OH246883   1.353   0.044  10.725 -0.4920  0.5617  0.0029
 7563TIP3    H146884   1.340   0.106  10.654 -1.3533 -0.3548 -0.6681
 7563TIP3    H246885   1.428  -0.009  10.697 -0.2431  0.7890  0.2236
 7564TIP3   OH246886   4.819   6.618  11.249 -0.7567 -0.2338 -0.0281
 7564TIP3    H146887   4.871   6.555  11.298 -1.5530 -0.8954 -0.0059
 7564TIP3    H246888   4.852   6.613  11.160 -0.5200 -0.3615  0.0678
 7565TIP3   OH246889   5.494   3.882  11.130  0.2444  0.5443  0.4595
 7565TIP3    H146890   5.526   3.793  11.145 -0.5192 -0.1231 -1.5468
 7565TIP3    H246891   5.398   3.873  11.130  0.1520  0.9703 -1.5074
 7566TIP3   OH246892   3.169   4.186   9.952 -0.5117  0.1803  0.1825
 7566TIP3    H146893   3.146   4.274   9.983  0.0920  0.5497 -0.3908
 7566TIP3    H246894   3.106   4.168   9.882  0.4551  0.9049 -0.9127
 7567TIP3   OH246895   0.020   1.638  11.226  0.5340 -0.1478 -0.0787
 7567TIP3    H146896   0.074   1.646  11.305 -0.6062  0.9014  0.6289
 7567TIP3    H246897  -0.070   1.639  11.258  0.0209 -2.9013 -1.1330
 7568TIP3   OH246898   3.356   6.351  11.996  0.6903  0.4830 -0.2019
 7568TIP3    H146899   3.353   6.387  12.084  0.7453  0.0171 -0.0037
 7568TIP3    H246900   3.386   6.423  11.941  0.5420  0.8076  0.1423
 7569TIP3   OH246901   5.547   5.855  11.930 -0.4649  0.1459  0.0243
 7569TIP3    H146902   5.555   5.864  12.024  1.5066 -0.3771 -0.0553
 7569TIP3    H246903   5.520   5.764  11.916 -1.4682  0.4229  0.0915
 7570TIP3   OH246904   1.601   3.011  11.199 -0.0866 -0.3600 -0.1204
 7570TIP3    H146905   1.607   2.988  11.292 -0.0982 -1.0146 -0.2757
 7570TIP3    H246906   1.513   2.981  11.174 -0.4772  0.7402 -0.0966
 7571TIP3   OH246907   7.171   1.544  12.491 -0.6747 -0.5008 -0.0979
 7571TIP3    H146908   7.232   1.616  12.476 -1.3272  0.7853  2.6597
 7571TIP3    H246909   7.123   1.534  12.409  0.1056  1.5686 -0.8512
 7572TIP3   OH246910   0.362   2.440  10.872  0.7314  0.0912 -0.1815
 7572TIP3    H146911   0.297   2.381  10.833  0.8507 -0.3211  0.2279
 7572TIP3    H246912   0.310   2.513  10.906  0.6859  0.7808 -1.6579
 7573TIP3   OH246913   5.547   3.473  10.416  0.4578  0.3811  0.0036
 7573TIP3    H146914   5.468   3.460  10.469  0.7234  1.1590  0.6033
 7573TIP3    H246915   5.520   3.532  10.347  0.1145 -0.6236 -0.7498
 7574TIP3   OH246916   6.082   3.935  12.150  0.0612  0.3007  1.0189
 7574TIP3    H146917   6.077   3.850  12.194  3.4560 -0.8282 -0.3750
 7574TIP3    H246918   5.997   3.976  12.166 -0.5551 -1.9276  4.5288
 7575TIP3   OH246919   3.425   1.677  10.052 -0.1152 -0.0402  0.1228
 7575TIP3    H146920   3.514   1.689  10.018 -0.6491 -0.9621 -1.7327
 7575TIP3    H246921   3.411   1.583  10.051 -0.8269  0.0390  1.2211
 7576TIP3   OH246922   1.967   0.938  11.193  0.0233  0.0712 -0.5604
 7576TIP3    H146923   1.969   1.024  11.235  1.4978 -0.1068 -0.2169
 7576TIP3    H246924   1.914   0.951  11.114 -0.6016  1.0397  0.0006
 7577TIP3   OH246925   3.975   0.187  11.184 -0.1290 -0.4368 -0.4350
 7577TIP3    H146926   3.927   0.260  11.224  0.2702 -0.3895 -0.0364
 7577TIP3    H246927   3.915   0.113  11.192  0.2426 -0.6165  0.9840
 7578TIP3   OH246928   4.760   0.424  12.090  0.1832  0.3868  0.1193
 7578TIP3    H146929   4.756   0.375  12.008 -0.6594 -2.0305  1.5152
 7578TIP3    H246930   4.854   0.434  12.107  0.3721 -0.7031 -0.2336
 7579TIP3   OH246931   4.158   0.911  11.284 -0.1422  0.0493 -0.2742
 7579TIP3    H146932   4.191   0.999  11.302 -2.4876  0.3646  3.2988
 7579TIP3    H246933   4.137   0.874  11.370  0.4650 -3.9838 -1.6179
 7580TIP3   OH246934   3.818   1.751  11.563  0.6164 -0.3093 -0.1557
 7580TIP3    H146935   3.864   1.828  11.531 -0.8148 -0.0244 -1.6597
 7580TIP3    H246936   3.811   1.764  11.657  0.9957  1.0709 -0.3045
 7581TIP3   OH246937   3.620   1.061  10.906  0.1771 -0.1982  0.1286
 7581TIP3    H146938   3.611   1.155  10.918  1.0476 -0.3140  1.9863
 7581TIP3    H246939   3.675   1.032  10.979 -1.1947 -2.3408  0.4123
 7582TIP3   OH246940   5.305   5.869  11.204  0.1656 -0.0238  0.6002
 7582TIP3    H146941   5.214   5.845  11.222  0.0569 -0.0609  0.0219
 7582TIP3    H246942   5.348   5.867  11.289 -0.3041 -0.3193  0.8321
 7583TIP3   OH246943   5.601   5.900  11.070 -0.4521 -0.3290 -0.2420
 7583TIP3    H146944   5.615   5.807  11.085 -1.5366 -0.1874  1.9700
 7583TIP3    H246945   5.507   5.913  11.084 -0.5050  0.9456 -1.5381
 7584TIP3   OH246946   5.281   1.961  10.306  0.2508 -0.3876  0.1053
 7584TIP3    H146947   5.209   1.992  10.361 -0.4571  0.1062 -1.0583
 7584TIP3    H246948   5.332   2.039  10.287 -0.1044 -0.3519 -0.7686
 7585TIP3   OH246949   5.077   2.779  10.727 -0.3315  0.1994 -0.3036
 7585TIP3    H146950   5.007   2.739  10.778 -0.7824 -0.2698 -1.2564
 7585TIP3    H246951   5.155   2.729  10.750 -0.8617 -1.2011 -1.3760
 7586TIP3   OH246952   4.212   2.400   9.420  0.4873 -0.7645  0.6197
 7586TIP3    H146953   4.299   2.423   9.386 -0.2270  1.3345  0.0198
 7586TIP3    H246954   4.174   2.346   9.351  1.2275 -1.5578  0.8102
 7587TIP3   OH246955   0.978   3.421   9.744  0.2927 -0.0673 -0.3548
 7587TIP3    H146956   0.988   3.335   9.703 -1.6832 -0.3388 -0.3543
 7587TIP3    H246957   0.964   3.401   9.837 -0.2595  0.2441 -0.3678
 7588TIP3   OH246958   5.782   0.351  11.881 -0.0462  0.3725  0.4373
 7588TIP3    H146959   5.701   0.400  11.870  0.2888  0.6604 -0.9451
 7588TIP3    H246960   5.756   0.259  11.871 -0.5549  0.2766  2.3159
 7589TIP3   OH246961   1.433   1.858  10.208 -0.3950  0.1123 -0.1021
 7589TIP3    H146962   1.428   1.925  10.276 -0.2265  0.3252 -0.2964
 7589TIP3    H246963   1.401   1.902  10.129 -0.5376 -0.1159 -0.1715
 7590TIP3   OH246964   6.545   1.296  11.317  0.3938 -0.1751  0.0869
 7590TIP3    H146965   6.618   1.287  11.379  1.0028  0.6045 -0.5052
 7590TIP3    H246966   6.505   1.379  11.339 -0.5030 -0.7266  0.5865
 7591TIP3   OH246967   6.825   7.349  10.318 -0.2706  0.1484 -0.2473
 7591TIP3    H146968   6.895   7.386  10.371  0.7655 -0.3345 -1.2530
 7591TIP3    H246969   6.869   7.306  10.245 -1.5531 -1.1469 -0.3004
 7592TIP3   OH246970   1.960   5.261   9.430 -0.1129  0.2435  0.5408
 7592TIP3    H146971   2.024   5.325   9.402  2.4848 -2.2205  0.4532
 7592TIP3    H246972   2.010   5.194   9.476 -2.6217 -1.7751  0.6134
 7593TIP3   OH246973   7.320   2.460  10.704  0.2275 -0.1629  0.0837
 7593TIP3    H146974   7.379   2.468  10.779 -0.7494 -0.1392  0.8888
 7593TIP3    H246975   7.372   2.488  10.629  1.2862 -0.3434  0.7282
 7594TIP3   OH246976   1.908   3.922  10.237  0.0704 -0.4624 -0.1360
 7594TIP3    H146977   1.935   3.929  10.146  0.1392  0.4897 -0.0499
 7594TIP3    H246978   1.838   3.986  10.246  0.0031 -0.6138  0.4636
 7595TIP3   OH246979   1.490   6.830  11.518  0.1355 -0.6092  0.5524
 7595TIP3    H146980   1.415   6.885  11.495  1.6972  0.8253 -1.4385
 7595TIP3    H246981   1.503   6.844  11.612 -1.1247  0.3332  0.6051
 7596TIP3   OH246982   0.215   3.465   9.775  0.4161 -0.4366  0.1671
 7596TIP3    H146983   0.174   3.482   9.690  1.3954  1.6881  0.0450
 7596TIP3    H246984   0.250   3.376   9.768 -0.7688 -0.8388 -1.1068
 7597TIP3   OH246985   2.146   3.068  10.158  0.2401 -0.1369 -0.3455
 7597TIP3    H146986   2.216   3.023  10.111 -0.2045 -0.0718 -1.0710
 7597TIP3    H246987   2.187   3.149  10.189  0.6483 -0.3740 -0.2589
 7598TIP3   OH246988   3.079   3.415  10.476  0.0082 -0.1112 -0.2934
 7598TIP3    H146989   3.097   3.323  10.494 -1.9527 -0.3950  0.5158
 7598TIP3    H246990   3.110   3.428  10.387  2.2109 -0.9696  0.2750
 7599TIP3   OH246991   0.942   3.640  12.393  0.2540  0.3701 -0.0027
 7599TIP3    H146992   0.934   3.656  12.487  1.6087 -1.6439  0.5273
 7599TIP3    H246993   1.017   3.580  12.385  0.8306  1.2890 -2.4697
 7600TIP3   OH246994   6.672   4.440  11.304  0.1109 -0.4579 -0.2508
 7600TIP3    H146995   6.650   4.519  11.254 -0.5967  0.6565  1.6742
 7600TIP3    H246996   6.620   4.449  11.385  0.1265 -2.8424  0.0814
 7601TIP3   OH246997   1.710   2.159   9.999  0.4567  0.3781  1.0017
 7601TIP3    H146998   1.673   2.150  10.086 -0.0439  1.6466  0.9506
 7601TIP3    H246999   1.804   2.168  10.013  0.4183  0.1865  1.3757
 7602TIP3   OH247000   6.516   1.474  10.356 -0.3861 -0.9340  0.2874
 7602TIP3    H147001   6.428   1.486  10.321 -0.1194  1.0177  0.1856
 7602TIP3    H247002   6.509   1.496  10.448  0.0921 -0.2463  0.1651
 7603TIP3   OH247003   6.501   5.574   9.618  0.5932  0.2593 -0.2188
 7603TIP3    H147004   6.408   5.584   9.598  0.2968 -1.4585  0.1764
 7603TIP3    H247005   6.533   5.664   9.630 -1.7093  0.8063  2.8017
 7604TIP3   OH247006   0.605   2.554  10.759  0.2257 -0.0093  0.4029
 7604TIP3    H147007   0.683   2.502  10.741  0.1186 -0.0931  0.1877
 7604TIP3    H247008   0.548   2.494  10.808 -0.1517 -0.2872 -0.3744
 7605TIP3   OH247009   4.035   6.795  11.492 -0.1671  0.0614  0.4702
 7605TIP3    H147010   4.065   6.809  11.581  0.3570 -0.3096  0.3545
 7605TIP3    H247011   4.113   6.768  11.444 -0.4036  0.4268 -0.1410
 7606TIP3   OH247012   1.212   7.037  10.162  0.5389  0.1636  0.1540
 7606TIP3    H147013   1.229   6.983  10.240 -0.7843 -1.6584 -0.7420
 7606TIP3    H247014   1.299   7.052  10.125  1.0069 -0.8287  0.7931
 7607TIP3   OH247015   0.947   0.227  11.307  0.0350  0.0568 -0.0660
 7607TIP3    H147016   1.016   0.184  11.358 -0.3802 -0.3461  0.1660
 7607TIP3    H247017   0.894   0.155  11.273 -0.9100  0.3907  0.6691
 7608TIP3   OH247018   0.802   3.595  10.712  0.5774 -0.3250  0.0260
 7608TIP3    H147019   0.822   3.586  10.805  2.9023 -1.1665 -0.4967
 7608TIP3    H247020   0.885   3.619  10.671 -0.2239 -0.6511 -1.9320
 7609TIP3   OH247021   7.314   1.688  11.692  0.0386 -0.2725  0.6727
 7609TIP3    H147022   7.353   1.752  11.633 -0.8917 -2.7090 -2.9522
 7609TIP3    H247023   7.230   1.726  11.718  0.1721  0.6163 -0.1695
 7610TIP3   OH247024   5.253   1.142  11.306  0.2198 -0.2485 -0.4166
 7610TIP3    H147025   5.162   1.136  11.334 -0.0860  1.8458 -0.7725
 7610TIP3    H247026   5.301   1.160  11.386  0.1898 -0.3960 -0.3651
 7611TIP3   OH247027   1.725   6.756  11.423  0.1045  0.3475  0.8008
 7611TIP3    H147028   1.635   6.771  11.449  0.2277  0.2781  1.2756
 7611TIP3    H247029   1.775   6.757  11.505  0.3852 -0.7136  0.6626
 7612TIP3   OH247030   1.797   5.994  11.415  0.2986  0.3800 -0.7411
 7612TIP3    H147031   1.844   5.911  11.424  0.0924  0.0836 -2.1555
 7612TIP3    H247032   1.765   6.012  11.503 -0.5894 -1.6130 -0.5855
 7613TIP3   OH247033   1.831   5.349  10.208  0.2087 -0.3355 -0.3663
 7613TIP3    H147034   1.916   5.340  10.251 -0.0791 -3.0408 -0.1724
 7613TIP3    H247035   1.767   5.342  10.279 -0.3259  3.7495 -0.1885
 7614TIP3   OH247036   3.484   2.160  11.785 -0.3633  0.0218 -0.1439
 7614TIP3    H147037   3.534   2.101  11.729 -0.4394 -1.2374  1.0739
 7614TIP3    H247038   3.544   2.232  11.804  0.1637 -0.2778 -0.6264
 7615TIP3   OH247039   1.826   6.266   9.661  0.6410  0.0599 -0.0235
 7615TIP3    H147040   1.850   6.196   9.722 -2.0136 -0.8858  0.0938
 7615TIP3    H247041   1.812   6.222   9.578 -0.8340  0.4461 -0.0118
 7616TIP3   OH247042   0.679   1.365  10.589 -0.2100 -0.4299 -0.8104
 7616TIP3    H147043   0.680   1.277  10.550 -3.3157 -0.5313 -0.8904
 7616TIP3    H247044   0.720   1.421  10.524  0.9029 -1.6459 -1.2004
 7617TIP3   OH247045   0.026   5.602   9.629 -0.6195 -0.1938  0.1934
 7617TIP3    H147046  -0.011   5.668   9.570 -1.9611 -1.3809 -0.3302
 7617TIP3    H247047   0.116   5.633   9.645 -0.7795  1.0476 -1.0891
 7618TIP3   OH247048   0.680   4.472  11.590  0.0802  1.0228  0.1617
 7618TIP3    H147049   0.742   4.512  11.528  0.3495  0.1128 -0.1710
 7618TIP3    H247050   0.714   4.495  11.676 -0.0057  1.8616 -0.0166
 7619TIP3   OH247051   4.866   1.700  10.698 -0.2151  0.1503  0.1465
 7619TIP3    H147052   4.914   1.695  10.615 -1.5313 -0.3097 -0.6101
 7619TIP3    H247053   4.782   1.659  10.680 -0.7888  0.6459  1.5364
 7620TIP3   OH247054   2.445   4.139   9.605  0.2665 -0.3422  0.1167
 7620TIP3    H147055   2.505   4.075   9.642 -0.8587 -1.2376  0.4322
 7620TIP3    H247056   2.373   4.087   9.570 -0.5112  0.7287  0.0824
 7621TIP3   OH247057   5.180   2.531  10.285  0.3672  0.0141 -0.4091
 7621TIP3    H147058   5.115   2.536  10.215  0.2291 -0.5788 -0.3287
 7621TIP3    H247059   5.156   2.603  10.344 -1.8422 -1.6699  0.9575
 7622TIP3   OH247060   4.969   4.543  12.185  0.0811 -0.2600  0.2337
 7622TIP3    H147061   4.876   4.537  12.161 -0.1489 -0.3295  1.1016
 7622TIP3    H247062   4.973   4.619  12.244  1.1777  1.9782 -2.5255
 7623TIP3   OH247063   3.393   4.323  10.524 -0.5044  0.0328  0.4763
 7623TIP3    H147064   3.475   4.293  10.485  0.0076  0.3812  1.2513
 7623TIP3    H247065   3.420   4.390  10.587 -1.4557  0.7620  0.1338
 7624TIP3   OH247066   0.624   3.524  12.575 -0.1818 -0.9810 -0.0833
 7624TIP3    H147067   0.679   3.585  12.623  0.8440 -0.7083 -1.5512
 7624TIP3    H247068   0.686   3.465  12.531 -1.0804 -1.1754 -1.1239
 7625TIP3   OH247069   6.202   2.205  11.052 -0.0132 -0.2126 -0.1211
 7625TIP3    H147070   6.201   2.293  11.013 -0.4683 -0.8111 -1.5277
 7625TIP3    H247071   6.114   2.195  11.088  0.3089  0.2241  0.8009
 7626TIP3   OH247072   5.997   7.094  11.837 -0.4612 -0.8767  0.0267
 7626TIP3    H147073   5.912   7.051  11.847 -1.7139  1.4708  0.2689
 7626TIP3    H247074   6.010   7.101  11.742 -0.7128 -0.9329 -0.0109
 7627TIP3   OH247075   5.309   7.450  10.098  0.3258 -0.1685  0.1656
 7627TIP3    H147076   5.219   7.415  10.093  0.0388  0.7055 -2.5633
 7627TIP3    H247077   5.307   7.510  10.172 -1.4119 -0.0812  0.1015
 7628TIP3   OH247078   2.083   7.033  11.650  0.9003 -0.2528 -0.2795
 7628TIP3    H147079   2.007   7.013  11.705  0.5250  0.0895 -0.6724
 7628TIP3    H247080   2.105   6.949  11.610  1.1504 -0.4985  0.3473
 7629TIP3   OH247081   4.376   5.337  11.888  0.5636  0.3764 -0.3731
 7629TIP3    H147082   4.372   5.352  11.794  1.6298 -3.0834 -1.1145
 7629TIP3    H247083   4.440   5.267  11.898 -1.7547 -1.5555  2.6072
 7630TIP3   OH247084   1.330   7.418  10.421  0.0872  0.4996 -0.0381
 7630TIP3    H147085   1.269   7.382  10.485  1.6316  0.1434  1.3055
 7630TIP3    H247086   1.289   7.402  10.336 -2.1889  1.2921  0.8293
 7631TIP3   OH247087   1.642   6.490  11.249 -0.3882  0.6185 -0.2791
 7631TIP3    H147088   1.570   6.434  11.276  1.4815 -1.5400  0.5401
 7631TIP3    H247089   1.642   6.562  11.312 -0.0919 -0.9220  1.5555
 7632TIP3   OH247090   3.543   7.308   9.993  0.5607  0.2570 -0.1275
 7632TIP3    H147091   3.624   7.315   9.943  1.8337 -0.5186  1.7635
 7632TIP3    H247092   3.475   7.299   9.926  2.1039 -0.0012 -1.7297
 7633TIP3   OH247093   0.964   1.442  11.562 -0.3849 -0.2401 -0.6074
 7633TIP3    H147094   0.955   1.537  11.550  2.1449  0.1634  0.0791
 7633TIP3    H247095   0.927   1.425  11.649  1.1445  0.5492  0.2415
 7634TIP3   OH247096   2.224   2.849  11.697 -0.4450 -0.0430 -0.1303
 7634TIP3    H147097   2.181   2.769  11.665 -0.2484  0.8432 -2.9000
 7634TIP3    H247098   2.316   2.824  11.709 -0.1505 -0.0564 -2.0457
 7635TIP3   OH247099   5.554   5.776   9.693  0.1064 -0.7925  0.5676
 7635TIP3    H147100   5.459   5.765   9.692 -0.0039 -0.1681  1.7655
 7635TIP3    H247101   5.582   5.753   9.605 -1.7037  3.9339 -1.5566
 7636TIP3   OH247102   4.893   0.265  10.509  0.0328  0.0396 -0.2707
 7636TIP3    H147103   4.972   0.236  10.555 -0.3773 -0.0304  0.4076
 7636TIP3    H247104   4.889   0.359  10.525 -0.8027 -0.1782  0.9616
 7637TIP3   OH247105   6.543   4.358  10.541  0.0426  0.4485  0.4696
 7637TIP3    H147106   6.513   4.449  10.538 -2.3789 -0.1547  2.4308
 7637TIP3    H247107   6.484   4.312  10.481  0.5078 -0.0085  0.3620
 7638TIP3   OH247108   4.700   4.853  12.030 -0.1306 -0.6554  0.0969
 7638TIP3    H147109   4.791   4.850  12.061 -0.8299  0.3708  2.4451
 7638TIP3    H247110   4.650   4.808  12.099 -1.3232 -2.2598 -1.7121
 7639TIP3   OH247111   3.030   6.015  10.173 -0.3701 -0.4267  0.1732
 7639TIP3    H147112   2.942   6.027  10.138 -0.1462  0.6623 -0.0664
 7639TIP3    H247113   3.017   6.007  10.268 -0.8299 -1.6900  0.0271
 7640TIP3   OH247114   3.294   2.432  11.916 -0.8262  0.0656 -0.4673
 7640TIP3    H147115   3.362   2.488  11.953 -1.5663 -0.0326  1.1253
 7640TIP3    H247116   3.321   2.418  11.825  2.9208 -2.3871  0.7803
 7641TIP3   OH247117   1.118   2.914  11.627  0.0007  0.2089 -0.4985
 7641TIP3    H147118   1.177   2.942  11.556  0.3030 -1.8445 -1.1183
 7641TIP3    H247119   1.033   2.904  11.584  0.0937 -0.6488 -0.4912
 7642TIP3   OH247120   0.456   0.906  10.492  0.7066  0.1708  0.1403
 7642TIP3    H147121   0.543   0.944  10.509  0.5813  1.0518 -1.0755
 7642TIP3    H247122   0.402   0.981  10.465 -0.7838 -0.1471  2.0167
 7643TIP3   OH247123   5.107   2.406  10.653  0.1171 -0.0482 -0.2904
 7643TIP3    H147124   5.127   2.320  10.691 -1.0741 -0.0734  0.3264
 7643TIP3    H247125   5.040   2.443  10.711 -0.3724  0.7297 -1.3143
 7644TIP3   OH247126   2.755   6.236   9.925 -0.0421 -0.4005 -0.2323
 7644TIP3    H147127   2.749   6.321   9.882  0.0262  0.2438  0.9900
 7644TIP3    H247128   2.755   6.172   9.853  1.0249  0.6700 -1.2249
 7645TIP3   OH247129   6.595   3.894  11.674 -0.2400 -0.7123 -0.0112
 7645TIP3    H147130   6.675   3.872  11.721 -1.2950 -0.2648  2.1540
 7645TIP3    H247131   6.575   3.983  11.702 -1.2853 -0.6822 -0.7997
 7646TIP3   OH247132   6.586   5.138  10.874  0.3042  0.1200  0.7793
 7646TIP3    H147133   6.654   5.157  10.808  0.8113  0.2681  1.3335
 7646TIP3    H247134   6.525   5.080  10.829  0.0766  1.0587 -0.1650
 7647TIP3   OH247135   0.214   7.102   9.708  0.0404 -0.4234  0.0038
 7647TIP3    H147136   0.227   7.181   9.656  1.9899 -1.1613 -0.7388
 7647TIP3    H247137   0.140   7.058   9.666  0.5720 -0.2219 -1.1978
 7648TIP3   OH247138   1.845   5.521  12.218 -0.1707  0.2007 -0.1617
 7648TIP3    H147139   1.835   5.429  12.243  0.8861  0.1772  0.2101
 7648TIP3    H247140   1.939   5.536  12.215 -0.3190  1.1758 -0.6107
 7649TIP3   OH247141   3.581   0.722   9.994 -0.5807  0.7886 -0.4093
 7649TIP3    H147142   3.523   0.654   9.961  1.9364 -1.8565  0.1393
 7649TIP3    H247143   3.619   0.684  10.074  3.7109  1.1295 -1.9967
 7650TIP3   OH247144   2.635   6.508  10.977 -0.0429  0.1759 -0.6298
 7650TIP3    H147145   2.717   6.545  11.009  0.5642 -0.9146 -0.8501
 7650TIP3    H247146   2.614   6.439  11.040 -0.6318  0.2544 -0.7369
 7651TIP3   OH247147   3.973   1.423  10.198  0.2736 -0.1825  0.0579
 7651TIP3    H147148   3.942   1.412  10.108 -1.9846  1.4310  0.5425
 7651TIP3    H247149   4.006   1.513  10.201 -1.5360  0.4929  1.2638
 7652TIP3   OH247150   5.352   1.738  11.867  0.5286  0.0154  0.0768
 7652TIP3    H147151   5.288   1.804  11.841 -0.4105 -0.5137  0.9478
 7652TIP3    H247152   5.322   1.658  11.825 -0.1249 -0.5105  1.4902
 7653TIP3   OH247153   5.387   4.421  11.550 -0.2851 -0.7672  0.0481
 7653TIP3    H147154   5.446   4.496  11.555  0.7499 -1.5750  0.3560
 7653TIP3    H247155   5.398   4.376  11.634  0.8634 -2.5011 -0.9357
 7654TIP3   OH247156   1.834   3.727  11.012 -0.4046  0.2762  0.2937
 7654TIP3    H147157   1.776   3.802  11.009 -1.0087 -0.0992  1.7700
 7654TIP3    H247158   1.810   3.681  11.093  2.8883  0.8767  1.7976
 7655TIP3   OH247159   6.588   7.050   9.705 -0.1465 -0.0912 -0.3837
 7655TIP3    H147160   6.528   6.978   9.688  0.3571 -0.1279 -2.1887
 7655TIP3    H247161   6.674   7.017   9.679  0.3959  0.5474  0.5273
 7656TIP3   OH247162   5.441   5.407   9.912 -0.1743  0.1614  0.0429
 7656TIP3    H147163   5.508   5.342   9.894  0.2401  0.1429  1.5024
 7656TIP3    H247164   5.372   5.359   9.958  0.6057  0.9058  2.0807
 7657TIP3   OH247165   3.557   4.833   9.574  0.1625  0.2674  0.0834
 7657TIP3    H147166   3.621   4.762   9.572  0.3473  0.3105  2.3071
 7657TIP3    H247167   3.485   4.802   9.519  0.2263 -1.6763  1.0290
 7658TIP3   OH247168   5.500   5.626  10.828 -0.9031 -0.0270 -0.2997
 7658TIP3    H147169   5.413   5.624  10.869 -1.8796 -0.8821 -2.3052
 7658TIP3    H247170   5.495   5.698  10.765 -0.0414  0.1032 -0.2287
 7659TIP3   OH247171   1.780   0.309  11.684  0.8529 -0.3126 -0.0046
 7659TIP3    H147172   1.701   0.363  11.670 -0.0511 -1.0165  2.0372
 7659TIP3    H247173   1.791   0.262  11.602 -0.8428 -0.1585 -0.3579
 7660TIP3   OH247174   0.980   0.349  10.132 -0.2815 -0.5552 -0.1430
 7660TIP3    H147175   0.991   0.388  10.219  1.0228 -0.6607 -0.2447
 7660TIP3    H247176   0.955   0.422  10.076 -1.0397 -0.4681  0.2889
 7661TIP3   OH247177   7.040   7.007  10.414  0.3013  0.2787  0.0480
 7661TIP3    H147178   6.986   6.978  10.340  0.4260  0.4673 -0.1193
 7661TIP3    H247179   6.978   7.027  10.483  0.2136 -0.3917  0.1670
 7662TIP3   OH247180   4.173   4.207  11.473 -0.0927 -0.5728 -0.1278
 7662TIP3    H147181   4.236   4.168  11.533  0.1681 -0.0756 -0.0737
 7662TIP3    H247182   4.087   4.181  11.507 -0.0557  1.4599  1.7470
 7663TIP3   OH247183   0.554   4.871  11.493 -0.1303 -0.6820  0.1641
 7663TIP3    H147184   0.588   4.847  11.579  0.3889 -1.8795 -0.3517
 7663TIP3    H247185   0.575   4.963  11.483  0.2901 -0.6738  1.0976
 7664TIP3   OH247186   3.557   1.837  10.815  0.3277 -0.2445 -0.3901
 7664TIP3    H147187   3.576   1.752  10.775  0.8593 -0.2230 -0.1847
 7664TIP3    H247188   3.642   1.878  10.827  0.0943  0.1980 -0.2160
 7665TIP3   OH247189   6.999   7.232  10.707  0.0873  0.5571 -0.3303
 7665TIP3    H147190   6.908   7.259  10.718  0.2054  0.3676  1.4270
 7665TIP3    H247191   7.014   7.169  10.777  2.2399  2.4279  1.0330
 7666TIP3   OH247192   6.721   1.453  10.084 -0.0732 -0.4654 -0.1580
 7666TIP3    H147193   6.691   1.365  10.062 -1.7904 -0.5900  2.3023
 7666TIP3    H247194   6.815   1.443  10.097  0.0368 -1.5486 -1.5009
 7667TIP3   OH247195   0.352   2.240  11.509 -0.0592  0.0379  0.0110
 7667TIP3    H147196   0.267   2.260  11.471 -0.2854 -0.4989  0.2299
 7667TIP3    H247197   0.371   2.151  11.479  0.7060  0.3707 -0.5365
 7668TIP3   OH247198   6.853   3.530  11.072 -0.3442 -0.5557 -0.2856
 7668TIP3    H147199   6.942   3.554  11.047 -0.3815 -1.1559 -1.0318
 7668TIP3    H247200   6.798   3.561  11.000 -0.9315  1.0331  0.7859
 7669TIP3   OH247201   1.651   3.043   9.325  0.0646  0.4743  0.4016
 7669TIP3    H147202   1.682   3.107   9.261  0.1039  1.7558  1.6607
 7669TIP3    H247203   1.576   3.002   9.283 -0.7537  2.2491  0.0460
 7670TIP3   OH247204   2.517   7.235  10.298 -0.2550 -0.0291  0.2484
 7670TIP3    H147205   2.582   7.169  10.274  0.7925  1.0425  0.0615
 7670TIP3    H247206   2.441   7.184  10.327  0.0294 -1.3267 -1.1528
 7671TIP3   OH247207   0.945   6.374   9.556  0.8410 -0.3174 -0.4818
 7671TIP3    H147208   0.936   6.438   9.627  1.8517 -0.2936 -0.3521
 7671TIP3    H247209   1.024   6.400   9.510  1.3272 -1.5141 -0.3703
 7672TIP3   OH247210   2.321   5.790  10.937 -0.4242 -0.2852 -0.4445
 7672TIP3    H147211   2.373   5.745  10.870  1.2327  0.2046  0.4427
 7672TIP3    H247212   2.231   5.763  10.919 -0.0430 -0.2744 -2.7780
 7673TIP3   OH247213   0.987   3.037  10.667  0.2935  0.1545  0.6446
 7673TIP3    H147214   1.026   3.107  10.615 -0.5345  0.2776  0.1831
 7673TIP3    H247215   0.955   2.974  10.602 -0.1460 -0.0154  1.0280
 7674TIP3   OH247216   4.353   0.766  10.473 -0.1265  0.1841  0.2948
 7674TIP3    H147217   4.295   0.694  10.498 -1.6290  1.0879 -0.4315
 7674TIP3    H247218   4.440   0.738  10.500 -0.8907 -1.2629  1.3471
 7675TIP3   OH247219   5.916   4.915  10.960  0.3373  0.1906  0.0175
 7675TIP3    H147220   5.974   4.893  11.033 -0.0830 -1.8845 -0.2266
 7675TIP3    H247221   5.917   4.838  10.904 -1.9430  0.4452 -0.4736
 7676TIP3   OH247222   2.949   1.010  12.302 -0.8434 -0.1781  0.0920
 7676TIP3    H147223   2.917   0.922  12.284 -0.5861 -0.4318  0.8720
 7676TIP3    H247224   2.883   1.048  12.361 -0.3007 -0.3072  0.7930
 7677TIP3   OH247225   7.083   7.313  10.445  0.1059  0.4105  0.3908
 7677TIP3    H147226   7.075   7.300  10.540  0.3985 -0.1309  0.3465
 7677TIP3    H247227   7.075   7.225  10.408  0.1113  0.6042 -0.0794
 7678TIP3   OH247228   5.052   4.807  11.362 -0.7642  0.0947  0.0486
 7678TIP3    H147229   5.099   4.756  11.296  0.8150  1.4475  0.0659
 7678TIP3    H247230   5.013   4.879  11.313 -0.3233  0.6128  0.4388
 7679TIP3   OH247231   6.953   3.464  10.031 -0.1873 -0.1092  0.2355
 7679TIP3    H147232   6.929   3.391  10.089  0.5730 -0.1636  0.4935
 7679TIP3    H247233   6.967   3.538  10.091 -2.1083  0.6009 -0.1031
 7680TIP3   OH247234   7.478   3.175  12.698 -0.6175  0.2711 -0.4231
 7680TIP3    H147235   7.419   3.122  12.751 -0.7972 -0.6495 -1.5172
 7680TIP3    H247236   7.500   3.119  12.623  1.7122  0.5289 -0.0160
 7681TIP3   OH247237   2.874   0.716  10.147 -0.3836 -0.2644  0.0531
 7681TIP3    H147238   2.885   0.624  10.120  0.5499 -0.0142 -0.4506
 7681TIP3    H247239   2.779   0.727  10.152 -0.5421 -1.0028 -0.8432
 7682TIP3   OH247240   0.748   3.173  10.359 -0.6319  0.3974 -0.1604
 7682TIP3    H147241   0.761   3.084  10.391 -1.4240  0.4096  0.2178
 7682TIP3    H247242   0.815   3.184  10.292  0.5909  0.1175  0.9679
 7683TIP3   OH247243   3.942   7.312  11.580  0.3246  0.0319  0.2106
 7683TIP3    H147244   3.972   7.401  11.562 -0.8584  0.5770  0.8223
 7683TIP3    H247245   4.022   7.264  11.599  0.8167  1.5477  2.3150
 7684TIP3   OH247246   5.682   6.064   9.744 -0.6560  0.1919 -0.3968
 7684TIP3    H147247   5.710   6.011   9.819 -1.4655  0.7160  0.3077
 7684TIP3    H247248   5.728   6.027   9.669 -1.7595 -1.9967 -0.0739
 7685TIP3   OH247249   1.628   4.393  10.851 -0.4241 -0.3022 -0.1172
 7685TIP3    H147250   1.653   4.304  10.826 -0.6710 -0.6708  0.8852
 7685TIP3    H247251   1.611   4.387  10.945 -2.6515  0.2659 -0.4218
 7686TIP3   OH247252   6.951   5.662  10.844 -0.0886  0.6300 -0.5798
 7686TIP3    H147253   6.928   5.588  10.900  0.2376  1.5407  0.8260
 7686TIP3    H247254   6.868   5.704  10.824 -0.2930 -0.1927 -1.5345
 7687TIP3   OH247255   3.249   6.358  11.229 -0.5974  0.0682  0.2951
 7687TIP3    H147256   3.264   6.280  11.176 -1.9641  0.0815 -0.1633
 7687TIP3    H247257   3.270   6.332  11.318 -1.7483 -1.0723  0.2635
 7688TIP3   OH247258   4.171   0.396   9.744 -0.3200 -0.2224 -0.4586
 7688TIP3    H147259   4.218   0.462   9.694  0.5525 -0.6781 -0.2612
 7688TIP3    H247260   4.211   0.399   9.831 -1.9684  0.7275  0.3176
 7689TIP3   OH247261   6.697   7.425  11.043  0.0922  0.4010 -0.8417
 7689TIP3    H147262   6.630   7.475  11.090 -0.5460 -1.7978  0.7687
 7689TIP3    H247263   6.772   7.426  11.102  0.5827  0.6789 -1.4658
 7690TIP3   OH247264   3.993   3.292  11.274 -0.3630  0.0329 -0.4581
 7690TIP3    H147265   3.937   3.360  11.236 -0.1165  1.0736  0.9582
 7690TIP3    H247266   3.958   3.278  11.362  0.2583 -0.9079 -0.3427
 7691TIP3   OH247267   4.991   3.743  11.916  0.0924  0.4612 -1.1147
 7691TIP3    H147268   4.967   3.832  11.892  2.1956  2.0714  2.1262
 7691TIP3    H247269   5.087   3.743  11.917  0.1446 -1.2889  0.5759
 7692TIP3   OH247270   1.039   4.387   9.960 -0.6577 -0.3542  0.7360
 7692TIP3    H147271   1.024   4.401   9.866 -0.9876 -2.7704  0.3802
 7692TIP3    H247272   0.986   4.455  10.002 -0.9447  0.4328 -0.8043
 7693TIP3   OH247273   5.036   4.266  17.082 -0.0549  0.4517  0.2258
 7693TIP3    H147274   5.026   4.271  17.177 -1.2747  0.6800  0.1061
 7693TIP3    H247275   5.072   4.351  17.056 -0.0320  0.5105  0.4514
 7694TIP3   OH247276   4.746   3.027   9.577  0.0375 -0.1689  0.3634
 7694TIP3    H147277   4.668   2.976   9.555 -0.8927  0.2996  2.2942
 7694TIP3    H247278   4.713   3.115   9.596  0.8099 -0.2517  2.3846
 7695TIP3   OH247279   2.987   5.375  10.274 -0.5457  0.1569  0.2154
 7695TIP3    H147280   3.035   5.294  10.289 -0.7717 -0.1188 -0.4936
 7695TIP3    H247281   2.962   5.371  10.182  0.9495  1.8474 -0.3163
 7696TIP3   OH247282   1.896   5.592  10.087 -0.2368  0.3920 -0.1037
 7696TIP3    H147283   1.866   5.507  10.120 -0.9888  0.5007 -0.4993
 7696TIP3    H247284   1.936   5.572  10.003  1.3146  0.1728  0.6547
 7697TIP3   OH247285   0.941   4.038  11.184 -0.0591  0.4085  0.2473
 7697TIP3    H147286   0.872   4.099  11.156 -0.3165 -0.0544 -0.1339
 7697TIP3    H247287   0.895   3.971  11.234 -0.3532 -1.4411 -2.3029
 7698TIP3   OH247288   0.422   6.935  10.002 -0.1684  0.2928  0.4884
 7698TIP3    H147289   0.377   7.017  10.021 -2.1955 -0.6004 -0.1201
 7698TIP3    H247290   0.472   6.915  10.082 -3.3210 -0.1650  2.5258
 7699TIP3   OH247291   1.516   4.838  10.944 -0.5219 -0.2591  0.1317
 7699TIP3    H147292   1.502   4.918  10.995  1.0966 -0.1291  0.4412
 7699TIP3    H247293   1.494   4.863  10.855 -2.0386 -0.0865  0.5229
 7700TIP3   OH247294   2.485   5.368  10.573 -0.1491  0.8921 -0.1642
 7700TIP3    H147295   2.470   5.312  10.649  1.3560 -0.8517 -1.0797
 7700TIP3    H247296   2.457   5.315  10.498  2.1206  0.9520 -1.1288
 7701TIP3   OH247297   5.333   5.237  11.872 -0.0221 -0.2353 -0.5808
 7701TIP3    H147298   5.415   5.243  11.824 -0.1686  0.8293 -0.7356
 7701TIP3    H247299   5.359   5.246  11.964  0.0406  0.1813 -0.6340
 7702TIP3   OH247300   4.564   1.669   9.527 -0.1513 -0.2145  0.1826
 7702TIP3    H147301   4.592   1.757   9.550 -1.3212  0.3388 -0.3978
 7702TIP3    H247302   4.637   1.613   9.552  0.8682  0.9821  0.0060
 7703TIP3   OH247303   3.481   0.164  10.164 -0.1315  0.1866 -0.1316
 7703TIP3    H147304   3.433   0.160  10.081 -1.2379 -1.4163  0.5189
 7703TIP3    H247305   3.420   0.206  10.225 -0.4083 -1.0520  0.4866
 7704TIP3   OH247306   5.727   3.293  10.805  0.2469 -0.0420 -0.2250
 7704TIP3    H147307   5.706   3.276  10.897 -0.2169 -1.4860 -0.5744
 7704TIP3    H247308   5.655   3.348  10.774  0.8069  1.1229  0.4462
 7705TIP3   OH247309   2.041   5.788  11.533 -0.2456  0.2911 -0.2535
 7705TIP3    H147310   2.052   5.772  11.627 -1.3673  0.0784 -0.1490
 7705TIP3    H247311   2.022   5.701  11.496 -1.4319  0.6022 -0.4193
 7706TIP3   OH247312   3.647   4.296  10.383  0.0511 -0.4399 -0.1790
 7706TIP3    H147313   3.709   4.368  10.393  0.3553 -0.3448 -2.1882
 7706TIP3    H247314   3.702   4.221  10.359 -0.4582 -0.7793 -0.3047
 7707TIP3   OH247315   5.128   2.559  11.320 -0.0318  0.9306  0.7905
 7707TIP3    H147316   5.219   2.581  11.341  0.0502 -0.3052  1.8483
 7707TIP3    H247317   5.128   2.465  11.306 -1.1907  0.8735  1.0484
 7708TIP3   OH247318   2.739   0.826  10.736 -0.7858  0.3558  0.8114
 7708TIP3    H147319   2.695   0.865  10.660  0.6322  0.1253 -0.1522
 7708TIP3    H247320   2.810   0.774  10.699 -0.8306 -0.7735  2.2481
 7709TIP3   OH247321   0.181   3.988  12.204 -0.3590  0.3743  0.0870
 7709TIP3    H147322   0.146   3.989  12.293  1.1890  0.6919  0.7427
 7709TIP3    H247323   0.181   4.080  12.178 -1.0734  0.2518 -0.3645
 7710TIP3   OH247324   6.209   6.487  10.991 -0.0910  0.1111 -0.7228
 7710TIP3    H147325   6.262   6.533  11.056  0.0309 -0.1520 -0.6342
 7710TIP3    H247326   6.149   6.553  10.958  1.2518  0.7781 -1.8909
 7711TIP3   OH247327   5.827   7.151  10.942  0.5639 -0.9086  0.0278
 7711TIP3    H147328   5.864   7.238  10.960 -1.5946 -0.1825  1.1899
 7711TIP3    H247329   5.873   7.122  10.863  1.1992  1.3681 -0.5033
 7712TIP3   OH247330   0.465   2.853  11.403 -0.2207 -0.7494 -0.1338
 7712TIP3    H147331   0.374   2.880  11.393  0.1698  0.7654  0.2061
 7712TIP3    H247332   0.511   2.899  11.333  0.2049 -2.0454 -0.7387
 7713TIP3   OH247333   6.432   6.499  10.815  0.0705 -0.1046  0.1954
 7713TIP3    H147334   6.463   6.586  10.842 -1.2399  0.3033  0.4581
 7713TIP3    H247335   6.352   6.485  10.865 -0.3898 -0.9506 -0.7309
 7714TIP3   OH247336   4.551   4.380  10.836 -0.3211  0.0874 -0.2416
 7714TIP3    H147337   4.612   4.365  10.763 -0.9720  1.1599 -1.0246
 7714TIP3    H247338   4.603   4.428  10.900  0.1373 -0.5074 -0.1497
 7715TIP3   OH247339   7.235   2.853  11.709  0.0254 -0.1853  0.2655
 7715TIP3    H147340   7.201   2.920  11.649 -1.9108 -1.8437 -0.5914
 7715TIP3    H247341   7.324   2.883  11.730 -0.0613  1.6257 -1.6221
 7716TIP3   OH247342   2.508   6.335  12.261 -0.1795  0.3875  0.2522
 7716TIP3    H147343   2.550   6.254  12.289 -2.7923 -0.9106  0.7135
 7716TIP3    H247344   2.499   6.386  12.342  2.5725  1.8374 -0.2074
 7717TIP3   OH247345   5.656   2.457   9.990 -0.1961  0.0568 -0.0841
 7717TIP3    H147346   5.604   2.429   9.915 -1.1639 -0.2634  0.6917
 7717TIP3    H247347   5.592   2.474  10.059  0.7005  0.0436  0.7666
 7718TIP3   OH247348   2.108   6.428  10.849  0.2959  0.0039 -0.2292
 7718TIP3    H147349   2.106   6.387  10.763  0.1932 -2.0407  0.6804
 7718TIP3    H247350   2.109   6.354  10.910  3.2250  1.3166  1.5181
 7719TIP3   OH247351   4.269   5.206  10.911  0.8869  0.3231  0.4283
 7719TIP3    H147352   4.209   5.132  10.923  0.6293  0.5790  0.7605
 7719TIP3    H247353   4.355   5.170  10.930  0.6528  0.3371  1.5836
 7720TIP3   OH247354   1.677   2.746  12.160  0.1596 -0.3104  0.0109
 7720TIP3    H147355   1.671   2.771  12.252  0.8146  0.2998 -0.1030
 7720TIP3    H247356   1.698   2.827  12.114 -1.6869 -0.2795 -0.8918
 7721TIP3   OH247357   6.428   3.296  10.942  0.0651  0.3095 -0.1711
 7721TIP3    H147358   6.356   3.345  10.982 -1.1377  0.1399 -1.9666
 7721TIP3    H247359   6.385   3.244  10.873  1.9919  0.7043 -1.7437
 7722TIP3   OH247360   7.059   1.621  11.522 -0.1784 -0.1579 -0.2261
 7722TIP3    H147361   7.062   1.708  11.561 -0.3203 -0.7146  1.0702
 7722TIP3    H247362   7.107   1.630  11.440 -3.5782  2.1121 -2.2159
 7723TIP3   OH247363   0.519   6.416  11.463  0.0152  0.0330  0.1227
 7723TIP3    H147364   0.463   6.464  11.523  1.0435  1.4500  0.0219
 7723TIP3    H247365   0.460   6.381  11.397 -0.6640  3.4929 -1.3473
 7724TIP3   OH247366   0.423   1.568  11.643 -0.5678  0.3011 -0.0271
 7724TIP3    H147367   0.435   1.550  11.736 -2.4131 -0.2961  0.1478
 7724TIP3    H247368   0.480   1.642  11.625  1.9039 -1.2654  0.9105
 7725TIP3   OH247369   0.225   1.019  11.405 -0.1704  0.2721  0.6490
 7725TIP3    H147370   0.188   0.995  11.489 -0.0274 -0.6909  0.4538
 7725TIP3    H247371   0.308   0.971  11.400 -0.0393  0.5409  0.0935
 7726TIP3   OH247372   0.652   3.733  12.024  0.3158 -0.3777  0.3887
 7726TIP3    H147373   0.621   3.798  11.961  0.3454  0.6973  1.4470
 7726TIP3    H247374   0.695   3.667  11.971  2.8009  1.8372 -0.5576
 7727TIP3   OH247375   5.650   5.439  10.567  0.3494  0.0863  0.3281
 7727TIP3    H147376   5.649   5.398  10.481  0.6781 -2.0591  1.2765
 7727TIP3    H247377   5.562   5.426  10.601  0.7182 -0.6830  1.0088
 7728TIP3   OH247378   3.765   2.801  10.514 -0.0412 -0.6237  0.1494
 7728TIP3    H147379   3.727   2.834  10.433 -1.3801 -1.5430  0.3775
 7728TIP3    H247380   3.805   2.717  10.489 -0.9549 -1.1835  0.5454
 7729TIP3   OH247381   1.983   2.190  10.654  0.1583 -0.3453 -0.0122
 7729TIP3    H147382   2.075   2.174  10.671  0.3592  2.0995  1.6507
 7729TIP3    H247383   1.956   2.253  10.722 -2.4797 -0.2583 -1.0157
 7730TIP3   OH247384   0.278   5.211  10.505  0.2895  0.6161 -0.3239
 7730TIP3    H147385   0.183   5.201  10.497  0.5344 -0.8801 -1.9658
 7730TIP3    H247386   0.304   5.254  10.424  1.0020  1.3615  0.2846
 7731TIP3   OH247387   5.547   4.074  11.669 -0.6809 -0.2755  0.6066
 7731TIP3    H147388   5.560   4.077  11.574 -0.9998  1.5034  0.5964
 7731TIP3    H247389   5.453   4.090  11.680 -0.5532  0.0268  1.2572
 7732TIP3   OH247390   6.649   2.394  11.526 -0.2954 -0.8472  0.1564
 7732TIP3    H147391   6.737   2.357  11.524  0.2387  0.3959 -0.6994
 7732TIP3    H247392   6.592   2.322  11.501  0.7883 -0.9754 -2.2230
 7733TIP3   OH247393   3.997   6.664  10.354  0.1670 -0.1636  0.4343
 7733TIP3    H147394   4.036   6.751  10.366  2.5870 -0.7421 -2.2734
 7733TIP3    H247395   4.065   6.602  10.379 -0.6740 -1.2822  0.0576
 7734TIP3   OH247396   0.424   2.573  11.371  0.0850  0.3178  1.0603
 7734TIP3    H147397   0.507   2.538  11.338 -0.9353 -0.6306 -0.6625
 7734TIP3    H247398   0.448   2.655  11.413  1.8892  0.1093  0.5306
 7735TIP3   OH247399   1.895   2.854  11.599  0.6774 -0.1366 -0.8978
 7735TIP3    H147400   1.859   2.934  11.637  2.1120  0.6017 -1.0067
 7735TIP3    H247401   1.845   2.783  11.639 -1.9477  0.8393 -2.2097
 7736TIP3   OH247402   4.767   2.773   9.966  0.3879  0.0571  0.5245
 7736TIP3    H147403   4.697   2.729  10.014  0.6781 -0.2495  0.6699
 7736TIP3    H247404   4.728   2.792   9.880 -0.1185  0.5798  0.8693
 7737TIP3   OH247405   0.206   3.824   9.907  0.6890  0.0872 -0.1959
 7737TIP3    H147406   0.257   3.880   9.849  0.9391  0.0309 -0.0343
 7737TIP3    H247407   0.222   3.860   9.995  0.1517  0.3001 -0.1780
 7738TIP3   OH247408   7.009   7.174  11.727  0.1268 -0.2920 -0.1078
 7738TIP3    H147409   7.011   7.105  11.660 -0.5993 -0.0705 -0.3636
 7738TIP3    H247410   7.086   7.157  11.781 -0.0979 -1.3815 -0.1043
 7739TIP3   OH247411   0.784   7.435  10.265  0.1738 -0.0317 -0.4073
 7739TIP3    H147412   0.847   7.499  10.299 -0.1251 -0.7012  1.5144
 7739TIP3    H247413   0.719   7.426  10.334  0.2385 -2.4548 -0.5718
 7740TIP3   OH247414   6.278   7.451  11.668 -0.5085 -0.2522 -0.2118
 7740TIP3    H147415   6.363   7.458  11.624 -1.0709 -0.1341 -1.3397
 7740TIP3    H247416   6.234   7.379  11.622 -0.8448 -0.6251  0.6741
 7741TIP3   OH247417   4.599   4.386   9.896 -0.5478  0.8411  1.1759
 7741TIP3    H147418   4.590   4.295   9.926 -0.1048  0.2236 -0.4276
 7741TIP3    H247419   4.514   4.406   9.856  0.0713  0.3002 -0.4980
 7742TIP3   OH247420   4.563   4.963   9.812 -0.2455 -0.1403  0.0510
 7742TIP3    H147421   4.527   4.874   9.808 -0.8754  0.1574 -1.7994
 7742TIP3    H247422   4.493   5.016   9.849 -0.7140 -0.0470 -0.9413
 7743TIP3   OH247423   2.138   1.152  12.006 -0.0343  0.1548  0.2910
 7743TIP3    H147424   2.134   1.153  12.102 -1.6732 -1.3329  0.2866
 7743TIP3    H247425   2.144   1.059  11.983 -0.9862  0.3914 -1.0566
 7744TIP3   OH247426   2.513   2.825  11.570  0.4944  0.1578 -0.7102
 7744TIP3    H147427   2.563   2.900  11.602 -0.4669  0.0094  1.2593
 7744TIP3    H247428   2.485   2.851  11.482 -0.0311  2.2418  0.0062
 7745TIP3   OH247429   2.135   3.679   9.871  0.5530 -0.0818  1.2631
 7745TIP3    H147430   2.149   3.586   9.885  0.1487 -0.1819  1.0410
 7745TIP3    H247431   2.055   3.683   9.817 -0.8210  0.4678  3.2112
 7746TIP3   OH247432   0.516   1.588  11.257  0.0152  0.5507  0.0256
 7746TIP3    H147433   0.450   1.614  11.321  0.5825  2.2899 -0.0324
 7746TIP3    H247434   0.491   1.500  11.231 -1.7709  0.8295  0.6513
 7747TIP3   OH247435   5.526   5.625  10.085 -0.3754 -0.6171  0.3684
 7747TIP3    H147436   5.548   5.538  10.050 -0.8217 -0.6580  0.1745
 7747TIP3    H247437   5.592   5.683  10.047 -1.6667 -0.4133 -1.7610
 7748TIP3   OH247438   0.470   6.900  11.959  0.0803  0.2437  0.2406
 7748TIP3    H147439   0.449   6.865  12.046 -0.4398 -0.5621 -0.1976
 7748TIP3    H247440   0.560   6.872  11.943 -0.2983 -0.8547 -0.0673
 7749TIP3   OH247441   4.434   5.657   9.889  0.0571 -0.3026  0.0050
 7749TIP3    H147442   4.376   5.583   9.909  0.3517 -1.0073 -1.6189
 7749TIP3    H247443   4.522   5.626   9.910 -0.0656  1.0403  3.2650
 7750TIP3   OH247444   4.410   4.398  11.190 -0.7034  0.1669 -0.3946
 7750TIP3    H147445   4.428   4.464  11.123 -2.1491 -0.1541 -1.1384
 7750TIP3    H247446   4.314   4.391  11.192 -0.6299 -0.8262  0.7370
 7751TIP3   OH247447   4.070   7.074  11.040 -0.0095 -0.1595 -0.0276
 7751TIP3    H147448   4.067   7.043  11.130  0.2794  0.4414  0.1950
 7751TIP3    H247449   4.065   7.169  11.047  1.1070 -0.0384 -0.5778
 7752TIP3   OH247450   7.414   1.195  11.483 -0.1793 -0.1900  0.3988
 7752TIP3    H147451   7.439   1.234  11.399 -1.0305  0.7360  0.5540
 7752TIP3    H247452   7.442   1.259  11.548  0.8061 -1.0730  0.8562
 7753TIP3   OH247453   7.340   4.241  10.694  0.4113 -0.1156 -0.2750
 7753TIP3    H147454   7.280   4.173  10.724 -0.0877  0.7757  0.8266
 7753TIP3    H247455   7.426   4.199  10.694 -0.0404 -1.0550 -0.6813
 7754TIP3   OH247456   3.663   4.520   9.619 -0.1805 -0.2854 -0.4814
 7754TIP3    H147457   3.636   4.502   9.709 -0.3419 -1.1616 -0.6978
 7754TIP3    H247458   3.581   4.530   9.571 -0.0949 -0.2771 -0.6259
 7755TIP3   OH247459   6.492   0.528  10.041  0.0700  0.7229 -0.2432
 7755TIP3    H147460   6.400   0.546  10.058  0.1456  0.5272  0.3962
 7755TIP3    H247461   6.516   0.461  10.105  0.1320 -0.7672 -1.7665
 7756TIP3   OH247462   6.607   5.061   9.804 -0.4089  0.6393 -0.0493
 7756TIP3    H147463   6.556   5.020   9.873 -0.3635 -2.4616 -1.6690
 7756TIP3    H247464   6.541   5.095   9.743 -0.4930  0.5989  0.0189
 7757TIP3   OH247465   4.249   2.956  10.735  0.2071 -0.5151  0.3797
 7757TIP3    H147466   4.218   3.045  10.722 -0.6094 -0.9549 -1.0043
 7757TIP3    H247467   4.345   2.963  10.733  0.1467  0.2955 -0.0661
 7758TIP3   OH247468   3.054   3.126  10.060  0.0599 -0.0645 -0.3334
 7758TIP3    H147469   2.988   3.175  10.010 -1.2115  1.4482  2.5697
 7758TIP3    H247470   3.118   3.193  10.086  1.1859 -0.9854 -0.6627
 7759TIP3   OH247471   4.561   1.880  10.267  0.0558  0.2475 -0.2641
 7759TIP3    H147472   4.505   1.936  10.214 -0.3232 -0.7113 -0.8949
 7759TIP3    H247473   4.518   1.795  10.268  1.5022 -0.5360 -0.8171
 7760TIP3   OH247474   4.866   6.962  11.104 -0.1223 -0.7316  0.0542
 7760TIP3    H147475   4.942   7.017  11.085 -2.2515  1.6650 -2.3510
 7760TIP3    H247476   4.842   6.985  11.194  0.4847  0.4852 -0.0704
 7761TIP3   OH247477   0.572   7.229  10.058 -0.0899  0.2096 -0.0282
 7761TIP3    H147478   0.487   7.231  10.014  0.4417 -1.4853 -1.2418
 7761TIP3    H247479   0.560   7.166  10.130  0.1138  0.0273 -0.1532
 7762TIP3   OH247480   0.872   2.470  10.670  0.5936 -0.0041 -0.1006
 7762TIP3    H147481   0.879   2.541  10.734  1.0913  0.8445 -1.0547
 7762TIP3    H247482   0.963   2.449  10.649  0.4397 -0.4522 -0.3190
 7763TIP3   OH247483   5.475   0.012  11.634  0.5012  0.0168 -0.0779
 7763TIP3    H147484   5.424  -0.060  11.670  0.0051  0.9283  1.1029
 7763TIP3    H247485   5.472   0.080  11.701  0.3371  1.4327 -1.4577
 7764TIP3   OH247486   3.605   1.596   9.447 -0.3946  0.3923 -0.1280
 7764TIP3    H147487   3.510   1.596   9.457 -0.3205  0.0409  0.6300
 7764TIP3    H247488   3.636   1.661   9.510 -0.0777 -0.1479  0.2833
 7765TIP3   OH247489   0.938   1.738  11.519  0.1101 -0.2429  0.6077
 7765TIP3    H147490   0.941   1.770  11.609 -0.0885  4.1020 -0.6961
 7765TIP3    H247491   1.023   1.762  11.482 -0.3897 -0.4982 -0.7662
 7766TIP3   OH247492   1.062   6.269   9.838  0.0912  0.5095 -0.0823
 7766TIP3    H147493   1.087   6.359   9.860 -0.5055  0.5853  0.3080
 7766TIP3    H247494   0.971   6.275   9.812 -0.1014 -0.0625  0.4499
 7767TIP3   OH247495   6.951   3.901  10.905  0.3098  0.3892  0.0653
 7767TIP3    H147496   7.004   3.829  10.873 -1.4448 -0.7070 -0.4686
 7767TIP3    H247497   6.897   3.927  10.831  0.7590  2.1823  0.2928
 7768TIP3   OH247498   3.768   2.193  10.999  0.0656  0.3729 -0.4366
 7768TIP3    H147499   3.789   2.285  11.017 -1.5330  0.4653  1.4036
 7768TIP3    H247500   3.716   2.166  11.075  0.9644 -2.2360 -0.6531
 7769TIP3   OH247501   1.311   3.311  10.105 -0.1150 -0.3707 -0.2371
 7769TIP3    H147502   1.405   3.297  10.119 -0.1086 -0.3682 -0.2750
 7769TIP3    H247503   1.276   3.223  10.091 -0.1748 -0.4024  0.1072
 7770TIP3   OH247504   1.897   6.168  11.213  0.2118 -0.0731  0.1070
 7770TIP3    H147505   1.937   6.229  11.274  0.0791 -0.0712  0.1913
 7770TIP3    H247506   1.874   6.092  11.266  1.8249 -0.8869 -0.2595
 7771TIP3   OH247507   3.573   5.026  10.648 -0.3223 -0.1930 -0.0115
 7771TIP3    H147508   3.560   4.978  10.730  1.5904  1.9974  1.7192
 7771TIP3    H247509   3.662   5.003  10.621 -0.9003 -0.8169 -1.4838
 7772TIP3   OH247510   1.448   7.457   9.848 -0.0455 -0.3444  0.3495
 7772TIP3    H147511   1.406   7.500   9.773 -0.5299 -0.1656  0.7183
 7772TIP3    H247512   1.413   7.368   9.847  1.3149 -0.9112 -0.6983
 7773TIP3   OH247513   4.111   1.884  11.734 -0.3284 -0.0957  0.0466
 7773TIP3    H147514   4.201   1.914  11.747 -0.9830  1.3106  1.9824
 7773TIP3    H247515   4.058   1.960  11.758 -2.0598 -1.8522  2.2342
 7774TIP3   OH247516   4.840   1.543   9.759 -0.2491  0.3059  0.2195
 7774TIP3    H147517   4.784   1.607   9.716 -0.0442 -0.7384 -1.7060
 7774TIP3    H247518   4.810   1.459   9.727  0.9860 -0.4261  0.8957
 7775TIP3   OH247519   3.952   6.724  10.665  0.2584 -0.0780 -0.3082
 7775TIP3    H147520   4.004   6.758  10.593  2.6587 -0.4061  1.1616
 7775TIP3    H247521   3.862   6.753  10.646  1.2946  2.4048 -1.8476
 7776TIP3   OH247522   3.656   5.274   9.660  0.0757  0.4721 -0.0807
 7776TIP3    H147523   3.659   5.293   9.567 -1.4495 -0.5694 -0.3861
 7776TIP3    H247524   3.685   5.183   9.667  1.3572  0.9093  0.6238
 7777TIP3   OH247525   0.431   5.448   9.849 -0.4218  0.4941  0.5016
 7777TIP3    H147526   0.495   5.387   9.811 -1.5331 -1.6407  1.8168
 7777TIP3    H247527   0.469   5.472   9.933 -0.1645  1.3429  0.1494
 7778TIP3   OH247528   7.205   3.533  10.432 -0.1181 -0.4436  0.3645
 7778TIP3    H147529   7.254   3.463  10.475 -0.4719  0.0581  1.6276
 7778TIP3    H247530   7.261   3.610  10.440 -0.6545 -0.0976  0.9336
 7779TIP3   OH247531   1.434   2.952  10.291 -0.5847  0.9534  0.3063
 7779TIP3    H147532   1.381   3.001  10.228 -1.6714  0.2577  0.6601
 7779TIP3    H247533   1.490   2.897  10.236 -0.8381  1.0584 -0.0644
 7780TIP3   OH247534   1.049   2.285  10.284 -0.4383  0.3602 -0.3933
 7780TIP3    H147535   0.977   2.311  10.341  2.1619 -1.2139  4.1028
 7780TIP3    H247536   1.035   2.191  10.269  1.0021 -0.1744  1.2915
 7781TIP3   OH247537   1.239   1.415  11.846  0.2290 -0.4582 -0.0740
 7781TIP3    H147538   1.167   1.410  11.909 -2.2132 -0.4143 -2.6515
 7781TIP3    H247539   1.275   1.326  11.843  0.2826 -0.4936  1.2372
 7782TIP3   OH247540   2.285   4.687  10.080 -0.4103 -0.3806  0.0862
 7782TIP3    H147541   2.242   4.673   9.996 -1.3323 -0.1983  0.5221
 7782TIP3    H247542   2.252   4.617  10.136 -0.6925  0.1894  0.6338
 7783TIP3   OH247543   5.066   0.578  12.008  0.0853  0.0365  0.0446
 7783TIP3    H147544   5.009   0.654  11.998 -1.0101 -0.7882 -0.2171
 7783TIP3    H247545   5.010   0.503  11.984  1.3675 -0.7702 -0.5350
 7784TIP3   OH247546   6.977   3.178   9.845  0.6300 -0.1895  0.8076
 7784TIP3    H147547   6.943   3.201   9.932  0.6020 -0.5866  0.9032
 7784TIP3    H247548   6.946   3.248   9.788  0.2519 -0.1729  1.0296
 7785TIP3   OH247549   2.522   4.079  11.895  0.0605  0.2823  0.8017
 7785TIP3    H147550   2.450   4.033  11.939 -0.4677 -0.0817 -0.3962
 7785TIP3    H247551   2.479   4.126  11.824  1.0261 -0.0640 -0.0251
 7786TIP3   OH247552   4.248   6.677  12.907  0.8434  0.1755 -0.0516
 7786TIP3    H147553   4.316   6.618  12.876  0.3597 -0.8330  0.7387
 7786TIP3    H247554   4.257   6.676  13.002 -0.5075 -0.2959  0.0937
 7787TIP3   OH247555   2.878   1.734   9.585  0.0300 -0.1367 -0.2093
 7787TIP3    H147556   2.788   1.709   9.609 -0.4627  0.7820 -1.0098
 7787TIP3    H247557   2.928   1.653   9.592 -0.6363 -0.4562  1.2730
 7788TIP3   OH247558   3.988   6.716  11.845  0.5291  0.2090 -0.3436
 7788TIP3    H147559   4.073   6.691  11.883  0.1830  0.5913  0.7460
 7788TIP3    H247560   3.952   6.635  11.810  0.7494 -0.2226  0.4039
 7789TIP3   OH247561   0.038   0.674  10.448  0.3659  0.5659 -0.3272
 7789TIP3    H147562  -0.040   0.703  10.401 -0.5245 -0.8045  0.2290
 7789TIP3    H247563   0.100   0.747  10.440 -0.3971  1.0643 -2.0883
 7790TIP3   OH247564   2.740   4.599   9.536  0.6738  0.3397 -0.2371
 7790TIP3    H147565   2.736   4.508   9.564 -0.3643  0.2526 -0.6107
 7790TIP3    H247566   2.705   4.598   9.447 -0.0669  1.2010  0.0313
 7791TIP3   OH247567   6.012   6.054  12.398 -0.2731 -0.1709  0.0894
 7791TIP3    H147568   6.090   6.007  12.428  0.1405  0.5240  0.1269
 7791TIP3    H247569   6.016   6.137  12.445 -1.3974 -0.3893  0.5977
 7792TIP3   OH247570   0.566   6.701  11.456 -0.2803 -0.1871 -0.1364
 7792TIP3    H147571   0.550   6.607  11.448 -1.7317  0.0702 -0.5759
 7792TIP3    H247572   0.483   6.741  11.432  0.2443  1.2083  0.2956
 7793TIP3   OH247573   3.053   6.062  12.003 -0.6496 -0.2617  0.3105
 7793TIP3    H147574   3.014   6.145  12.032 -0.6921 -0.2460  0.2096
 7793TIP3    H247575   3.011   6.045  11.919  0.2909  0.2643 -0.2813
 7794TIP3   OH247576   6.848   3.375  11.315  0.1552 -0.2316  0.4134
 7794TIP3    H147577   6.769   3.324  11.297  0.1002  0.1174 -0.3982
 7794TIP3    H247578   6.846   3.446  11.251  1.3139 -0.4285  0.1312
 7795TIP3   OH247579   1.263   0.396  11.544 -1.0726  0.4592  0.5012
 7795TIP3    H147580   1.187   0.439  11.583  1.4207  2.1891  3.9803
 7795TIP3    H247581   1.272   0.315  11.595 -0.0201  0.8042  0.8880
 7796TIP3   OH247582   2.328   6.661  12.042  0.1811 -0.4367  0.2185
 7796TIP3    H147583   2.417   6.645  12.073  0.5196  0.2759 -0.3572
 7796TIP3    H247584   2.335   6.655  11.946 -0.6392 -1.5845  0.2065
 7797TIP3   OH247585   3.079   0.525   9.988 -0.0140  0.1742 -0.1558
 7797TIP3    H147586   3.136   0.555  10.058 -0.5149 -0.3032  0.4787
 7797TIP3    H247587   3.125   0.547   9.907  0.3530  1.1737  0.3099
 7798TIP3   OH247588   4.254   3.539  10.326  0.2262 -0.1242  0.1249
 7798TIP3    H147589   4.193   3.582  10.266  0.9160 -1.4856 -1.6533
 7798TIP3    H247590   4.332   3.595  10.324  0.8858 -1.0261 -1.6767
 7799TIP3   OH247591   4.993   3.955  10.252 -0.2685 -0.0520  0.6858
 7799TIP3    H147592   4.968   3.884  10.312  0.5004 -1.5366 -0.6601
 7799TIP3    H247593   4.913   4.007  10.242 -0.7504 -0.4869  1.9989
 7800TIP3   OH247594   5.394   1.100  11.545  0.3984 -0.1617 -0.3125
 7800TIP3    H147595   5.460   1.051  11.496 -0.5327 -2.6488  0.7825
 7800TIP3    H247596   5.381   1.050  11.625 -1.8482  0.9726  0.1100
 7801TIP3   OH247597   2.303   6.456  11.279  0.0589  0.0772  0.2195
 7801TIP3    H147598   2.298   6.397  11.204 -1.1820  1.6429 -1.0193
 7801TIP3    H247599   2.239   6.422  11.341 -1.0096  0.3445 -0.6917
 7802TIP3   OH247600   6.479   1.920  11.378 -0.0629  0.2362  0.0401
 7802TIP3    H147601   6.497   2.001  11.426 -0.6669 -0.4553  1.5272
 7802TIP3    H247602   6.485   1.944  11.286 -1.4478  2.2762  0.4147
 7803TIP3   OH247603   2.701   0.568  11.389 -0.3503 -0.0274  0.0784
 7803TIP3    H147604   2.783   0.573  11.339 -0.2374  0.5373  0.3144
 7803TIP3    H247605   2.638   0.618  11.337 -1.1446 -2.1851 -1.1980
 7804TIP3   OH247606   5.542   7.104  10.861 -0.0391 -0.1092  0.5399
 7804TIP3    H147607   5.627   7.106  10.905  0.4885 -1.2718 -0.3679
 7804TIP3    H247608   5.504   7.020  10.886 -0.2333 -0.2768 -0.2959
 7805TIP3   OH247609   2.045   5.844  12.596  0.5743 -0.5712  0.5987
 7805TIP3    H147610   2.050   5.842  12.501  2.2992 -0.7048  0.6578
 7805TIP3    H247611   2.007   5.930  12.616  0.9382 -0.2147 -0.1963
 7806TIP3   OH247612   2.370   4.954  10.240  0.3177 -0.3976  0.3231
 7806TIP3    H147613   2.275   4.951  10.228  0.5022  0.8947 -2.0437
 7806TIP3    H247614   2.402   4.874  10.200  0.3880  0.5978 -1.7459
 7807TIP3   OH247615   2.730   3.320  11.673 -0.4207  0.1480 -0.5013
 7807TIP3    H147616   2.670   3.350  11.605 -2.7189 -1.7838  0.5157
 7807TIP3    H247617   2.693   3.353  11.754 -1.4831 -2.8589  0.3658
 7808TIP3   OH247618   4.209   2.094  10.008 -0.3563  0.6825  0.2926
 7808TIP3    H147619   4.272   2.135   9.950  0.9579 -0.3044  0.9567
 7808TIP3    H247620   4.193   2.008   9.969  0.5795 -0.0098  1.3788
 7809TIP3   OH247621   1.844   2.045  11.306 -0.7673  0.2822  0.1578
 7809TIP3    H147622   1.786   2.090  11.368 -1.7523  0.0804 -0.5979
 7809TIP3    H247623   1.928   2.091  11.315 -1.0851  0.7109  1.1214
 7810TIP3   OH247624   1.822   5.754  11.178 -0.1300 -0.0820  0.3021
 7810TIP3    H147625   1.784   5.762  11.266 -1.8092 -1.7750 -0.2056
 7810TIP3    H247626   1.747   5.758  11.119  0.6085 -1.8962 -0.8531
 7811TIP3   OH247627   3.609   2.481  10.058 -0.0133 -0.3250 -0.2334
 7811TIP3    H147628   3.546   2.411  10.074  0.2184 -0.9178 -1.7181
 7811TIP3    H247629   3.557   2.561  10.063 -0.6375 -0.7190 -0.2316
 7812TIP3   OH247630   4.616   0.298  10.712 -0.3817 -0.1762 -0.5863
 7812TIP3    H147631   4.675   0.365  10.746 -1.5844  0.1718  0.9588
 7812TIP3    H247632   4.670   0.220  10.702  0.5430  0.4002 -0.1711
 7813TIP3   OH247633   0.810   0.328  10.492 -0.2653 -0.9518  0.2997
 7813TIP3    H147634   0.742   0.318  10.426  0.6807 -1.2263 -0.6617
 7813TIP3    H247635   0.892   0.316  10.444  0.4350 -1.5544  1.6051
 7814TIP3   OH247636   3.747   6.826   9.888  0.1098  0.2315  0.0330
 7814TIP3    H147637   3.737   6.814   9.983  3.2523 -0.4550  0.4010
 7814TIP3    H247638   3.703   6.908   9.870  0.6551  1.1547  2.4142
 7815TIP3   OH247639   3.891   4.515  12.501 -0.2539 -0.6298  0.1679
 7815TIP3    H147640   3.936   4.526  12.585  0.6513 -1.4025 -0.2050
 7815TIP3    H247641   3.830   4.443  12.515  2.4207 -3.2770 -0.7747
 7816TIP3   OH247642   2.556   5.052   9.194 -0.6724 -1.0266 -0.7003
 7816TIP3    H147643   2.475   5.034   9.242  0.4447 -0.3419  1.6242
 7816TIP3    H247644   2.621   4.997   9.237  0.7012  0.7750 -0.3792
 7817TIP3   OH247645   6.849   2.044  11.326 -0.1332  0.4461 -0.6533
 7817TIP3    H147646   6.802   2.059  11.409  1.3260  0.0517  0.2687
 7817TIP3    H247647   6.781   2.012  11.266 -0.9055 -0.9180  0.8836
 7818TIP3   OH247648   1.410   2.412  10.780  0.0204 -0.9142 -0.3774
 7818TIP3    H147649   1.405   2.457  10.865  0.3341 -0.4400 -0.6089
 7818TIP3    H247650   1.429   2.481  10.717 -2.7163 -0.8206 -1.2338
 7819TIP3   OH247651   4.577   0.739   9.924  0.1648  0.0636  0.3183
 7819TIP3    H147652   4.496   0.766   9.966  0.1547 -0.6651  0.7987
 7819TIP3    H247653   4.556   0.654   9.884  0.3729  0.4157 -0.5568
 7820TIP3   OH247654   3.465   5.767  10.718  0.0983  0.3749 -0.1549
 7820TIP3    H147655   3.473   5.714  10.797 -0.1407  0.2026 -0.2476
 7820TIP3    H247656   3.462   5.857  10.750 -1.1017  0.2534  0.1109
 7821TIP3   OH247657   4.298   2.889  10.000 -0.0804  0.2464 -0.3653
 7821TIP3    H147658   4.230   2.927   9.944  0.7107 -0.8386 -2.1596
 7821TIP3    H247659   4.263   2.803  10.024  0.3457 -0.0306 -0.7205
 7822TIP3   OH247660   0.724   7.074  12.132 -0.0356  0.5804 -0.3295
 7822TIP3    H147661   0.786   7.014  12.172 -0.5826  0.0388 -0.2767
 7822TIP3    H247662   0.715   7.145  12.197 -1.6943 -0.7897  1.0508
 7823TIP3   OH247663   2.146   0.880  11.961  0.3966 -0.2171 -0.0894
 7823TIP3    H147664   2.103   0.813  11.908  0.1917  0.6709 -1.0871
 7823TIP3    H247665   2.125   0.857  12.052 -1.0439 -0.5633 -0.4965
 7824TIP3   OH247666   7.418   2.033  10.641  0.0874 -0.0130 -0.0115
 7824TIP3    H147667   7.470   2.040  10.722  0.4452 -0.5846 -0.1835
 7824TIP3    H247668   7.476   2.067  10.573  0.4858 -1.2157 -0.2991
 7825TIP3   OH247669   2.397   4.169   9.997 -0.6655 -0.2217 -0.2540
 7825TIP3    H147670   2.338   4.235  10.032 -1.2266 -0.3055 -1.0189
 7825TIP3    H247671   2.345   4.121   9.932 -0.5223 -1.9314  0.8149
 7826TIP3   OH247672   5.492   1.730  10.277  0.1971 -0.2279  0.5164
 7826TIP3    H147673   5.581   1.763  10.263 -0.6677  2.0460 -0.1941
 7826TIP3    H247674   5.436   1.805  10.256 -1.9438 -1.9154 -0.1069
 7827TIP3   OH247675   6.394   5.010  10.710  0.7518  0.2174  0.6541
 7827TIP3    H147676   6.333   4.970  10.772  0.8549 -1.5472 -0.3161
 7827TIP3    H247677   6.367   4.976  10.624  1.8326  1.0326 -0.0352
 7828TIP3   OH247678   1.390   0.518  10.563 -0.1668 -0.3532 -0.5899
 7828TIP3    H147679   1.320   0.567  10.607 -1.3465 -0.0303 -2.6981
 7828TIP3    H247680   1.445   0.586  10.524 -2.0360 -0.5272 -3.8758
 7829TIP3   OH247681   6.156   4.943  11.210 -0.1528  0.6536  0.1090
 7829TIP3    H147682   6.081   4.980  11.257 -0.4453  0.9287 -0.5573
 7829TIP3    H247683   6.135   4.850  11.200 -0.7694  0.8757 -0.7435
 7830TIP3   OH247684   3.551   1.140   9.733 -0.3098  0.4400 -0.5352
 7830TIP3    H147685   3.572   1.230   9.711 -0.4166  0.5104 -0.3502
 7830TIP3    H247686   3.634   1.104   9.767 -1.2119  1.7476  3.6281
 7831TIP3   OH247687   6.936   5.066  11.595 -0.2200 -0.1667 -0.5247
 7831TIP3    H147688   6.862   5.007  11.583 -1.2343  0.4005  2.3390
 7831TIP3    H247689   7.012   5.007  11.605 -0.7477 -0.8616 -0.5508
 7832TIP3   OH247690   2.142   0.456  10.974 -0.3672  0.2400  0.0729
 7832TIP3    H147691   2.207   0.387  10.962  0.8128  1.4234 -0.6179
 7832TIP3    H247692   2.072   0.434  10.913 -0.4805 -0.8708  0.5781
 7833TIP3   OH247693   0.625   0.621  12.081 -0.2388 -0.2403  0.2889
 7833TIP3    H147694   0.707   0.598  12.037  0.2097  0.9555  0.4594
 7833TIP3    H247695   0.645   0.614  12.174 -0.7083 -1.1366  0.3415
 7834TIP3   OH247696   5.086   4.537  10.491 -0.1443 -0.0079 -0.6203
 7834TIP3    H147697   5.094   4.518  10.584  2.0586  3.2089  0.0231
 7834TIP3    H247698   4.994   4.564  10.480 -0.9382 -2.2127  0.1304
 7835TIP3   OH247699   4.453   4.716   9.811  0.0310 -0.6336 -0.4024
 7835TIP3    H147700   4.375   4.731   9.757 -0.8462  0.8066  1.1580
 7835TIP3    H247701   4.420   4.668   9.887  0.9171 -1.1154 -0.3165
 7836TIP3   OH247702   6.058   1.584  10.060  0.6182 -0.1400 -0.2037
 7836TIP3    H147703   5.996   1.512  10.052  0.8537 -0.2166 -1.6755
 7836TIP3    H247704   6.076   1.610   9.970  1.5588  0.8879  0.2538
 7837TIP3   OH247705   6.686   6.841  12.119 -0.4954  0.3295 -0.5876
 7837TIP3    H147706   6.722   6.863  12.205  1.7124  2.0196 -1.8582
 7837TIP3    H247707   6.671   6.746  12.124  0.8249  0.1497  1.2132
 7838TIP3   OH247708   7.337   4.500   9.731 -0.4735  0.2968 -0.3775
 7838TIP3    H147709   7.353   4.592   9.710  0.2072  0.2870  0.0538
 7838TIP3    H247710   7.286   4.502   9.812 -1.8806  0.3124 -1.2417
 7839TIP3   OH247711   0.040   4.018  12.430  0.1203  0.2907 -0.2849
 7839TIP3    H147712   0.038   3.923  12.441  0.0384  0.1662 -1.2965
 7839TIP3    H247713  -0.049   4.042  12.405  0.4137  0.4744 -1.1975
 7840TIP3   OH247714   2.133   5.190  10.004  0.0744 -0.1659  0.1625
 7840TIP3    H147715   2.191   5.235  10.065  0.0312  0.3180 -0.1587
 7840TIP3    H247716   2.113   5.107  10.049  1.2441 -0.4782  0.1406
 7841TIP3   OH247717   5.958   4.726  12.373 -0.4878  0.4698 -0.0170
 7841TIP3    H147718   6.010   4.655  12.334  0.3046  0.0313  1.7381
 7841TIP3    H247719   5.880   4.732  12.317  0.1388 -0.7619 -1.0750
 7842TIP3   OH247720   2.673   3.686  10.215 -0.1254 -0.0835 -0.0374
 7842TIP3    H147721   2.729   3.761  10.196 -1.2263  0.6665 -0.4143
 7842TIP3    H247722   2.721   3.611  10.180  0.4098  0.5997 -0.8088
 7843TIP3   OH247723   6.540   0.593  10.594 -0.1312 -0.6083 -0.4516
 7843TIP3    H147724   6.460   0.595  10.542 -0.8172  0.6712  0.5964
 7843TIP3    H247725   6.601   0.540  10.542 -0.6165  0.9725 -2.7612
 7844TIP3   OH247726   0.539   6.544  11.099 -0.5468  0.3813 -0.0692
 7844TIP3    H147727   0.443   6.545  11.094 -0.5529  1.0038  0.0688
 7844TIP3    H247728   0.560   6.459  11.137 -0.8769 -1.1314 -2.9460
 7845TIP3   OH247729   2.516   1.286  12.042  0.0364 -0.1789 -0.1071
 7845TIP3    H147730   2.525   1.382  12.047 -2.8801  0.1342  1.3831
 7845TIP3    H247731   2.515   1.267  11.949 -3.4292  1.8721 -0.6603
 7846TIP3   OH247732   4.196   6.155  11.375  0.1883 -0.0704 -0.6354
 7846TIP3    H147733   4.256   6.089  11.340  0.9980 -0.3755  1.2277
 7846TIP3    H247734   4.116   6.145  11.322  0.4875 -2.1484 -0.7773
 7847TIP3   OH247735   4.617   3.204  10.516  0.6440 -0.0101  0.0718
 7847TIP3    H147736   4.661   3.289  10.507  1.3572 -0.3600  0.1727
 7847TIP3    H247737   4.533   3.216  10.473  0.6780  0.7949  0.2156
 7848TIP3   OH247738   4.646   1.787   9.972  0.1263 -0.4231 -0.7670
 7848TIP3    H147739   4.740   1.775   9.981  0.2007 -0.3151 -1.3683
 7848TIP3    H247740   4.613   1.701   9.944 -0.2512 -1.0732  1.4947
 7849TIP3   OH247741   5.189   0.869  11.910 -0.5958 -0.1143 -0.2342
 7849TIP3    H147742   5.120   0.834  11.966 -1.1817 -0.3602 -1.1081
 7849TIP3    H247743   5.158   0.855  11.821 -0.3287  1.5955 -0.6261
 7850TIP3   OH247744   0.219   1.391  10.729 -0.2818 -0.0785 -0.3280
 7850TIP3    H147745   0.252   1.432  10.809 -1.1544 -1.5709  0.8582
 7850TIP3    H247746   0.261   1.305  10.727 -1.5702 -0.7395 -0.5115
 7851TIP3   OH247747   6.385   3.574  11.712 -0.1540  0.3579  0.4825
 7851TIP3    H147748   6.387   3.518  11.790 -0.3338 -1.2694 -0.6287
 7851TIP3    H247749   6.475   3.572  11.679  0.1901  1.9741  1.2485
 7852TIP3   OH247750   2.796   4.611  10.585  0.2465 -0.0481 -0.0188
 7852TIP3    H147751   2.856   4.590  10.657 -0.0239  0.3448  0.3259
 7852TIP3    H247752   2.849   4.600  10.506 -0.3726 -4.0108 -0.0609
 7853TIP3   OH247753   5.800   5.270  11.219 -0.0669 -0.3469  0.0549
 7853TIP3    H147754   5.808   5.330  11.145  0.7211 -0.9258 -0.3354
 7853TIP3    H247755   5.737   5.313  11.278 -1.0718 -0.1016 -1.1581
 7854TIP3   OH247756   5.065   2.803   9.920  0.4020 -0.1432 -0.5720
 7854TIP3    H147757   5.029   2.793   9.832  0.1736 -0.1379 -0.4803
 7854TIP3    H247758   5.008   2.749   9.975  0.0660  0.4686 -0.3053
 7855TIP3   OH247759   5.467   5.482  12.151  0.0118  0.0839  0.1170
 7855TIP3    H147760   5.429   5.425  12.217 -1.1586  0.9162  0.1929
 7855TIP3    H247761   5.528   5.537  12.199 -0.7520  0.6108  0.4952
 7856TIP3   OH247762   5.718   2.660  10.978  0.4933 -0.1379  0.3201
 7856TIP3    H147763   5.717   2.602  10.902 -1.3437  1.5043 -1.0195
 7856TIP3    H247764   5.750   2.744  10.945 -2.7502  1.3665  0.6262
 7857TIP3   OH247765   6.877   2.989  11.138  0.3454 -0.3751  0.5681
 7857TIP3    H147766   6.886   3.007  11.045 -0.0404  0.6457  0.7125
 7857TIP3    H247767   6.947   2.927  11.158  1.1241  0.2512 -0.1745
 7858TIP3   OH247768   0.489   1.317  11.138 -0.3084  0.4232 -0.3800
 7858TIP3    H147769   0.525   1.265  11.066 -1.3107  0.7311 -1.1266
 7858TIP3    H247770   0.498   1.262  11.215  0.4139 -0.0749 -0.8117
 7859TIP3   OH247771   3.361   4.239   9.755 -0.6414 -0.0822 -0.5152
 7859TIP3    H147772   3.305   4.189   9.815 -0.3601 -0.8834 -0.9098
 7859TIP3    H247773   3.306   4.312   9.727 -0.3336  1.1292  1.7649
 7860TIP3   OH247774   4.802   6.806  10.900 -0.2232  0.1961 -0.0056
 7860TIP3    H147775   4.834   6.847  10.980 -0.9095 -0.4894  0.6301
 7860TIP3    H247776   4.707   6.816  10.903 -0.4741 -1.8389  0.4281
 7861TIP3   OH247777   7.390   5.956  10.247 -0.3151 -0.1691  0.2267
 7861TIP3    H147778   7.386   5.883  10.308 -2.5722 -0.0986  0.2358
 7861TIP3    H247779   7.483   5.979  10.243  0.4319 -2.8967  0.3381
 7862TIP3   OH247780   4.179   5.775  11.666  0.4765 -0.2392  0.4042
 7862TIP3    H147781   4.148   5.788  11.577  1.6044  1.1598  0.1702
 7862TIP3    H247782   4.147   5.851  11.715  1.0459 -0.2622  0.8356
 7863TIP3   OH247783   3.074   3.027  11.020 -0.2448 -0.2793  0.3177
 7863TIP3    H147784   3.121   2.944  11.014  1.1703  0.5301 -0.5462
 7863TIP3    H247785   3.142   3.094  11.005 -1.8003  0.9220 -2.1276
 7864TIP3   OH247786   3.166   6.975  10.435  0.0020 -0.7559 -0.0428
 7864TIP3    H147787   3.083   7.022  10.445  0.0930 -0.6438  0.1695
 7864TIP3    H247788   3.176   6.925  10.516  1.3846  1.1730  1.0444
 7865TIP3   OH247789   5.187   4.170  10.862 -0.0271  0.0178  0.6090
 7865TIP3    H147790   5.239   4.172  10.942  0.6825  1.2273  0.1381
 7865TIP3    H247791   5.105   4.215  10.885 -1.0975 -2.2019  1.4532
 7866TIP3   OH247792   7.430   6.103  11.212 -0.0774  0.1965 -0.2627
 7866TIP3    H147793   7.487   6.145  11.276 -1.4043  0.9817  0.4609
 7866TIP3    H247794   7.375   6.045  11.264  0.0069 -0.4864 -0.9282
 7867TIP3   OH247795   1.511   3.117  10.603  0.0421  0.3833  0.2861
 7867TIP3    H147796   1.558   3.093  10.522  0.1226  2.8680 -0.4763
 7867TIP3    H247797   1.569   3.086  10.673  3.4995  3.9978 -0.5833
 7868TIP3   OH247798   1.258   4.335  11.572 -0.4070 -0.1690 -0.1700
 7868TIP3    H147799   1.303   4.396  11.631 -0.3934  0.4535 -0.8201
 7868TIP3    H247800   1.315   4.258  11.571  0.9914  0.8229 -1.4444
 7869TIP3   OH247801   5.173   6.266  10.788  0.3180 -0.3242  0.3077
 7869TIP3    H147802   5.233   6.203  10.747  0.6878  0.4610 -0.3876
 7869TIP3    H247803   5.220   6.298  10.865  0.9985  0.5923 -0.4577
 7870TIP3   OH247804   0.321   3.105  10.674  0.0728 -0.3666 -0.4031
 7870TIP3    H147805   0.361   3.187  10.646 -0.7308  0.2391  0.1817
 7870TIP3    H247806   0.387   3.038  10.655 -0.0309  0.1305 -2.7768
 7871TIP3   OH247807   5.023   3.132  11.621  0.0128 -0.0390 -0.0371
 7871TIP3    H147808   5.103   3.184  11.614 -0.2397  0.3484 -0.1412
 7871TIP3    H247809   4.965   3.169  11.555 -0.4830  0.1170  0.4714
 7872TIP3   OH247810   0.758   1.715  11.283  0.2112  0.0711 -0.1968
 7872TIP3    H147811   0.692   1.647  11.296 -0.1815  0.6832  1.1180
 7872TIP3    H247812   0.822   1.700  11.353  0.6441  0.4543 -0.5022
 7873TIP3   OH247813   4.857   0.487   9.471  0.2549 -0.1228 -0.4056
 7873TIP3    H147814   4.876   0.442   9.388 -1.2873 -0.8636 -0.4090
 7873TIP3    H247815   4.786   0.436   9.509 -1.6854  2.3584 -0.4451
 7874TIP3   OH247816   4.143   4.274   9.973  0.0961  0.3079  0.1412
 7874TIP3    H147817   4.083   4.320  10.033 -1.3511 -1.6966  0.3429
 7874TIP3    H247818   4.131   4.181   9.995  1.1222 -0.3366 -1.8308
 7875TIP3   OH247819   1.394   2.670  12.103 -0.2051 -0.2281 -0.1054
 7875TIP3    H147820   1.345   2.607  12.156  0.0747 -0.4046 -0.0567
 7875TIP3    H247821   1.471   2.691  12.155 -0.9587  1.1972  0.4958
 7876TIP3   OH247822   0.837   0.497  11.776 -0.3858  0.2120 -0.4438
 7876TIP3    H147823   0.841   0.416  11.725  0.4365 -0.6363  0.9362
 7876TIP3    H247824   0.844   0.469  11.867  2.3095  1.9859 -0.0079
 7877TIP3   OH247825   1.115   7.439   9.871  0.1005 -0.1567  0.2037
 7877TIP3    H147826   1.044   7.418   9.811  0.7913 -0.8595 -0.3866
 7877TIP3    H247827   1.179   7.369   9.858  1.0239  0.6042  0.5341
 7878TIP3   OH247828   3.737   1.782   9.602 -0.0631  0.4745 -0.2420
 7878TIP3    H147829   3.819   1.773   9.650 -0.6455 -0.3878  0.6227
 7878TIP3    H247830   3.682   1.837   9.658  0.7292  3.1837 -1.9247
 7879TIP3   OH247831   4.797   2.575   9.626  0.5878 -0.2289  0.1134
 7879TIP3    H147832   4.805   2.508   9.693  2.8754 -0.2291 -0.0610
 7879TIP3    H247833   4.703   2.583   9.609  0.1668 -2.1329  1.3632
 7880TIP3   OH247834   2.315   0.537  11.855 -0.1170  0.0337  0.0027
 7880TIP3    H147835   2.225   0.564  11.839  0.2508  0.7162 -1.0208
 7880TIP3    H247836   2.311   0.486  11.937 -1.6722 -1.3112 -0.8480
 7881TIP3   OH247837   6.136   3.337  10.398  0.1415  0.9108  0.0258
 7881TIP3    H147838   6.187   3.418  10.394 -0.6715  1.3819 -2.4670
 7881TIP3    H247839   6.060   3.353  10.342  0.0641 -1.6272 -0.7413
 7882TIP3   OH247840   3.646   2.584  11.649  0.4071  0.2051  0.2502
 7882TIP3    H147841   3.714   2.633  11.695 -0.0983  1.3911 -0.2099
 7882TIP3    H247842   3.627   2.509  11.706  2.6974 -0.6653 -0.0493
 7883TIP3   OH247843   1.488   6.189  11.907 -0.1138  0.2522  0.1261
 7883TIP3    H147844   1.471   6.280  11.880 -0.0596  0.4841  0.8671
 7883TIP3    H247845   1.444   6.180  11.991 -0.8219 -0.6679 -0.3271
 7884TIP3   OH247846   7.284   5.748  12.710  0.1247  0.4269  0.1326
 7884TIP3    H147847   7.338   5.819  12.678  0.0202  1.0457  1.2610
 7884TIP3    H247848   7.345   5.676  12.724  0.6391  1.0245  1.1018
 7885TIP3   OH247849   2.206   2.724  11.975  0.0543 -0.3143  0.1757
 7885TIP3    H147850   2.289   2.739  11.928 -0.0999 -2.0595 -0.7354
 7885TIP3    H247851   2.202   2.795  12.039  1.4345  0.7911 -0.8806
 7886TIP3   OH247852   7.253   0.026  11.046 -0.4742  0.0229  0.3707
 7886TIP3    H147853   7.279   0.065  10.963 -3.2080  1.9004  0.2846
 7886TIP3    H247854   7.221  -0.061  11.022 -1.7024  0.7259 -0.6662
 7887TIP3   OH247855   2.123   2.208  12.563 -0.7723 -0.1584  0.7303
 7887TIP3    H147856   2.194   2.181  12.621 -0.2011 -1.0792 -0.3287
 7887TIP3    H247857   2.089   2.125  12.527 -0.0464  0.3964 -1.4096
 7888TIP3   OH247858   4.085   3.734  10.695  0.1791  0.1393 -0.1739
 7888TIP3    H147859   4.151   3.803  10.701  0.2060  0.2121 -1.1237
 7888TIP3    H247860   4.064   3.712  10.785  1.1634  0.4502  0.1381
 7889TIP3   OH247861   0.917   4.121  10.157 -0.3199 -0.4017 -0.4515
 7889TIP3    H147862   0.900   4.059  10.227  1.7797 -2.6565 -1.7728
 7889TIP3    H247863   1.000   4.162  10.181 -1.2001  1.2577 -0.0841
 7890TIP3   OH247864   4.016   4.137  10.369  0.1450  0.8002 -0.1892
 7890TIP3    H147865   3.967   4.083  10.430 -1.7517  1.1528 -1.3138
 7890TIP3    H247866   3.981   4.225  10.380  2.1178  1.5600  0.5246
 7891TIP3   OH247867   1.149   2.042  11.507  0.6898  0.0750  0.4122
 7891TIP3    H147868   1.171   2.087  11.424  0.3264 -0.6998 -0.1126
 7891TIP3    H247869   1.220   1.980  11.520  0.3684 -0.3170  0.2986
 7892TIP3   OH247870   0.316   2.558  11.624  0.7284 -0.0849  0.4343
 7892TIP3    H147871   0.392   2.615  11.636 -0.7219  2.3546 -1.0425
 7892TIP3    H247872   0.332   2.514  11.541  0.5907  0.3786  0.1557
 7893TIP3   OH247873   7.451   5.913  12.562  0.5165 -0.1926 -0.2076
 7893TIP3    H147874   7.525   5.924  12.621  0.6985 -0.8735 -0.2963
 7893TIP3    H247875   7.491   5.906  12.475  0.3745 -0.8554 -0.2252
 7894TIP3   OH247876   2.101   5.985  12.088 -0.2464  0.8433  0.8569
 7894TIP3    H147877   2.112   6.036  12.168  0.6523 -1.3867  2.2575
 7894TIP3    H247878   2.007   5.971  12.081 -0.2764  0.1893  2.1646
 7895TIP3   OH247879   0.734   2.260  10.173  0.7136 -0.2880 -0.6965
 7895TIP3    H147880   0.705   2.350  10.161  1.5041 -0.0440 -0.7665
 7895TIP3    H247881   0.754   2.253  10.266 -1.1782 -0.9446 -0.2918
 7896TIP3   OH247882   7.194   3.747  11.658  0.2513  0.1314  0.3389
 7896TIP3    H147883   7.129   3.685  11.627 -1.2436  2.0377 -0.5879
 7896TIP3    H247884   7.260   3.750  11.589  0.1174 -0.1276  0.1994
 7897TIP3   OH247885   0.759   5.455  11.671 -0.4885  0.3242  0.8249
 7897TIP3    H147886   0.786   5.504  11.749  0.4089  0.3529  0.5029
 7897TIP3    H247887   0.839   5.415  11.639 -0.8667  0.2414 -0.0393
 7898TIP3   OH247888   4.754   0.796  11.173 -0.1144  0.1400  0.2966
 7898TIP3    H147889   4.742   0.855  11.248  1.6658  0.6496  0.2351
 7898TIP3    H247890   4.803   0.848  11.109  0.8713 -1.1510 -0.0599
 7899TIP3   OH247891   2.549   1.261   9.909 -0.1527  0.4286  0.3010
 7899TIP3    H147892   2.605   1.184   9.912 -1.4595 -0.5588  0.2598
 7899TIP3    H247893   2.557   1.293   9.819 -1.4467 -1.1221 -0.4115
 7900TIP3   OH247894   1.300   3.535  11.497 -0.3249 -0.1803  0.3374
 7900TIP3    H147895   1.374   3.479  11.519 -0.5859 -0.7510 -0.1837
 7900TIP3    H247896   1.296   3.532  11.401 -0.5953  0.3992  0.3287
 7901TIP3   OH247897   4.565   2.515  11.403  0.5757  0.1327 -0.3094
 7901TIP3    H147898   4.579   2.519  11.497  0.3650 -0.3527 -0.2574
 7901TIP3    H247899   4.614   2.439  11.374  0.6248  0.2698 -0.5912
 7902TIP3   OH247900   1.532   6.387  10.346  0.5011  0.3167 -0.0526
 7902TIP3    H147901   1.557   6.439  10.423 -1.3219  0.1238  0.7339
 7902TIP3    H247902   1.498   6.305  10.382  1.3627 -0.5719 -1.1838
 7903TIP3   OH247903   0.886   1.058  10.983  0.2242  0.1634  0.1873
 7903TIP3    H147904   0.927   1.114  10.917 -1.4517  1.3483  0.0983
 7903TIP3    H247905   0.876   0.973  10.940  0.3050  0.5690 -0.6493
 7904TIP3   OH247906   0.268   5.849   9.353 -0.5837 -0.6655 -0.0143
 7904TIP3    H147907   0.295   5.758   9.362 -0.5405 -0.6332  0.2045
 7904TIP3    H247908   0.268   5.882   9.443 -0.3188 -0.3707 -0.1199
 7905TIP3   OH247909   0.902   4.744  11.217  0.0742  0.3960 -0.1994
 7905TIP3    H147910   0.874   4.693  11.142  1.0243 -2.1634  1.0623
 7905TIP3    H247911   0.980   4.791  11.187  0.2262 -0.3129 -0.9168
 7906TIP3   OH247912   0.039   4.931  10.663 -0.3391 -0.0388 -0.4693
 7906TIP3    H147913  -0.009   4.892  10.590 -0.4716  1.1528 -1.0424
 7906TIP3    H247914   0.131   4.926  10.637 -0.3079 -0.4748 -0.2839
 7907TIP3   OH247915   5.221   6.036  17.246  0.1592 -0.5233 -0.7711
 7907TIP3    H147916   5.158   5.979  17.204 -1.3636  0.1420  0.4917
 7907TIP3    H247917   5.287   5.977  17.283 -0.5452 -1.3449 -0.8187
 7908TIP3   OH247918   4.043   7.026  11.947  0.3323  0.3149  0.3885
 7908TIP3    H147919   4.074   7.101  11.998 -1.8603  0.3548  1.8231
 7908TIP3    H247920   4.046   6.952  12.008  0.2368 -0.2320 -0.2598
 7909TIP3   OH247921   5.129   3.725  10.650  0.2354  0.1443  0.0407
 7909TIP3    H147922   5.118   3.722  10.555  0.7519  1.9501 -0.1210
 7909TIP3    H247923   5.218   3.758  10.663 -0.3863  1.5229  1.1066
 7910TIP3   OH247924   0.568   5.615  11.062 -0.3241 -0.6131  0.4021
 7910TIP3    H147925   0.489   5.617  11.116  0.1977 -0.0784  1.1747
 7910TIP3    H247926   0.570   5.526  11.025 -0.5611 -1.0868  1.4859
 7911TIP3   OH247927   5.279   4.298  10.628  0.4235 -0.7779  0.4771
 7911TIP3    H147928   5.203   4.287  10.684  1.1222 -0.8940  1.4195
 7911TIP3    H247929   5.329   4.217  10.639  0.2476 -1.0992 -0.8435
 7912TIP3   OH247930   1.855   0.656  10.025  0.1489  0.3395 -0.5540
 7912TIP3    H147931   1.874   0.597   9.953 -1.0342 -0.7206 -0.0511
 7912TIP3    H247932   1.766   0.631  10.053 -0.2847  2.1949 -0.1587
 7913TIP3   OH247933   3.499   2.147  11.152  0.4501  0.3909 -0.4426
 7913TIP3    H147934   3.475   2.055  11.163 -0.4500  0.6040 -0.5036
 7913TIP3    H247935   3.488   2.164  11.058  0.9499  0.4655 -0.4860
 7914TIP3   OH247936   1.846   6.863  10.216 -0.2343 -0.4864 -0.6102
 7914TIP3    H147937   1.921   6.804  10.213 -0.0924 -0.2590 -1.9551
 7914TIP3    H247938   1.796   6.834  10.292  0.9099 -1.0056 -0.0373
 7915TIP3   OH247939   0.324   6.031  10.483  0.4865 -0.2516 -0.5769
 7915TIP3    H147940   0.415   6.019  10.458  0.5374 -0.6660 -0.1938
 7915TIP3    H247941   0.328   6.063  10.573  0.2734  0.3978 -0.7853
 7916TIP3   OH247942   0.618   1.208  10.887 -0.1281 -0.3757  0.1157
 7916TIP3    H147943   0.657   1.121  10.895  2.6092  0.6822 -0.5151
 7916TIP3    H247944   0.692   1.266  10.865 -2.1931  1.7331 -1.9421
 7917TIP3   OH247945   2.581   6.156  12.654  0.7581  0.6063 -0.4957
 7917TIP3    H147946   2.624   6.072  12.672  1.8064  0.9808 -1.1568
 7917TIP3    H247947   2.504   6.155  12.710  1.3986 -0.2806  0.4272
 7918TIP3   OH247948   2.789   4.335  10.169 -0.8147  0.8013 -0.0786
 7918TIP3    H147949   2.853   4.382  10.117 -0.3277 -0.5372 -0.7483
 7918TIP3    H247950   2.837   4.260  10.204 -2.5145 -1.8051 -2.8302
 7919TIP3   OH247951   5.415   0.919  11.738 -0.1745  0.1711 -0.6474
 7919TIP3    H147952   5.489   0.862  11.756  1.3511  1.5933 -2.1540
 7919TIP3    H247953   5.352   0.899  11.808  2.2754  0.0730  1.6608
 7920TIP3   OH247954   5.430   6.042  11.713 -0.4017 -0.0402 -0.2023
 7920TIP3    H147955   5.446   6.135  11.734 -1.3942  0.1361 -0.2034
 7920TIP3    H247956   5.470   5.994  11.786 -1.9979  0.4903  1.0682
 7921TIP3   OH247957   5.621   0.029  11.077 -0.3091 -0.5099  0.2170
 7921TIP3    H147958   5.557  -0.037  11.103 -1.4373  0.3344 -0.3226
 7921TIP3    H247959   5.628   0.087  11.152 -0.6996 -0.2342  0.0497
 7922TIP3   OH247960   5.045   1.415  10.720  0.6055 -0.0177 -0.5415
 7922TIP3    H147961   5.053   1.510  10.723  1.6442 -0.1007  2.4645
 7922TIP3    H247962   5.127   1.383  10.757 -0.9041 -1.9666  1.3450
 7923TIP3   OH247963   1.571   0.069  10.070 -0.1403 -0.0689  0.1029
 7923TIP3    H147964   1.497   0.057  10.011 -0.0384  2.9047 -0.7821
 7923TIP3    H247965   1.640   0.014  10.033 -1.0674 -0.7530 -0.6477
 7924TIP3   OH247966   1.146   4.463   9.544  0.4995  0.2040  0.8374
 7924TIP3    H147967   1.142   4.534   9.609 -0.6831  1.4466 -0.5317
 7924TIP3    H247968   1.193   4.500   9.470  0.6998 -0.7690  0.4619
 7925TIP3   OH247969   6.878   0.849  11.982 -0.6186  0.0775 -0.0497
 7925TIP3    H147970   6.934   0.874  11.909 -0.1969 -1.9696 -0.4916
 7925TIP3    H247971   6.886   0.921  12.045  0.8998  0.7490 -0.9679
 7926TIP3   OH247972   4.645   1.451  11.281  0.1261  0.3759 -0.2600
 7926TIP3    H147973   4.676   1.507  11.210  0.3764 -1.8411 -1.9913
 7926TIP3    H247974   4.562   1.491  11.308  1.3639  2.8454  0.2180
 7927TIP3   OH247975   7.379   7.312  11.287 -0.6043  0.6596 -0.0999
 7927TIP3    H147976   7.414   7.265  11.211  0.4346  0.4732  0.4725
 7927TIP3    H247977   7.372   7.245  11.355 -1.0497  0.9318  0.1253
 7928TIP3   OH247978   2.655   6.121  12.316  0.1817 -0.1398  0.3852
 7928TIP3    H147979   2.619   6.034  12.333  0.5332 -0.4011 -0.1828
 7928TIP3    H247980   2.738   6.121  12.364  0.7495 -0.5543 -0.5851
 7929TIP3   OH247981   5.157   6.990  11.081 -0.8793 -0.5209 -0.1181
 7929TIP3    H147982   5.173   6.929  11.009  0.7077 -0.5990  0.2446
 7929TIP3    H247983   5.238   7.041  11.087 -1.2613 -0.0188  1.1397
 7930TIP3   OH247984   2.353   5.684  11.178 -0.4366  0.4058  0.0845
 7930TIP3    H147985   2.384   5.728  11.098  0.7276  0.2778  0.4450
 7930TIP3    H247986   2.263   5.715  11.189 -0.1703  1.4520 -0.5450
 7931TIP3   OH247987   6.096   7.205  10.847  0.4200  0.8078  0.4535
 7931TIP3    H147988   6.028   7.236  10.788 -0.7630 -1.3640  0.5803
 7931TIP3    H247989   6.065   7.229  10.934  1.1337  2.0947  0.3955
 7932TIP3   OH247990   1.612   5.152  12.995  0.2924 -0.3192  0.1109
 7932TIP3    H147991   1.537   5.095  12.978  0.5276 -0.7367  0.4479
 7932TIP3    H247992   1.655   5.112  13.070  1.2823 -0.5125 -0.5424
 7933TIP3   OH247993   4.709   6.044  10.677 -0.2538  0.0100 -0.5580
 7933TIP3    H147994   4.804   6.054  10.663 -0.3944  0.6451 -1.1228
 7933TIP3    H247995   4.699   5.955  10.708  0.4608 -0.3298 -1.2545
 7934TIP3   OH247996   1.016   6.288  11.306  0.3444  0.2674 -0.4211
 7934TIP3    H147997   1.019   6.259  11.397  1.3543 -1.6490 -1.0096
 7934TIP3    H247998   0.924   6.283  11.282  0.2573 -0.6793  0.0770
 7935TIP3   OH247999   4.024   7.340  11.014 -0.1867  0.2154  0.4504
 7935TIP3    H148000   3.980   7.297  10.941  0.9232 -2.9044  1.4446
 7935TIP3    H248001   4.052   7.425  10.978 -2.0951 -0.0107 -1.8266
 7936TIP3   OH248002   3.325   6.058  12.022  0.0048  0.5593  0.1695
 7936TIP3    H148003   3.353   6.149  12.008 -1.5203  1.0270 -0.1157
 7936TIP3    H248004   3.229   6.063  12.020 -0.0989 -1.1571 -0.4367
 7937TIP3   OH248005   6.129   3.085  10.551  0.0624  0.1741 -0.2917
 7937TIP3    H148006   6.164   3.154  10.494 -0.1003  0.2007 -0.3595
 7937TIP3    H248007   6.082   3.027  10.491  4.1032 -2.7154 -1.1267
 7938TIP3   OH248008   5.935   4.851  11.655 -0.1238 -0.4530  0.0210
 7938TIP3    H148009   5.954   4.790  11.727 -3.1952 -0.9263  0.5738
 7938TIP3    H248010   5.847   4.828  11.627 -0.0749  1.5606 -2.0651
 7939TIP3   OH248011   2.107   4.008  11.524  0.0269 -0.1475  0.4173
 7939TIP3    H148012   2.147   4.088  11.490 -0.1392  1.6355  3.9806
 7939TIP3    H248013   2.180   3.957  11.558 -0.0306 -0.7963 -0.3951
 7940TIP3   OH248014   4.796   5.526  11.771  0.5436 -0.0942 -0.1370
 7940TIP3    H148015   4.718   5.546  11.719  0.7742  0.0361 -0.4359
 7940TIP3    H248016   4.791   5.432  11.787  0.0842 -0.0088  0.2416
 7941TIP3   OH248017   6.622   6.410  11.120  0.1768 -0.3076  0.1534
 7941TIP3    H148018   6.687   6.346  11.151 -0.8354 -1.5970 -0.3247
 7941TIP3    H248019   6.658   6.441  11.037  0.5189 -0.4953  0.2273
 7942TIP3   OH248020   2.795   5.146  11.287  0.1030 -0.3262 -0.2980
 7942TIP3    H148021   2.776   5.119  11.197  1.2848 -2.0330 -0.0888
 7942TIP3    H248022   2.730   5.100  11.340 -0.8054  0.9413 -0.2779
 7943TIP3   OH248023   3.568   4.690  11.722 -0.4411 -0.3671  0.7840
 7943TIP3    H148024   3.547   4.631  11.650  0.0268  1.4134 -0.9032
 7943TIP3    H248025   3.482   4.722  11.752 -0.5857 -0.0731  0.0733
 7944TIP3   OH248026   5.288   1.982  12.095 -0.1867  0.1930 -0.1517
 7944TIP3    H148027   5.215   1.961  12.037  1.1976 -0.5571 -1.7090
 7944TIP3    H248028   5.261   2.062  12.140 -2.5762 -0.9109  0.4926
 7945TIP3   OH248029   4.145   3.496  10.572 -0.0456  0.2084  0.0400
 7945TIP3    H148030   4.147   3.513  10.478  0.9300  1.6101  0.2954
 7945TIP3    H248031   4.126   3.581  10.612  3.0239  0.4360  1.2645
 7946TIP3   OH248032   7.117   2.136  12.255  0.2759  0.5673  0.0444
 7946TIP3    H148033   7.192   2.175  12.210 -0.5431  1.4223 -0.6533
 7946TIP3    H248034   7.130   2.157  12.347  1.6851 -0.6839  0.1535
 7947TIP3   OH248035   2.043   1.478   9.714 -0.4740 -0.2056 -1.0187
 7947TIP3    H148036   2.000   1.562   9.728 -1.2267 -0.4365 -1.8481
 7947TIP3    H248037   1.972   1.418   9.689  0.1025 -0.9925 -0.8046
 7948TIP3   OH248038   5.892   4.685  10.803 -0.1788  0.4158 -0.1955
 7948TIP3    H148039   5.844   4.650  10.728 -0.7431  1.0204 -0.1305
 7948TIP3    H248040   5.851   4.644  10.879 -1.1156  1.4921 -0.0942
 7949TIP3   OH248041   1.328   6.527  12.205  0.1639 -0.1149  0.0586
 7949TIP3    H148042   1.401   6.518  12.265 -0.2119 -0.5391  0.4592
 7949TIP3    H248043   1.251   6.535  12.261 -0.1334 -0.0256 -0.3562
 7950TIP3   OH248044   0.043   3.175  11.384  0.5227 -0.0278  0.4169
 7950TIP3    H148045  -0.000   3.248  11.339  1.2845 -0.8090 -1.7094
 7950TIP3    H248046  -0.027   3.132  11.433 -0.2965  1.0255  0.2103
 7951TIP3   OH248047   1.086   1.317  12.047 -0.6192  0.4548  0.0826
 7951TIP3    H148048   1.089   1.228  12.009  0.9324  0.3641  0.3537
 7951TIP3    H248049   1.120   1.306  12.136 -1.5703  1.1394  0.5414
 7952TIP3   OH248050   1.834   5.896  12.046 -0.2087  0.1717  0.4179
 7952TIP3    H148051   1.824   5.811  12.004 -0.5441 -0.2876  1.3825
 7952TIP3    H248052   1.763   5.949  12.011  0.5074  0.3398 -0.8277
 7953TIP3   OH248053   5.504   6.658  11.239  0.1693  0.3973  0.0930
 7953TIP3    H148054   5.453   6.715  11.297 -0.8222 -1.1864  0.8505
 7953TIP3    H248055   5.563   6.611  11.298  0.2234 -0.1181 -0.3595
 7954TIP3   OH248056   1.303   2.679  11.310  0.3478 -0.3918  0.0219
 7954TIP3    H148057   1.336   2.744  11.248 -1.2642  0.5791  0.1159
 7954TIP3    H248058   1.224   2.719  11.347 -0.2777 -2.1014  0.6524
 7955TIP3   OH248059   0.100   4.151  10.887 -0.2969  0.5904 -0.7934
 7955TIP3    H148060   0.141   4.235  10.909  1.0154 -0.4005  0.7295
 7955TIP3    H248061   0.147   4.120  10.811  2.2748 -0.7557  1.2004
 7956TIP3   OH248062   1.025   3.343  11.399 -0.0062  0.3440 -0.4406
 7956TIP3    H148063   1.119   3.337  11.382 -0.1120  1.3620 -1.5334
 7956TIP3    H248064   0.992   3.397  11.327 -1.5931 -0.8621 -0.6470
 7957TIP3   OH248065   5.069   1.857  11.923  0.5051  0.3474  0.1747
 7957TIP3    H148066   4.978   1.832  11.942  0.1653  1.9353  0.8082
 7957TIP3    H248067   5.082   1.833  11.831  0.4663 -2.6856  0.8438
 7958TIP3   OH248068   4.969   6.825   9.454 -0.5604 -0.3581 -0.1879
 7958TIP3    H148069   4.977   6.790   9.366 -1.8312 -1.3413  0.0444
 7958TIP3    H248070   4.932   6.753   9.505 -1.3525  0.6809  0.7728
 7959TIP3   OH248071   3.683   3.480  10.531  0.1304 -0.4544  0.1112
 7959TIP3    H148072   3.591   3.457  10.520  0.4860 -2.5317  1.1263
 7959TIP3    H248073   3.724   3.456  10.448 -0.0238 -0.7352  0.1153
 7960TIP3   OH248074   1.951   5.361  11.614  0.4342 -0.0213 -0.3152
 7960TIP3    H148075   1.966   5.408  11.532 -0.5751  1.1171  0.1199
 7960TIP3    H248076   1.861   5.329  11.607  0.4540 -0.1971  0.2169
 7961TIP3   OH248077   0.346   5.654  10.829 -0.2533  0.0195  0.4628
 7961TIP3    H148078   0.435   5.646  10.861 -0.6511 -3.7269  1.0385
 7961TIP3    H248079   0.336   5.584  10.765 -2.3529  1.3745 -0.8330
 7962TIP3   OH248080   3.167   5.173  11.156 -0.0022 -0.1504  0.9648
 7962TIP3    H148081   3.263   5.162  11.154 -0.0647 -0.8030 -1.1056
 7962TIP3    H248082   3.152   5.259  11.115 -0.3062 -0.2156  0.9388
 7963TIP3   OH248083   6.593   2.048  12.188 -0.9785 -0.1923 -0.1368
 7963TIP3    H148084   6.585   1.989  12.263  0.4197 -1.1634 -0.7085
 7963TIP3    H248085   6.578   1.993  12.112  1.2085 -0.0774 -0.7242
 7964TIP3   OH248086   3.018   4.119  10.177 -0.2465  0.0152  0.6474
 7964TIP3    H148087   3.080   4.138  10.248 -0.1016  3.9819 -0.2684
 7964TIP3    H248088   3.066   4.139  10.097 -1.4756 -0.9312 -0.3640
 7965TIP3   OH248089   3.896   3.071   9.671 -0.0534 -0.1414 -0.7389
 7965TIP3    H148090   3.931   3.041   9.587  0.2170 -1.0813 -0.3085
 7965TIP3    H248091   3.882   3.165   9.660  2.7743  0.3265 -0.8788
 7966TIP3   OH248092   0.275   5.235   9.979 -0.2711  0.3349 -0.1515
 7966TIP3    H148093   0.348   5.178  10.004 -0.7041  0.5255  1.7002
 7966TIP3    H248094   0.316   5.309   9.936  0.7242  0.7246  1.3735
 7967TIP3   OH248095   7.278   1.077  12.265 -0.0470 -0.1167  0.1568
 7967TIP3    H148096   7.313   1.148  12.319 -1.1809 -0.6776  1.7022
 7967TIP3    H248097   7.254   1.118  12.182  2.8694  0.5537 -0.4637
 7968TIP3   OH248098   3.260   5.240  10.276  0.0959 -0.2835  0.5187
 7968TIP3    H148099   3.293   5.309  10.218  0.3558 -0.3871  0.5415
 7968TIP3    H248100   3.328   5.229  10.342  0.5486 -1.2969 -0.0985
 7969TIP3   OH248101   3.776   4.471   9.967  0.2925  0.7273 -0.8096
 7969TIP3    H148102   3.717   4.401   9.939  2.0339 -0.7098 -1.1362
 7969TIP3    H248103   3.719   4.540  10.000 -1.5671 -0.2177 -1.9013
 7970TIP3   OH248104   6.372   4.039  11.211  0.1118  0.7776 -0.0251
 7970TIP3    H148105   6.293   4.014  11.163  0.4531  1.1648 -0.7963
 7970TIP3    H248106   6.444   3.999  11.162  0.3961  0.3169  0.7478
 7971TIP3   OH248107   4.744   2.180  11.038 -0.9377  0.0720 -0.2935
 7971TIP3    H148108   4.819   2.126  11.013 -1.5794 -0.7049 -0.6120
 7971TIP3    H248109   4.780   2.268  11.049  0.2468 -0.5221  0.8161
 7972TIP3   OH248110   3.911   6.177  11.273 -0.3005  0.4974 -0.8013
 7972TIP3    H148111   3.904   6.253  11.215 -1.6557  3.3074  2.6868
 7972TIP3    H248112   3.821   6.145  11.282  0.1943 -1.3806 -1.8723
 7973TIP3   OH248113   7.030   1.383  11.674 -0.1043  0.3098  0.0831
 7973TIP3    H148114   7.042   1.469  11.633  1.5409  0.5111  0.8781
 7973TIP3    H248115   7.082   1.324  11.620  3.0050  0.7604  2.2852
 7974TIP3   OH248116   2.582   7.224  11.479 -0.5648 -0.0181 -0.4544
 7974TIP3    H148117   2.499   7.176  11.479 -1.5892  1.6364  0.3134
 7974TIP3    H248118   2.636   7.178  11.544 -2.1017  0.7113  1.4539
 7975TIP3   OH248119   0.686   5.304  12.366  0.1291  0.4629  0.2740
 7975TIP3    H148120   0.679   5.358  12.445  0.9340  1.8538 -0.5749
 7975TIP3    H248121   0.626   5.344  12.304  2.2900  1.7538 -1.0877
 7976TIP3   OH248122   6.580   1.745  12.137 -0.5865  0.6058  0.2077
 7976TIP3    H148123   6.525   1.747  12.215  0.8815  1.1846  1.2831
 7976TIP3    H248124   6.628   1.662  12.144  0.4517  1.2269  0.5972
 7977TIP3   OH248125   5.684   0.502  10.481 -0.3909  0.0415 -0.0802
 7977TIP3    H148126   5.704   0.555  10.403  1.2192  0.0075  0.2901
 7977TIP3    H248127   5.710   0.557  10.555  1.2044 -1.1673  0.3159
 7978TIP3   OH248128   6.822   1.526  12.308 -0.3911 -0.2534  0.7536
 7978TIP3    H148129   6.870   1.453  12.347  1.2354  1.1866  1.5937
 7978TIP3    H248130   6.793   1.493  12.223  0.9906 -1.6246  0.7569
 7979TIP3   OH248131   1.858   6.748  11.703  0.1189 -0.1758  0.4512
 7979TIP3    H148132   1.875   6.683  11.635  1.3249  0.5314  0.0457
 7979TIP3    H248133   1.928   6.735  11.767  1.0403  1.3900 -0.1780
 7980TIP3   OH248134   1.426   5.102  12.221 -0.4080  0.5970 -0.3710
 7980TIP3    H148135   1.462   5.173  12.273 -1.0412  3.0703 -3.0901
 7980TIP3    H248136   1.333   5.124  12.210 -0.7241 -0.8897 -0.9774
 7981TIP3   OH248137   2.742   5.706  10.634 -0.5592  0.3952 -0.2284
 7981TIP3    H148138   2.761   5.622  10.677  3.2731  0.9572 -0.5032
 7981TIP3    H248139   2.714   5.681  10.545  2.1799 -0.7224 -0.8943
 7982TIP3   OH248140   2.738   4.848   9.311  0.1830  0.3602 -0.2670
 7982TIP3    H148141   2.743   4.934   9.353 -0.7578 -0.4781  1.6479
 7982TIP3    H248142   2.826   4.834   9.276  0.4819  1.8858 -0.2186
 7983TIP3   OH248143   7.117   2.847  10.833 -0.0478  0.2318 -0.5418
 7983TIP3    H148144   7.051   2.917  10.828  1.4713  1.7231 -0.7893
 7983TIP3    H248145   7.072   2.769  10.800 -1.6100  1.2484 -0.9182
 7984TIP3   OH248146   1.904   0.009  11.601 -0.0844  0.1020 -0.1662
 7984TIP3    H148147   1.886  -0.035  11.518 -1.3758  2.2642 -1.1335
 7984TIP3    H248148   1.997   0.029  11.599  0.1648 -1.0344 -0.4580
 7985TIP3   OH248149   7.292   4.008   9.642 -0.4205  0.0677 -0.2481
 7985TIP3    H148150   7.242   4.087   9.620 -0.4181  0.0873 -0.1851
 7985TIP3    H248151   7.379   4.041   9.665 -1.1013  0.3167  2.2379
 7986TIP3   OH248152   7.185   0.776  10.564 -0.5798 -0.5202 -0.4327
 7986TIP3    H148153   7.134   0.817  10.494 -0.3604  0.1082 -0.2361
 7986TIP3    H248154   7.174   0.835  10.639  0.9338 -0.0150 -0.5712
 7987TIP3   OH248155   4.945   0.664   9.878 -0.1936 -0.4582 -0.4748
 7987TIP3    H148156   5.033   0.689   9.907 -0.9429  0.3550  1.2009
 7987TIP3    H248157   4.918   0.735   9.820 -0.0361 -0.3388 -0.4039
 7988TIP3   OH248158   1.890   1.152  11.374  0.7109  0.1335  0.4012
 7988TIP3    H148159   1.815   1.208  11.392  0.3294 -0.9348  2.3757
 7988TIP3    H248160   1.910   1.111  11.458  1.4108 -2.1467 -0.8012
 7989TIP3   OH248161   2.404   5.578  11.756 -0.0623  0.0230 -0.3072
 7989TIP3    H148162   2.412   5.497  11.807  2.6479 -0.4322 -1.2571
 7989TIP3    H248163   2.396   5.647  11.822  2.1011 -0.6663  0.7801
 7990TIP3   OH248164   3.147   2.208   9.709 -0.4658  0.0679  0.7001
 7990TIP3    H148165   3.129   2.155   9.631  0.0060  0.6617  0.1720
 7990TIP3    H248166   3.236   2.242   9.695 -0.3227  0.0721  1.5622
 7991TIP3   OH248167   6.813   0.963   9.966 -0.5358 -0.0498  0.3094
 7991TIP3    H148168   6.830   0.878  10.007  0.3088 -0.4043 -0.7137
 7991TIP3    H248169   6.877   0.967   9.894  0.9005  2.3792  1.6010
 7992TIP3   OH248170   3.724   3.063  11.042 -0.1920  0.5433 -0.1942
 7992TIP3    H148171   3.691   3.076  11.131 -0.2593  1.3976 -0.3359
 7992TIP3    H248172   3.812   3.098  11.043 -0.2173  0.6194 -0.4859
 7993TIP3   OH248173   1.095   6.071  11.146 -0.5384  0.0827 -0.3839
 7993TIP3    H148174   1.185   6.100  11.129 -0.7655 -0.1754 -2.2734
 7993TIP3    H248175   1.058   6.139  11.202  0.7683  0.2842  0.2710
 7994TIP3   OH248176   2.550   6.237  10.209  0.4651  0.0060  0.1900
 7994TIP3    H148177   2.619   6.170  10.213  0.3358 -0.0817  1.4798
 7994TIP3    H248178   2.581   6.306  10.268 -0.2018  0.3153  0.1805
 7995TIP3   OH248179   1.058   6.428  10.976 -0.2461  0.0423 -0.2009
 7995TIP3    H148180   1.142   6.406  10.936 -0.3416  0.4251 -0.6129
 7995TIP3    H248181   1.006   6.348  10.969  0.8569 -1.0110  2.1687
 7996TIP3   OH248182   3.228   1.960  11.640 -0.0062  0.1633  0.1685
 7996TIP3    H148183   3.276   1.995  11.565  0.6678  1.4666  1.1743
 7996TIP3    H248184   3.269   1.875  11.657  1.1372  0.7061  0.2381
 7997TIP3   OH248185   2.263   5.429  11.456 -0.2749  0.1822  0.0410
 7997TIP3    H148186   2.298   5.426  11.545 -0.5958 -0.8332  0.1461
 7997TIP3    H248187   2.340   5.415  11.400 -0.5317 -3.3909  0.2988
 7998TIP3   OH248188   1.890   3.148  10.204 -0.4075  0.4568 -0.3180
 7998TIP3    H148189   1.934   3.230  10.184  0.2609 -0.0112 -0.8002
 7998TIP3    H248190   1.960   3.091  10.237 -0.7465 -0.1235 -0.5953
 7999TIP3   OH248191   7.106   5.906  10.413  0.2490 -0.1957 -0.0051
 7999TIP3    H148192   7.045   5.870  10.478 -0.0433  0.5638  0.1434
 7999TIP3    H248193   7.169   5.835  10.399  0.4701 -0.2955  1.2912
 8000TIP3   OH248194   2.871   1.019  11.882  0.0707 -0.6950 -0.4216
 8000TIP3    H148195   2.850   1.036  11.790  0.3197  0.3632 -0.2942
 8000TIP3    H248196   2.852   0.926  11.894 -1.0064 -0.6056 -1.2573
 8001TIP3   OH248197   3.376   1.035  12.015 -0.0214 -0.6625  0.0547
 8001TIP3    H148198   3.424   1.039  12.097  0.3070 -0.9917 -0.1183
 8001TIP3    H248199   3.292   1.078  12.034  0.2008 -0.3981  0.4515
 8002TIP3   OH248200   4.601   2.536  10.286  0.0117 -0.5361 -0.0338
 8002TIP3    H148201   4.522   2.565  10.331  0.3822 -0.9554  0.9035
 8002TIP3    H248202   4.614   2.447  10.316 -0.0363 -1.0295 -1.4153
 8003TIP3   OH248203   5.068   2.845  11.641 -0.0618 -0.1529 -0.0431
 8003TIP3    H148204   5.120   2.790  11.699  0.3036 -1.0455 -1.1653
 8003TIP3    H248205   5.078   2.934  11.676  2.2662 -0.2803 -0.2317
 8004TIP3   OH248206   6.904   0.738  10.095  0.0924 -0.3225  0.2375
 8004TIP3    H148207   6.963   0.663  10.104 -0.5045 -0.7282  0.8037
 8004TIP3    H248208   6.822   0.710  10.136  0.3234  1.1378  1.8154
 8005TIP3   OH248209   6.746   1.797  11.934  0.3184  0.3750  0.2255
 8005TIP3    H148210   6.675   1.804  11.998 -0.6337  1.5412 -0.9114
 8005TIP3    H248211   6.808   1.866  11.960 -0.1844  1.0087 -0.2225
 8006TIP3   OH248212   1.199   0.753  12.427  0.0804  0.0694  0.3667
 8006TIP3    H148213   1.273   0.723  12.374 -0.1616 -0.1334  0.1446
 8006TIP3    H248214   1.125   0.700  12.398 -0.4060  1.0392 -0.1924
 8007TIP3   OH248215   2.544   4.647   9.326  0.3931  0.9881 -0.3681
 8007TIP3    H148216   2.526   4.640   9.232  0.0534  0.6667 -0.2773
 8007TIP3    H248217   2.591   4.730   9.334 -0.8097  1.7224 -0.6459
 8008TIP3   OH248218   0.632   5.172  11.403 -0.3974 -0.0252  0.2239
 8008TIP3    H148219   0.725   5.159  11.386 -0.2540 -0.1417  1.0760
 8008TIP3    H248220   0.613   5.258  11.366  0.2934  0.4676  0.9969
 8009TIP3   OH248221   4.263   5.860   9.973  0.5343  0.0613  0.2076
 8009TIP3    H148222   4.289   5.786   9.917  2.8514  1.3500 -0.5281
 8009TIP3    H248223   4.172   5.877   9.949  0.8956 -0.6154 -1.8654
 8010TIP3   OH248224   0.340   0.051  11.589 -0.0750  0.5855  0.2178
 8010TIP3    H148225   0.270   0.048  11.654 -0.5507 -1.2468 -0.3431
 8010TIP3    H248226   0.414   0.008  11.632 -0.4408 -0.7755 -0.4678
 8011TIP3   OH248227   4.319   3.343  12.262  0.7003 -0.1936 -0.1486
 8011TIP3    H148228   4.247   3.366  12.322  0.9252  0.1350 -0.0036
 8011TIP3    H248229   4.286   3.268  12.213  1.2456 -1.7482  1.7570
 8012TIP3   OH248230   2.314   5.729  10.127 -0.1518 -0.5856  0.3116
 8012TIP3    H148231   2.281   5.664  10.064 -1.8197 -0.4319  0.9702
 8012TIP3    H248232   2.235   5.772  10.160  0.8670  1.1682  0.5604
 8013TIP3   OH248233   1.087   4.887  12.088 -0.1337  0.1232  0.6987
 8013TIP3    H148234   1.062   4.816  12.029 -0.4537 -0.5053  1.5810
 8013TIP3    H248235   1.080   4.850  12.176  0.9467  0.8526  1.1212
 8014TIP3   OH248236   7.112   0.351  10.897  0.1371 -0.3999 -0.0420
 8014TIP3    H148237   7.052   0.380  10.965  2.7586  1.7810  1.5901
 8014TIP3    H248238   7.124   0.258  10.913 -1.4779 -0.5146  0.6416
 8015TIP3   OH248239   4.469   2.229   9.375 -0.3056  0.1635 -0.5315
 8015TIP3    H148240   4.380   2.226   9.412 -0.1760  2.0432  0.0129
 8015TIP3    H248241   4.491   2.137   9.359 -2.2699 -0.3599 -0.4973
 8016TIP3   OH248242   4.024   0.130  11.578 -0.8357 -0.1160 -0.1819
 8016TIP3    H148243   3.959   0.106  11.645  1.1053  1.7563  2.6084
 8016TIP3    H248244   3.982   0.200  11.529 -1.8234 -0.5895 -0.0432
 8017TIP3   OH248245   5.735   4.750  12.226 -0.1818  0.6060  0.2394
 8017TIP3    H148246   5.727   4.674  12.167  1.8374  0.0882  0.5548
 8017TIP3    H248247   5.662   4.740  12.288  1.7418 -2.9973  2.2872
 8018TIP3   OH248248   5.232   3.355  11.437  0.2087 -0.3055  0.3268
 8018TIP3    H148249   5.272   3.329  11.520  0.0309  0.2302  0.5858
 8018TIP3    H248250   5.292   3.322  11.370  1.7803  1.5291  0.7278
 8019TIP3   OH248251   5.188   6.919   9.599  0.1039  0.2330 -0.0197
 8019TIP3    H148252   5.141   6.874   9.530  0.1252  0.7520 -0.3785
 8019TIP3    H248253   5.119   6.958   9.654  0.0060 -1.6687  1.3191
 8020TIP3   OH248254   3.172   1.143  10.254 -0.5166 -0.0414 -0.0131
 8020TIP3    H148255   3.194   1.114  10.342  2.7999  2.4449  0.1959
 8020TIP3    H248256   3.136   1.231  10.266  1.1884  0.8677 -1.1016
 8021TIP3   OH248257   4.289   0.325  12.056 -0.5135  0.2054 -0.5719
 8021TIP3    H148258   4.304   0.400  12.114 -0.6083  0.5189 -0.9460
 8021TIP3    H248259   4.202   0.340  12.020 -0.4212  0.0622 -0.8589
 8022TIP3   OH248260   0.894   4.121  12.222 -0.5042  0.8034 -0.2333
 8022TIP3    H148261   0.847   4.189  12.270 -1.8807  0.0446 -0.4341
 8022TIP3    H248262   0.850   4.040  12.246  0.9446  0.0009 -0.1925
 8023TIP3   OH248263   2.805   5.469  12.387  0.4225 -0.0681  0.3435
 8023TIP3    H148264   2.897   5.444  12.393  0.9548  1.6171 -0.3408
 8023TIP3    H248265   2.769   5.410  12.320  0.8056 -1.2033  1.1065
 8024TIP3   OH248266   7.314   0.417   9.791  0.2325 -0.1756 -0.3297
 8024TIP3    H148267   7.386   0.388   9.735  0.1426 -0.1104 -0.4780
 8024TIP3    H248268   7.324   0.512   9.795  1.7637 -0.3462  1.8149
 8025TIP3   OH248269   5.761   1.160   9.779  0.8018 -0.0185  0.0560
 8025TIP3    H148270   5.675   1.173   9.819  0.7520  2.6194 -0.7553
 8025TIP3    H248271   5.794   1.080   9.819 -0.4588  0.8995  3.1923
 8026TIP3   OH248272   6.339   0.258  12.007 -0.6244  0.0339  0.2115
 8026TIP3    H148273   6.352   0.327  12.071  0.6800 -0.6752  0.7431
 8026TIP3    H248274   6.427   0.227  11.986 -1.1750 -1.4861  0.0213
 8027TIP3   OH248275   5.850   3.693  12.034  0.0589 -0.3985  0.1420
 8027TIP3    H148276   5.896   3.758  12.087 -1.0987  0.4461  0.1219
 8027TIP3    H248277   5.879   3.609  12.070  0.9569  0.1238  0.6823
 8028TIP3   OH248278   6.955   0.142  11.024  0.0385  0.1598 -0.1829
 8028TIP3    H148279   6.968   0.048  11.011 -0.2404  0.1530 -0.4203
 8028TIP3    H248280   6.899   0.147  11.102  1.3044  0.1863  0.7725
 8029TIP3   OH248281   1.124   7.307  10.590 -0.2177  0.6429 -0.4469
 8029TIP3    H148282   1.159   7.337  10.674  0.7260  0.3203 -0.7163
 8029TIP3    H248283   1.097   7.217  10.607 -0.4126  0.7145 -0.3789
 8030TIP3   OH248284   7.430   3.720   9.854  0.3271  0.3312 -0.0377
 8030TIP3    H148285   7.521   3.741   9.874  0.7293 -1.8496  0.8084
 8030TIP3    H248286   7.380   3.763   9.923  1.1354 -1.5868  1.9088
 8031TIP3   OH248287   0.058   1.336  11.174  0.5240 -0.0552  0.0935
 8031TIP3    H148288   0.098   1.383  11.101 -0.1371 -0.1630 -0.3480
 8031TIP3    H248289   0.028   1.404  11.234 -0.1670  0.0955 -0.4037
 8032TIP3   OH248290   0.281   1.599  10.580 -0.0886  0.3362 -0.1437
 8032TIP3    H148291   0.253   1.532  10.643  0.8149 -1.7002 -1.7718
 8032TIP3    H248292   0.203   1.651  10.564 -0.6926  0.0296  1.5943
 8033TIP3   OH248293   3.290   6.811  11.602 -0.4353 -0.1178  0.4963
 8033TIP3    H148294   3.370   6.819  11.654  1.0825 -1.4147 -1.4977
 8033TIP3    H248295   3.274   6.899  11.569  1.2151 -0.1376 -0.4755
 8034TIP3   OH248296   3.085   3.844  11.036  0.4247  0.6352  0.2830
 8034TIP3    H148297   3.138   3.832  11.115 -2.4786  0.6861  2.4000
 8034TIP3    H248298   3.057   3.756  11.012 -0.9043  0.8124  1.0402
 8035TIP3   OH248299   7.128   5.274  11.621 -0.7726 -0.1405  0.5439
 8035TIP3    H148300   7.055   5.321  11.661  0.1163  0.1175  1.9309
 8035TIP3    H248301   7.096   5.185  11.609 -1.6111  0.1863  0.2850
 8036TIP3   OH248302   5.026   5.057  10.853  0.1811  0.1500 -0.1836
 8036TIP3    H148303   5.096   4.997  10.827  0.8077  1.4075 -1.4831
 8036TIP3    H248304   5.067   5.143  10.855 -1.3267  0.9162 -1.0011
 8037TIP3   OH248305   0.167   4.682  11.768 -0.1854 -0.6395  0.8254
 8037TIP3    H148306   0.211   4.755  11.812 -1.6515  0.8861 -0.1160
 8037TIP3    H248307   0.185   4.696  11.675 -1.0390 -1.0888  0.5856
 8038TIP3   OH248308   6.129   5.164  11.938 -0.0321 -0.3090 -0.0467
 8038TIP3    H148309   6.222   5.142  11.942  0.0949 -0.3311 -1.9043
 8038TIP3    H248310   6.089   5.117  12.011  1.1762 -1.6177 -0.1916
 8039TIP3   OH248311   5.812   1.397  11.113  0.3505 -0.1110  0.0467
 8039TIP3    H148312   5.857   1.343  11.049  2.0909  1.2722  0.0218
 8039TIP3    H248313   5.741   1.440  11.064  2.1891  1.6128 -1.2612
 8040TIP3   OH248314   7.457   1.164   9.788  0.2510 -0.2841  0.1779
 8040TIP3    H148315   7.464   1.246   9.838 -0.3456 -1.3656  2.1628
 8040TIP3    H248316   7.544   1.125   9.794  0.3926 -0.0417 -0.3093
 8041TIP3   OH248317   0.476   5.031   9.742 -0.0742 -0.0113  0.0589
 8041TIP3    H148318   0.507   4.944   9.767  0.9110  1.1335  3.3169
 8041TIP3    H248319   0.381   5.020   9.734  0.0083 -1.3761  0.5993
 8042TIP3   OH248320   6.558   3.891  10.322 -0.9462 -0.1354  0.6080
 8042TIP3    H148321   6.633   3.948  10.305  0.7001 -2.3953 -0.3068
 8042TIP3    H248322   6.537   3.854  10.236 -1.4108 -1.4938  1.2780
 8043TIP3   OH248323   2.999   4.505  10.752 -0.4266  0.0630  0.0797
 8043TIP3    H148324   2.985   4.476  10.843  0.9337  0.7397  0.5210
 8043TIP3    H248325   3.088   4.538  10.751 -0.2888 -0.2945 -1.6231
 8044TIP3   OH248326   5.541   2.850  11.737 -0.0584 -0.1994  0.1523
 8044TIP3    H148327   5.484   2.800  11.796  0.5329  0.9027  1.7143
 8044TIP3    H248328   5.480   2.895  11.678 -0.7391 -0.2766  0.7810
 8045TIP3   OH248329   0.165   1.724  11.833  0.2894  0.3152  0.2058
 8045TIP3    H148330   0.146   1.750  11.924 -1.4922 -0.0080 -0.0435
 8045TIP3    H248331   0.107   1.650  11.816  1.2490 -0.2086 -0.9298
 8046TIP3   OH248332   4.142   0.067   9.981 -0.0595  0.0844  0.0366
 8046TIP3    H148333   4.059   0.101  10.016  0.4213  0.9422  0.3428
 8046TIP3    H248334   4.208   0.128  10.011  0.4939  0.3361 -1.6097
 8047TIP3   OH248335   7.145   3.204  10.842 -0.0862  1.0794 -0.3471
 8047TIP3    H148336   7.065   3.239  10.803  0.3331  1.7605 -0.6095
 8047TIP3    H248337   7.207   3.199  10.768 -0.0180  0.1552 -0.2357
 8048TIP3   OH248338   6.575   2.800  10.875  0.2137 -0.1688 -0.5407
 8048TIP3    H148339   6.585   2.893  10.855  0.3517  0.0926  0.6961
 8048TIP3    H248340   6.602   2.755  10.794  1.1563  0.8256 -0.8006
 8049TIP3   OH248341   2.314   6.398  10.356  1.2095 -0.5167  0.0601
 8049TIP3    H148342   2.271   6.318  10.384  0.7139 -0.2407  0.0943
 8049TIP3    H248343   2.365   6.427  10.432  0.5917 -0.2591  0.3839
 8050TIP3   OH248344   3.643   0.442  10.769 -0.3680  0.1348  0.3199
 8050TIP3    H148345   3.551   0.460  10.754 -0.9712 -2.5212  0.3652
 8050TIP3    H248346   3.649   0.424  10.863  0.0329 -0.5220  0.1720
 8051TIP3   OH248347   5.714   4.003  10.376  0.1921 -0.6455 -0.2159
 8051TIP3    H148348   5.734   3.968  10.289  1.2341  0.1158 -0.3047
 8051TIP3    H248349   5.621   4.023  10.373  0.1830 -0.7673 -1.1210
 8052TIP3   OH248350   1.256   4.207  10.021 -0.0228 -0.4877 -0.1672
 8052TIP3    H148351   1.245   4.191  10.115 -1.2976 -0.2440 -0.2558
 8052TIP3    H248352   1.191   4.275  10.000  1.0215  0.2963 -1.0129
 8053TIP3   OH248353   1.687   5.180   9.434 -0.2506  0.4328 -0.3366
 8053TIP3    H148354   1.776   5.205   9.407  1.0990 -0.5501  2.7314
 8053TIP3    H248355   1.695   5.160   9.527 -3.3966 -1.2577 -0.2931
 8054TIP3   OH248356   5.911   5.194   9.792 -0.0119  0.0420  0.3357
 8054TIP3    H148357   5.829   5.242   9.803  0.5230  1.4072 -1.1125
 8054TIP3    H248358   5.885   5.111   9.750 -0.7135  0.1694  0.5093
 8055TIP3   OH248359   7.384   0.039  10.778  0.2985 -0.5572 -0.3546
 8055TIP3    H148360   7.345  -0.044  10.750 -1.5255  0.0943  0.0911
 8055TIP3    H248361   7.411   0.081  10.696  1.1339 -1.5088 -0.5945
 8056TIP3   OH248362   2.537   0.090   9.788 -0.5144  0.4062 -0.3172
 8056TIP3    H148363   2.583   0.120   9.866 -1.0322 -0.1035  0.1933
 8056TIP3    H248364   2.522   0.169   9.737 -0.0922  0.7332  0.0550
 8057TIP3   OH248365   1.704   1.207  11.671  0.4623  0.1760 -0.4043
 8057TIP3    H148366   1.681   1.236  11.759 -0.0060 -0.2131 -0.3975
 8057TIP3    H248367   1.715   1.288  11.621 -0.7869  0.3854 -0.3720
 8058TIP3   OH248368   5.665   2.293  10.574 -0.1422 -0.1110 -0.6261
 8058TIP3    H148369   5.631   2.316  10.488  0.7004  0.7448 -0.7510
 8058TIP3    H248370   5.741   2.238  10.556 -0.5365 -0.7277 -0.4012
 8059TIP3   OH248371   0.840   4.160   9.834  0.1248 -0.6133 -0.5713
 8059TIP3    H148372   0.888   4.203   9.905  0.5132  0.2682 -1.3455
 8059TIP3    H248373   0.897   4.167   9.758 -1.0047  0.0370 -1.3983
 8060TIP3   OH248374   2.087   6.185  10.990  0.4963  0.1394 -0.0983
 8060TIP3    H148375   2.075   6.107  10.936 -0.3536  1.3885 -1.7912
 8060TIP3    H248376   2.015   6.181  11.053 -0.4620  0.3213 -1.1573
 8061TIP3   OH248377   2.165   3.021  10.731  0.5230  0.3530 -0.2684
 8061TIP3    H148378   2.255   3.035  10.761 -0.0765  1.4976  1.0791
 8061TIP3    H248379   2.120   3.102  10.752 -0.9176 -0.3304 -0.6224
 8062TIP3   OH248380   5.693   4.408   9.913  0.1710  0.3871 -0.0398
 8062TIP3    H148381   5.647   4.447   9.838  0.5866 -1.2088 -1.1615
 8062TIP3    H248382   5.623   4.370   9.966  0.0551 -1.8737 -1.6490
 8063TIP3   OH248383   6.918   6.720  10.380  0.0069  0.0788 -0.3189
 8063TIP3    H148384   6.875   6.803  10.401 -0.5432 -0.3143  0.1488
 8063TIP3    H248385   6.906   6.667  10.459 -1.2108 -1.0807 -1.2567
 8064TIP3   OH248386   3.147   2.315  10.612 -0.0897 -0.4234 -0.2218
 8064TIP3    H148387   3.097   2.233  10.619 -1.1087  0.2518  0.7738
 8064TIP3    H248388   3.139   2.341  10.521 -2.7985  0.3874  0.1655
 8065TIP3   OH248389   3.848   4.489  10.946  0.3047 -0.0568 -0.6867
 8065TIP3    H148390   3.787   4.560  10.967 -0.2197 -0.9028  0.7457
 8065TIP3    H248391   3.913   4.530  10.889 -0.6198  1.2894 -0.8286
 8066TIP3   OH248392   4.158   3.830  11.681  0.6423  0.5220 -0.2143
 8066TIP3    H148393   4.210   3.831  11.600  0.4145  2.0302 -0.3810
 8066TIP3    H248394   4.073   3.796  11.654  1.2303 -1.1260 -0.1171
 8067TIP3   OH248395   2.099   0.175  11.797  0.2664 -0.2956 -0.4021
 8067TIP3    H148396   2.064   0.223  11.722 -0.3016 -0.5758 -0.3226
 8067TIP3    H248397   2.194   0.176  11.784  0.2259  0.3508 -0.7001
 8068TIP3   OH248398   4.408   0.419  11.809 -0.0371  0.2179  0.5037
 8068TIP3    H148399   4.372   0.357  11.744  1.5342  1.2091 -1.4235
 8068TIP3    H248400   4.387   0.379  11.893 -0.2357 -2.2973 -0.6259
 8069TIP3   OH248401   3.035   0.082  10.933 -0.7077  0.1360  0.0998
 8069TIP3    H148402   3.073   0.151  10.879 -0.3343  0.6273  0.9585
 8069TIP3    H248403   2.949   0.117  10.959 -0.1821  0.6669  1.2113
 8070TIP3   OH248404   6.185   0.587  11.973 -0.3108 -0.3435 -0.1043
 8070TIP3    H148405   6.190   0.556  12.063 -1.0903  1.3436  0.5776
 8070TIP3    H248406   6.265   0.638  11.960 -0.5615  0.0621 -0.0850
 8071TIP3   OH248407   5.595   4.841  11.132 -0.4342 -0.4536 -0.0802
 8071TIP3    H148408   5.673   4.855  11.186 -1.0662 -1.4353  1.1240
 8071TIP3    H248409   5.605   4.903  11.060  0.7478  0.4568  0.8247
 8072TIP3   OH248410   5.848   0.316  10.102 -0.1278  0.1617 -0.1212
 8072TIP3    H148411   5.854   0.310  10.006 -0.6684  0.5183 -0.1792
 8072TIP3    H248412   5.919   0.260  10.134  1.3660  1.5876 -0.7524
 8073TIP3   OH248413   7.321   4.675   9.317 -0.1902 -0.0901  0.0302
 8073TIP3    H148414   7.343   4.675   9.224 -1.1219  0.1470 -0.1973
 8073TIP3    H248415   7.386   4.618   9.357  0.9154  0.6936 -0.5964
 8074TIP3   OH248416   0.669   1.380   9.923 -0.5983 -0.2111  0.0350
 8074TIP3    H148417   0.630   1.353  10.006  0.5400 -0.8800  0.3749
 8074TIP3    H248418   0.594   1.399   9.867 -1.3906  0.4715  1.2706
 8075TIP3   OH248419   7.127   1.872  12.203  0.1103  0.3065 -0.5604
 8075TIP3    H148420   7.137   1.966  12.216  1.0834  0.0335  1.0248
 8075TIP3    H248421   7.041   1.852  12.240  1.4167  0.0924  2.7702
 8076TIP3   OH248422   4.489   0.797  11.806 -0.0578  0.4367 -0.2605
 8076TIP3    H148423   4.564   0.739  11.819 -0.0594  0.5101  0.0892
 8076TIP3    H248424   4.476   0.839  11.891 -0.2761  0.6877 -0.4154
 8077TIP3   OH248425   0.837   5.502  10.575 -0.2441 -0.5447 -0.2604
 8077TIP3    H148426   0.795   5.517  10.660 -0.7433 -2.1937 -0.1776
 8077TIP3    H248427   0.875   5.414  10.582  0.5267 -0.3299 -1.4297
 8078TIP3   OH248428   4.335   2.354  10.785  0.4112  0.1177 -0.5758
 8078TIP3    H148429   4.402   2.420  10.769  1.3982 -0.6128  0.3946
 8078TIP3    H248430   4.384   2.276  10.811 -0.7411 -0.9145 -1.3973
 8079TIP3   OH248431   5.655   6.352   9.795  0.2910 -0.0335 -0.1723
 8079TIP3    H148432   5.581   6.386   9.745 -1.3059  0.4309  2.2894
 8079TIP3    H248433   5.658   6.259   9.774 -0.0975  0.1984 -1.3410
 8080TIP3   OH248434   4.130   1.517   9.422 -0.3754  0.5364 -0.0801
 8080TIP3    H148435   4.089   1.592   9.379  0.5769  0.4870 -1.1310
 8080TIP3    H248436   4.221   1.520   9.392 -0.6535 -1.9098 -1.3624
 8081TIP3   OH248437   1.505   7.091  10.362 -0.6178  0.0679  0.3711
 8081TIP3    H148438   1.436   7.031  10.391 -1.0252  0.1569 -0.3809
 8081TIP3    H248439   1.552   7.042  10.294 -1.0761  0.6514 -0.3909
 8082TIP3   OH248440   3.080   4.420  11.009  0.3392  0.0807  0.2833
 8082TIP3    H148441   3.026   4.354  11.053  1.1206 -0.0288  1.1037
 8082TIP3    H248442   3.030   4.502  11.018 -0.8610 -0.4554 -1.1569
 8083TIP3   OH248443   7.314   6.153  12.416  0.3902  0.3355  0.2148
 8083TIP3    H148444   7.407   6.156  12.394  0.8401  0.9946  2.0818
 8083TIP3    H248445   7.306   6.206  12.495 -1.5696  0.2354  0.1267
 8084TIP3   OH248446   3.859   6.425   9.832 -0.3045 -0.5523  0.0999
 8084TIP3    H148447   3.856   6.458   9.922  2.4940  1.9326 -0.5787
 8084TIP3    H248448   3.783   6.465   9.790 -1.4691 -1.4970  1.2211
 8085TIP3   OH248449   3.240   6.393   9.735 -0.3788  0.0812 -0.0209
 8085TIP3    H148450   3.288   6.474   9.755 -3.0705  1.6109  0.7998
 8085TIP3    H248451   3.238   6.346   9.818  1.2398 -0.9472 -0.5139
 8086TIP3   OH248452   5.522   3.451  10.727  0.3778  0.2531 -0.4637
 8086TIP3    H148453   5.458   3.396  10.682  0.5522 -0.2857 -0.0792
 8086TIP3    H248454   5.500   3.540  10.702  1.4965 -0.0941 -2.9665
 8087TIP3   OH248455   0.321   3.686  10.912 -0.2516 -0.9108 -0.7555
 8087TIP3    H148456   0.386   3.623  10.944  0.5089 -0.5330 -1.5065
 8087TIP3    H248457   0.262   3.700  10.986  1.7040  0.2782  0.6641
 8088TIP3   OH248458   2.799   4.157  11.925 -0.1213  0.1067  0.0061
 8088TIP3    H148459   2.796   4.220  11.997 -0.0526  1.3419 -1.0334
 8088TIP3    H248460   2.709   4.125  11.917 -0.5573  1.4460 -0.6152
 8089TIP3   OH248461   4.486   1.240  10.750 -0.3910  0.1070 -0.5438
 8089TIP3    H148462   4.390   1.249  10.754 -0.5206 -0.6791 -1.5221
 8089TIP3    H248463   4.503   1.150  10.778 -0.0199 -0.0486 -1.2393
 8090TIP3   OH248464   1.869   0.029  11.915 -0.1436 -0.5559  0.1963
 8090TIP3    H148465   1.947   0.061  11.869  0.6701 -0.8865  1.2767
 8090TIP3    H248466   1.832   0.107  11.957  0.3921 -0.5956  0.7678
 8091TIP3   OH248467   7.221   5.560   9.641 -0.1122 -0.4095  0.4355
 8091TIP3    H148468   7.283   5.589   9.709  0.2247 -0.3053  0.0879
 8091TIP3    H248469   7.267   5.491   9.594  0.0118  0.1295 -0.2584
 8092TIP3   OH248470   2.823   0.184  12.028 -0.2777 -0.1864 -0.1794
 8092TIP3    H148471   2.747   0.191  12.085 -0.0105 -0.1147  0.1743
 8092TIP3    H248472   2.897   0.171  12.088 -0.2526 -2.4160 -0.5938
 8093TIP3   OH248473   0.742   6.263  11.258  0.0477 -0.1410  0.0130
 8093TIP3    H148474   0.665   6.319  11.270 -1.1948 -1.4711 -1.4635
 8093TIP3    H248475   0.727   6.189  11.318  0.2080 -0.3685 -0.2266
 8094TIP3   OH248476   0.280   2.697  10.578  0.1215  0.5702 -0.1978
 8094TIP3    H148477   0.190   2.715  10.553  0.7105  1.1853 -2.0549
 8094TIP3    H248478   0.327   2.689  10.495  1.2428 -2.7667  0.6033
 8095TIP3   OH248479   3.923   4.094  11.601  0.0694 -0.1614  0.0717
 8095TIP3    H148480   3.891   4.031  11.536 -1.3479  0.5549  0.0216
 8095TIP3    H248481   3.893   4.060  11.685  0.3544 -0.1761  0.1678
 8096TIP3   OH248482   1.284   5.158  11.111  0.0629 -0.2581 -0.3126
 8096TIP3    H148483   1.338   5.129  11.185 -0.6718  0.6121  0.5976
 8096TIP3    H248484   1.324   5.240  11.083  0.5605 -0.7709 -1.1484
 8097TIP3   OH248485   5.733   4.856   9.736 -0.1538  0.1482  0.6074
 8097TIP3    H148486   5.719   4.762   9.742  1.1895 -0.0271  1.1922
 8097TIP3    H248487   5.809   4.873   9.791 -1.2437  1.7954  1.7136
 8098TIP3   OH248488   0.739   0.966  10.614  0.0566  0.1758 -0.0893
 8098TIP3    H148489   0.683   0.969  10.692 -0.0156 -0.0046 -0.1338
 8098TIP3    H248490   0.814   0.912  10.640 -0.2381 -0.3533 -0.3176
 8099TIP3   OH248491   2.279   5.274   9.716  0.0254  0.2027 -0.2937
 8099TIP3    H148492   2.287   5.340   9.647 -0.3974  0.2028 -0.3456
 8099TIP3    H248493   2.202   5.300   9.766  0.9981  0.8681  0.9132
 8100TIP3   OH248494   1.900   3.724   9.717 -0.1861 -0.4214  0.3177
 8100TIP3    H148495   1.829   3.660   9.715 -0.5023 -0.0581 -0.3787
 8100TIP3    H248496   1.865   3.799   9.764  0.2031 -0.7713  1.1804
 8101TIP3   OH248497   3.248   5.588  11.489  0.1557 -0.2607  0.4066
 8101TIP3    H148498   3.256   5.512  11.432 -0.9813 -0.2850  0.2455
 8101TIP3    H248499   3.265   5.555  11.577 -0.7925 -0.8212  0.3946
 8102TIP3   OH248500   6.815   5.222  10.773 -0.1169 -0.0963 -0.0627
 8102TIP3    H148501   6.890   5.184  10.727  0.3766  0.4219  0.3002
 8102TIP3    H248502   6.841   5.222  10.865  0.1373  1.6109 -0.1048
 8103TIP3   OH248503   6.384   0.747  12.875 -0.1308 -0.0345  0.4577
 8103TIP3    H148504   6.414   0.663  12.839  0.0168 -0.2363  1.0545
 8103TIP3    H248505   6.324   0.723  12.945  0.2112  0.3544  0.8879
 8104TIP3   OH248506   1.058   3.667  10.616 -0.2684  0.3923 -0.0548
 8104TIP3    H148507   1.146   3.704  10.628  0.6541 -0.3492 -3.3058
 8104TIP3    H248508   1.024   3.712  10.539 -1.2383 -1.8127 -0.9986
 8105TIP3   OH248509   2.951   2.969  10.404 -0.5149  0.4334 -0.3994
 8105TIP3    H148510   2.915   2.908  10.468 -0.2728  0.2543 -0.4325
 8105TIP3    H248511   3.037   2.992  10.438 -1.0892  1.7145  0.2421
 8106TIP3   OH248512   4.236   2.714  11.068 -0.5857  0.3856  0.0486
 8106TIP3    H148513   4.202   2.788  11.119  2.2451  2.7272 -1.1438
 8106TIP3    H248514   4.183   2.714  10.988 -1.1741  0.5630  0.4307
 8107TIP3   OH248515   7.398   3.759  10.562  0.3721  0.3731 -0.2404
 8107TIP3    H148516   7.331   3.782  10.626 -0.4352  0.5243 -1.1187
 8107TIP3    H248517   7.479   3.752  10.613 -0.2651  0.4067  0.7970
 8108TIP3   OH248518   2.329   4.680  10.419  0.2145  0.2161  0.0578
 8108TIP3    H148519   2.420   4.707  10.431  0.1963  0.5834 -0.5445
 8108TIP3    H248520   2.334   4.597  10.372  0.2403  0.4307 -0.3263
 8109TIP3   OH248521   4.710   2.212   9.647 -0.2032  0.3007 -0.0150
 8109TIP3    H148522   4.714   2.267   9.725 -0.8154  0.0181  0.2182
 8109TIP3    H248523   4.680   2.270   9.577  1.7645  0.9318 -0.4017
 8110TIP3   OH248524   7.216   6.113  11.855  0.3282 -0.1311 -0.2669
 8110TIP3    H148525   7.273   6.109  11.932  1.5097 -0.8649 -1.1348
 8110TIP3    H248526   7.274   6.140  11.784 -0.8066  0.8393 -0.8608
 8111TIP3   OH248527   3.952   1.204  10.609 -0.1164  0.7941 -0.5126
 8111TIP3    H148528   3.985   1.117  10.630  0.5357  1.0728 -0.3563
 8111TIP3    H248529   3.856   1.196  10.617 -0.0754  0.0485 -0.7031
 8112TIP3   OH248530   5.167   6.485  10.480  0.2711 -0.0208  0.0058
 8112TIP3    H148531   5.121   6.495  10.396 -0.1060  1.4015  0.3573
 8112TIP3    H248532   5.259   6.500  10.460  0.2579 -0.2845 -0.2533
 8113TIP3   OH248533   5.758   6.421  11.052  0.1195  0.1407 -0.2262
 8113TIP3    H148534   5.718   6.351  11.000  0.5316 -0.1245 -0.1927
 8113TIP3    H248535   5.757   6.497  10.994 -1.8687  0.5815  0.3205
 8114TIP3   OH248536   4.979   5.917  10.988 -0.1649 -0.2480 -0.1546
 8114TIP3    H148537   4.976   6.008  11.015 -3.1871  0.0726 -1.1634
 8114TIP3    H248538   5.040   5.914  10.915  0.4123  0.8108  0.2718
 8115TIP3   OH248539   7.161   4.578  10.857 -1.0031  0.2915  0.3782
 8115TIP3    H148540   7.200   4.664  10.870  0.5191 -0.1014 -1.1402
 8115TIP3    H248541   7.235   4.517  10.865 -1.1292 -0.4800 -2.7491
 8116TIP3   OH248542   6.615   4.412   9.902 -0.0831 -0.7275  0.2438
 8116TIP3    H148543   6.645   4.486   9.954  0.1202 -1.0340  0.5658
 8116TIP3    H248544   6.552   4.367   9.958 -1.3062  0.0089 -0.4901
 8117TIP3   OH248545   1.497   3.928   9.977  0.1646  0.5539 -0.0862
 8117TIP3    H148546   1.429   3.863   9.960  1.6334 -0.5436 -2.1718
 8117TIP3    H248547   1.471   4.004   9.924  0.4891  0.1923 -0.7647
 8118TIP3   OH248548   2.874   3.641   9.708  0.1514  0.3840  0.1252
 8118TIP3    H148549   2.946   3.579   9.696  1.2726  1.0731  2.6233
 8118TIP3    H248550   2.900   3.694   9.784 -1.8036  2.4167 -0.5111
 8119TIP3   OH248551   4.023   0.102  10.845 -0.1453  0.0315  0.2645
 8119TIP3    H148552   3.939   0.122  10.887 -1.1855 -1.0853 -1.1682
 8119TIP3    H248553   4.063   0.188  10.829 -0.8648  0.5685  1.2400
 8120TIP3   OH248554   5.501   4.365  10.443  0.0687 -0.1016  0.5457
 8120TIP3    H148555   5.495   4.270  10.434 -2.2329  0.1339 -0.9731
 8120TIP3    H248556   5.428   4.389  10.500  0.8650  0.7657  1.2466
 8121TIP3   OH248557   3.821   4.709  11.132 -0.1079 -0.2368  0.1513
 8121TIP3    H148558   3.736   4.752  11.122 -0.0200 -0.2875 -0.9516
 8121TIP3    H248559   3.882   4.781  11.148 -0.3482 -0.2059  1.0213
 8122TIP3   OH248560   2.357   1.376  17.225  0.0483  0.1785 -0.4954
 8122TIP3    H148561   2.331   1.469  17.226 -2.7887 -0.5054 -1.0251
 8122TIP3    H248562   2.323   1.343  17.141 -0.5684 -1.6960  0.4366
 8123TIP3   OH248563   6.843   5.035  11.296 -0.1454 -1.0663  0.1027
 8123TIP3    H148564   6.808   4.966  11.352  0.0809 -2.1275 -1.0061
 8123TIP3    H248565   6.931   5.004  11.272  1.0477  0.8686  1.6951
 8124TIP3   OH248566   5.570   0.757  10.042 -0.0245 -0.1654  0.4446
 8124TIP3    H148567   5.544   0.702   9.968  0.7686 -1.4527  1.1014
 8124TIP3    H248568   5.577   0.697  10.116  1.9914  0.5899  0.9252
 8125TIP3   OH248569   2.186   0.758  12.540 -0.3595  0.1297  0.1018
 8125TIP3    H148570   2.281   0.767  12.540 -0.3154 -0.2657 -0.6934
 8125TIP3    H248571   2.153   0.847  12.553  0.1162  0.3910 -0.4604
 8126TIP3   OH248572   4.208   3.084  10.293  0.5898  0.5019  0.5301
 8126TIP3    H148573   4.147   3.090  10.367  2.6817 -1.0137  2.5267
 8126TIP3    H248574   4.178   3.007  10.244 -0.5125  1.2162  0.0391
 8127TIP3   OH248575   1.991   5.294  11.129  1.1873  0.3186 -0.0665
 8127TIP3    H148576   1.914   5.306  11.185  0.1026 -0.8039 -1.2376
 8127TIP3    H248577   2.031   5.214  11.162  1.8971  0.9253  0.5686
 8128TIP3   OH248578   2.705   3.034  11.666 -0.2814  0.2124 -0.1175
 8128TIP3    H148579   2.758   2.985  11.728  1.3708 -0.6003 -2.0475
 8128TIP3    H248580   2.727   3.125  11.681 -1.8040  0.2819  2.1072
 8129TIP3   OH248581   3.766   5.020   9.679  0.1767 -0.5724  0.3230
 8129TIP3    H148582   3.693   4.958   9.676  0.3158 -0.7113 -0.2021
 8129TIP3    H248583   3.844   4.965   9.681  0.4022 -0.4615 -2.2999
 8130TIP3   OH248584   0.601   4.052  10.317  0.4081  0.5260 -0.1948
 8130TIP3    H148585   0.559   4.000  10.248  1.2045 -0.2813 -0.0865
 8130TIP3    H248586   0.542   4.127  10.329  0.3715  0.8335 -1.9417
 8131TIP3   OH248587   5.556   5.297  11.459 -0.2908  0.7616  0.5809
 8131TIP3    H148588   5.516   5.211  11.472 -0.4408  0.4606 -1.4875
 8131TIP3    H248589   5.511   5.355  11.521 -1.0666 -0.3880  1.1249
 8132TIP3   OH248590   4.450   5.776  12.644  0.0668 -0.5609 -0.5705
 8132TIP3    H148591   4.372   5.831  12.637  0.8982  0.6908 -0.2606
 8132TIP3    H248592   4.415   5.687  12.651 -1.4531  0.1469  2.2542
 8133TIP3   OH248593   2.274   0.749  10.296  0.9290 -0.3260  0.1136
 8133TIP3    H148594   2.188   0.743  10.337  1.5557 -3.2494  1.1903
 8133TIP3    H248595   2.335   0.752  10.369  1.8329  0.1508 -0.6471
 8134TIP3   OH248596   0.018   5.817  17.051  0.0240  0.1136  0.5959
 8134TIP3    H148597   0.017   5.763  17.130 -0.5087  0.3768  0.7753
 8134TIP3    H248598   0.099   5.867  17.056 -0.1499  0.3529  1.1322
 8135TIP3   OH248599   2.525   6.286  11.398 -0.2412 -0.4473  0.0908
 8135TIP3    H148600   2.449   6.289  11.339 -0.0373 -1.4405 -0.2458
 8135TIP3    H248601   2.583   6.355  11.366 -0.5981 -0.2817 -0.2105
 8136TIP3   OH248602   2.599   1.174  12.308 -0.1808  0.4768 -0.3347
 8136TIP3    H148603   2.511   1.159  12.344  0.3789  0.8409  1.2685
 8136TIP3    H248604   2.588   1.246  12.246 -0.7079  1.8662  1.3121
 8137TIP3   OH248605   6.847   4.757   9.280  0.2985  0.1890  0.3690
 8137TIP3    H148606   6.866   4.830   9.340 -0.3818  0.6968 -0.0156
 8137TIP3    H248607   6.760   4.777   9.245 -0.0337 -0.9829  0.4902
 8138TIP3   OH248608   0.396   3.091  11.691 -0.2446  0.7971  0.0372
 8138TIP3    H148609   0.363   3.050  11.771 -2.0358  0.4170 -0.8521
 8138TIP3    H248610   0.337   3.165  11.676 -0.1539  0.6357 -1.1321
 8139TIP3   OH248611   3.195   2.045  10.550 -0.3589  0.2541  0.6965
 8139TIP3    H148612   3.286   2.065  10.532  0.6485 -3.1026  1.3782
 8139TIP3    H248613   3.152   2.045  10.465  0.6137  0.3894  0.2018
 8140TIP3   OH248614   3.685   1.551  10.291 -0.1654 -0.3153 -0.2029
 8140TIP3    H148615   3.753   1.494  10.254 -0.3745 -0.2513 -0.6928
 8140TIP3    H248616   3.729   1.634  10.305  0.4434 -0.8924  1.5594
 8141TIP3   OH248617   4.858   3.627  10.010  0.0088 -0.0269  0.0407
 8141TIP3    H148618   4.784   3.601  10.064 -0.9970  0.4708 -1.0553
 8141TIP3    H248619   4.873   3.552   9.952 -1.3877  0.8486 -1.5346
 8142TIP3   OH248620   5.700   4.011   9.854 -0.7930  0.2556 -0.3164
 8142TIP3    H148621   5.775   4.063   9.827 -0.3366  0.6515  1.5847
 8142TIP3    H248622   5.708   3.930   9.804  0.6666  0.4653 -0.4726
 8143TIP3   OH248623   0.797   2.230  11.306  0.1975  0.4453 -0.3900
 8143TIP3    H148624   0.707   2.212  11.280 -0.6151  1.3385  1.5876
 8143TIP3    H248625   0.821   2.157  11.362  1.1575 -0.3661 -1.7897
 8144TIP3   OH248626   6.757   7.435  12.307 -0.4427  0.0457  0.2367
 8144TIP3    H148627   6.801   7.420  12.224 -1.6358  1.1613 -0.6351
 8144TIP3    H248628   6.824   7.477  12.362  0.0472  0.2585 -0.5055
 8145TIP3   OH248629   6.422   1.007  11.825 -0.5124 -0.2513  0.2501
 8145TIP3    H148630   6.508   1.028  11.790  0.6955 -2.3768  1.7315
 8145TIP3    H248631   6.398   1.084  11.877  2.0206 -0.8416  2.4818
 8146TIP3   OH248632   4.570   4.653  10.446 -0.1418 -0.0343  0.6144
 8146TIP3    H148633   4.475   4.656  10.447 -0.1919 -1.4543  1.4275
 8146TIP3    H248634   4.597   4.720  10.508 -0.5378  1.4357 -0.7202
 8147TIP3   OH248635   0.363   6.567  11.649  0.1513 -0.3190  0.3482
 8147TIP3    H148636   0.307   6.621  11.593 -1.7425 -2.0897  0.3913
 8147TIP3    H248637   0.370   6.616  11.730 -1.0182  0.1618  0.1832
 8148TIP3   OH248638   2.633   5.516   9.775  0.2056 -0.0320 -0.2584
 8148TIP3    H148639   2.612   5.579   9.844 -0.4895  0.0618 -0.5422
 8148TIP3    H248640   2.717   5.479   9.801 -0.7423 -1.1142  1.4591
 8149TIP3   OH248641   1.697   1.483   9.957 -0.1582  0.1834 -0.3485
 8149TIP3    H148642   1.735   1.466   9.871  0.7533  0.7302 -0.0671
 8149TIP3    H248643   1.615   1.529   9.938  1.0604  2.2617 -0.9097
 8150TIP3   OH248644   5.002   1.974  10.693  0.5900  0.0462 -0.3356
 8150TIP3    H148645   5.050   1.996  10.773 -0.1195 -0.9503  0.3948
 8150TIP3    H248646   4.998   1.879  10.693 -1.7171  0.0872 -0.1485
 8151TIP3   OH248647   7.309   3.648   9.592  0.1862 -0.5408  0.2770
 8151TIP3    H148648   7.297   3.652   9.686 -3.5745  1.9376 -0.1062
 8151TIP3    H248649   7.336   3.737   9.568  2.6872 -1.5241 -0.9518
 8152TIP3   OH248650   3.558   1.890  11.134  0.0493 -1.1349 -0.5066
 8152TIP3    H148651   3.567   1.797  11.113  0.3481 -0.5749 -3.2259
 8152TIP3    H248652   3.647   1.919  11.152 -0.1818 -1.5657  1.6744
 8153TIP3   OH248653   4.796   0.948  10.120 -0.4272  0.3045  0.3044
 8153TIP3    H148654   4.831   0.864  10.149 -1.2734 -0.1578  0.0292
 8153TIP3    H248655   4.869   0.989  10.072  0.3488  0.2366  1.3956
 8154TIP3   OH248656   6.867   4.054  10.628 -0.1812  0.0203 -0.0317
 8154TIP3    H148657   6.845   4.134  10.581 -0.1943 -0.1127 -0.2566
 8154TIP3    H248658   6.782   4.012  10.646 -0.1103 -0.7265 -1.3143
 8155TIP3   OH248659   4.765   3.364  10.284  0.2131 -0.8929 -0.7682
 8155TIP3    H148660   4.730   3.447  10.251  3.4201  1.8695  1.9570
 8155TIP3    H248661   4.848   3.353  10.238  1.7672 -0.2359  1.6608
 8156TIP3   OH248662   2.453   1.101  10.972  0.4053  0.1775  0.1769
 8156TIP3    H148663   2.389   1.164  10.940  0.3326 -0.8541 -1.8817
 8156TIP3    H248664   2.418   1.073  11.057 -0.5061  1.5026  0.2728
 8157TIP3   OH248665   7.337   1.320  10.102  0.5239  0.1962  0.3314
 8157TIP3    H148666   7.324   1.369  10.022 -1.9095 -2.2241 -0.9149
 8157TIP3    H248667   7.334   1.386  10.172  1.8289  2.2410 -1.4162
 8158TIP3   OH248668   1.848   3.390  10.581 -0.1526  0.1263 -0.0477
 8158TIP3    H148669   1.791   3.407  10.656 -1.6468 -1.7708 -0.6955
 8158TIP3    H248670   1.834   3.465  10.524 -0.6796  0.5159  0.5762
 8159TIP3   OH248671   3.356   4.630  12.419  0.0900 -0.2160 -0.5409
 8159TIP3    H148672   3.262   4.646  12.430  0.6780  2.3936  1.3007
 8159TIP3    H248673   3.360   4.566  12.347 -3.0074  0.9117 -1.9062
 8160TIP3   OH248674   5.880   6.150  10.035 -0.5347  0.4509  0.2880
 8160TIP3    H148675   5.917   6.138   9.948 -2.0273 -0.6047 -0.2354
 8160TIP3    H248676   5.893   6.243  10.054  0.2536  0.5871 -0.8292
 8161TIP3   OH248677   3.092   6.094  11.483  0.5732  0.2142 -0.0561
 8161TIP3    H148678   3.071   6.064  11.395  1.0315 -0.1312 -0.0541
 8161TIP3    H248679   3.182   6.063  11.498  1.0465  1.5205 -0.0232
 8162TIP3   OH248680   4.021   3.330  12.320 -0.1738 -0.6760 -0.3302
 8162TIP3    H148681   3.940   3.379  12.332 -0.3567 -0.2660 -2.6914
 8162TIP3    H248682   3.995   3.252  12.271  0.7581 -0.8753 -0.5320
 8163TIP3   OH248683   2.205   1.416  11.060 -0.0167  0.0157  0.0707
 8163TIP3    H148684   2.245   1.349  11.005  1.5048  0.7736  0.2005
 8163TIP3    H248685   2.114   1.421  11.030  0.2724 -0.9532 -1.0251
 8164TIP3   OH248686   2.896   4.329  10.540  0.2384 -0.0389  0.3669
 8164TIP3    H148687   2.936   4.393  10.481  1.5834 -0.8469  0.3689
 8164TIP3    H248688   2.889   4.376  10.624 -0.3211  0.6359 -0.0534
 8165TIP3   OH248689   0.140   5.782  10.028  0.9673  0.0239 -0.3014
 8165TIP3    H148690   0.155   5.831  10.109  0.9132 -0.3690 -0.0519
 8165TIP3    H248691   0.190   5.701  10.040 -0.2946 -0.7288 -0.0067
 8166TIP3   OH248692   6.065   3.020  10.823  0.8164  0.0840  0.4635
 8166TIP3    H148693   6.114   3.090  10.867 -1.1332  2.1141 -0.3850
 8166TIP3    H248694   6.071   3.041  10.730  0.3357 -0.9783  0.1805
 8167TIP3   OH248695   5.143   0.783  10.049  0.6191  0.1397 -0.5685
 8167TIP3    H148696   5.193   0.703  10.031 -1.3175 -0.5877 -3.7023
 8167TIP3    H248697   5.094   0.764  10.129  1.7101 -1.0065 -0.1519
 8168TIP3   OH248698   0.209   6.506  10.482  0.2811  1.1869 -0.7430
 8168TIP3    H148699   0.304   6.502  10.491  0.3674  2.8018 -0.5491
 8168TIP3    H248700   0.181   6.415  10.483  1.7792  0.6942 -0.3108
 8169TIP3   OH248701   1.981   3.151  11.631 -0.5564  0.0734  0.7221
 8169TIP3    H148702   2.076   3.167  11.632 -0.6635  0.7478  0.7279
 8169TIP3    H248703   1.966   3.091  11.704 -0.1809  0.2820  0.9783
 8170TIP3   OH248704   3.658   2.537  10.793 -0.5997  0.0591 -0.4397
 8170TIP3    H148705   3.639   2.589  10.871 -0.1522 -1.8799  1.0566
 8170TIP3    H248706   3.678   2.601  10.725 -0.2750  1.8172  1.2251
 8171TIP3   OH248707   4.956   6.176  10.076 -0.2591  0.0495  0.1527
 8171TIP3    H148708   4.864   6.189  10.053 -0.2352  2.0361  0.9936
 8171TIP3    H248709   5.005   6.216  10.005 -0.0716  0.0526  0.2823
 8172TIP3   OH248710   5.968   1.918   9.854  0.2571 -0.1734  0.3272
 8172TIP3    H148711   6.046   1.884   9.898  0.3440 -0.7064 -0.2262
 8172TIP3    H248712   6.001   1.991   9.801  0.2833 -0.0300  0.5414
 8173TIP3   OH248713   7.241   1.806  10.341 -0.4636  0.3470 -0.2239
 8173TIP3    H148714   7.231   1.873  10.273 -0.0239  0.4390 -0.2035
 8173TIP3    H248715   7.168   1.746  10.328  0.4388 -0.4763 -1.7366
 8174TIP3   OH248716   0.078   6.263  10.628 -0.3892  0.0883  0.5492
 8174TIP3    H148717   0.126   6.313  10.694 -0.0975  0.6939 -0.1139
 8174TIP3    H248718   0.057   6.181  10.672  1.2088 -0.1824  0.8960
 8175TIP3   OH248719   7.010   2.650  10.391 -0.1450  0.2504  0.2057
 8175TIP3    H148720   6.983   2.588  10.459 -1.3864 -0.5045 -0.9142
 8175TIP3    H248721   7.021   2.733  10.437 -2.4914  0.1366  1.1294
 8176TIP3   OH248722   5.789   6.558   9.437  0.1447 -0.1167  0.3121
 8176TIP3    H148723   5.830   6.555   9.350 -0.5676  0.3484 -0.0430
 8176TIP3    H248724   5.711   6.503   9.428 -0.4914  0.7677  0.3557
 8177TIP3   OH248725   7.268   0.899   9.679 -0.6055 -0.3741 -0.2871
 8177TIP3    H148726   7.294   0.856   9.761  0.1032  1.1641  0.3317
 8177TIP3    H248727   7.341   0.883   9.619 -0.8906 -1.0467 -0.4715
 8178TIP3   OH248728   3.876   3.793   9.933  0.6386  0.0861 -0.2448
 8178TIP3    H148729   3.854   3.820   9.844  0.5450  0.9785  0.0453
 8178TIP3    H248730   3.860   3.870   9.987 -1.0322 -0.9518  0.8407
 8179TIP3   OH248731   6.697   7.087  11.634 -0.2527  0.6576 -0.3709
 8179TIP3    H148732   6.704   7.043  11.719 -0.9615 -0.8140 -1.0439
 8179TIP3    H248733   6.707   7.017  11.569  1.5678  1.9127 -1.5742
 8180TIP3   OH248734   3.746   5.755   9.907 -0.5905  0.3897  0.3688
 8180TIP3    H148735   3.667   5.797   9.872  0.4158  0.6195 -1.8343
 8180TIP3    H248736   3.750   5.670   9.863 -0.2417 -0.1318  1.3837
 8181TIP3   OH248737   3.708   4.161  10.648 -0.3981  0.1993  0.3687
 8181TIP3    H148738   3.716   4.139  10.555  1.9155 -1.9951  0.9631
 8181TIP3    H248739   3.634   4.108  10.679 -0.5288  0.1453 -0.0317
 8182TIP3   OH248740   1.390   1.750  11.008 -0.0720  0.0935  0.1784
 8182TIP3    H148741   1.434   1.793  10.935  0.6641  0.2389  0.6903
 8182TIP3    H248742   1.347   1.674  10.969  3.4494 -2.0792  0.0706
 8183TIP3   OH248743   1.404   4.908  11.850 -0.0377  0.0930  0.2663
 8183TIP3    H148744   1.342   4.846  11.810  0.5311  0.4211 -1.1857
 8183TIP3    H248745   1.449   4.948  11.775  1.4059  0.4025  1.2663
 8184TIP3   OH248746   5.887   0.540  10.866  0.5748  0.1819 -0.1927
 8184TIP3    H148747   5.890   0.538  10.770  1.3848 -0.8005 -0.1600
 8184TIP3    H248748   5.797   0.515  10.888  0.3268  0.6060 -0.6839
 8185TIP3   OH248749   6.020   0.317  12.395  0.2722  0.0650 -0.0170
 8185TIP3    H148750   6.068   0.369  12.460 -0.7677  2.2098 -0.8775
 8185TIP3    H248751   6.013   0.231  12.435  1.6257  0.6872  1.7205
 8186TIP3   OH248752   7.371   3.826  10.841  0.1497 -0.1406  0.1497
 8186TIP3    H148753   7.361   3.748  10.895  0.5447  0.3305  0.9217
 8186TIP3    H248754   7.340   3.898  10.896 -0.5383  0.2181 -0.6780
 8187TIP3   OH248755   5.727   5.733  11.720  0.7516  0.1285 -0.2221
 8187TIP3    H148756   5.713   5.802  11.784  1.0967  2.3861 -2.4222
 8187TIP3    H248757   5.640   5.713  11.687  0.7127 -0.0746  0.0006
 8188TIP3   OH248758   1.212   5.619  11.877  0.1098 -0.4495  0.2675
 8188TIP3    H148759   1.185   5.613  11.968  0.1688 -0.7797  0.2646
 8188TIP3    H248760   1.206   5.712  11.856 -1.3186 -0.5324  0.1724
 8189TIP3   OH248761   5.245   6.918  10.767 -0.6565  0.3908  0.2857
 8189TIP3    H148762   5.150   6.912  10.758 -0.7865  2.2852 -0.0756
 8189TIP3    H248763   5.271   6.985  10.703  0.8162  0.4605  0.9111
 8190TIP3   OH248764   2.881   5.063  11.920 -0.6540 -0.2565 -0.2047
 8190TIP3    H148765   2.812   5.128  11.904  0.5805  0.7319 -1.7985
 8190TIP3    H248766   2.902   5.029  11.833  1.1395 -0.2263  0.1851
 8191TIP3   OH248767   1.835   0.307  10.594  0.6250 -0.3690  0.4412
 8191TIP3    H148768   1.774   0.234  10.606 -0.2235  0.1926 -0.3030
 8191TIP3    H248769   1.917   0.266  10.567 -1.0347 -1.0196 -4.8489
 8192TIP3   OH248770   1.532   0.329  10.714 -0.1907 -0.5581  0.6241
 8192TIP3    H148771   1.562   0.247  10.673  0.0033  0.3815 -1.1942
 8192TIP3    H248772   1.482   0.373  10.646 -0.0630  0.9690  1.4870
 8193TIP3   OH248773   0.735   1.891   9.884 -0.1386 -0.1379 -0.2182
 8193TIP3    H148774   0.757   1.807   9.924 -0.0608  0.6392  1.4669
 8193TIP3    H248775   0.641   1.902   9.901  0.4123  1.4617  2.4007
 8194TIP3   OH248776   4.644   0.825  10.565 -0.9238 -0.3789  0.1659
 8194TIP3    H148777   4.618   0.736  10.542  0.9183 -1.2259  1.1850
 8194TIP3    H248778   4.731   0.816  10.605 -0.5284  1.9187 -0.0347
 8195TIP3   OH248779   7.158   3.391  11.996  0.3646  0.2779  0.1633
 8195TIP3    H148780   7.224   3.395  11.927 -0.6323 -1.6217 -0.9717
 8195TIP3    H248781   7.193   3.329  12.059 -0.5167 -1.1942 -0.7312
 8196TIP3   OH248782   1.515   2.936  12.356  0.0048  0.0955  0.4197
 8196TIP3    H148783   1.490   2.938  12.263  1.2349  0.3420  0.0671
 8196TIP3    H248784   1.532   3.028  12.377 -0.1977  0.0294  0.8683
 8197TIP3   OH248785   1.095   6.564  11.211  0.1130 -0.5319  0.1296
 8197TIP3    H148786   1.043   6.505  11.266  0.7387 -0.5239  0.7420
 8197TIP3    H248787   1.111   6.514  11.131 -1.3757 -0.2957 -0.3449
 8198TIP3   OH248788   3.646   3.030   9.867  0.5770  0.3576 -0.0192
 8198TIP3    H148789   3.717   3.021   9.804  0.1185 -0.4910 -0.4388
 8198TIP3    H248790   3.600   2.945   9.864  0.7799  0.1367  1.7545
 8199TIP3   OH248791   6.260   3.192  10.001  0.0680  0.0124  0.0889
 8199TIP3    H148792   6.188   3.254   9.991  0.0164 -0.1172 -0.3382
 8199TIP3    H248793   6.219   3.106   9.997  0.2301 -0.0596 -0.0282
 8200TIP3   OH248794   3.800   2.629  12.103  0.0115  0.0674  0.0527
 8200TIP3    H148795   3.763   2.542  12.091  0.3736 -0.0784 -0.0224
 8200TIP3    H248796   3.804   2.640  12.198  0.2529 -0.1275  0.0684
 8201TIP3   OH248797   1.953   2.403  11.656  0.2569  0.9045  0.3201
 8201TIP3    H148798   2.037   2.372  11.622  0.2059 -0.3271  1.2452
 8201TIP3    H248799   1.972   2.489  11.692  0.9629  0.9414 -0.1268
 8202TIP3   OH248800   5.277   6.331  11.240 -0.1836  0.2184 -0.1023
 8202TIP3    H148801   5.327   6.284  11.306  0.7460 -0.8549 -1.4924
 8202TIP3    H248802   5.331   6.326  11.161 -2.6479 -1.5002 -1.8705
 8203TIP3   OH248803   1.103   4.949  11.707 -0.2689  0.2186 -0.4673
 8203TIP3    H148804   1.098   4.983  11.797 -1.4858 -0.1490 -0.3761
 8203TIP3    H248805   1.030   4.888  11.701  0.8766 -1.1327 -1.1575
 8204TIP3   OH248806   6.742   1.681   9.556  0.4161  0.3405  0.2338
 8204TIP3    H148807   6.653   1.646   9.550  0.1136  1.2271 -0.8144
 8204TIP3    H248808   6.794   1.625   9.499  0.1799  0.8306 -0.4750
 8205TIP3   OH248809   7.200   1.067  11.880 -0.8534  0.4548  0.4034
 8205TIP3    H148810   7.250   0.997  11.923 -0.1818 -0.3033 -1.4911
 8205TIP3    H248811   7.144   1.021  11.818 -2.5364  1.4441  1.1317
 8206TIP3   OH248812   1.963   7.173  11.303  0.7455  0.1529  0.2158
 8206TIP3    H148813   1.915   7.090  11.301  1.7043 -0.5914  3.3833
 8206TIP3    H248814   1.899   7.237  11.333  0.2508  0.4652 -1.3683
 8207TIP3   OH248815   0.520   2.963   9.777  0.2481  0.3593 -0.1029
 8207TIP3    H148816   0.608   2.979   9.813  0.6456  2.1839 -1.7095
 8207TIP3    H248817   0.524   2.875   9.741  1.3154  0.3024  0.1215
 8208TIP3   OH248818   2.055   5.544   9.850  0.2535 -0.2954 -0.4633
 8208TIP3    H148819   1.998   5.470   9.828 -2.0419  1.6904 -1.6739
 8208TIP3    H248820   2.082   5.578   9.765  1.2279  0.2954  0.0801
 8209TIP3   OH248821   0.809   3.168  11.461  0.2512  0.3291 -0.2395
 8209TIP3    H148822   0.817   3.130  11.373 -0.5809  0.9708 -0.6060
 8209TIP3    H248823   0.853   3.253  11.455 -0.7712  0.8602 -0.3564
 8210TIP3   OH248824   4.075   2.763  10.842  0.0530  0.0144 -0.2108
 8210TIP3    H148825   3.996   2.816  10.846 -1.0435 -1.4197 -1.8016
 8210TIP3    H248826   4.144   2.824  10.816 -1.0631  0.7747 -1.4969
 8211TIP3   OH248827   3.487   2.633  10.405 -0.5852 -0.3650  0.1400
 8211TIP3    H148828   3.527   2.697  10.347 -0.6462  0.7694  1.2999
 8211TIP3    H248829   3.487   2.551  10.355  0.7712  0.2086 -0.8499
 8212TIP3   OH248830   6.943   0.485  10.644 -0.1794 -0.3149  0.2223
 8212TIP3    H148831   7.038   0.496  10.655 -0.4696  1.5368  1.4098
 8212TIP3    H248832   6.917   0.436  10.722 -0.2314 -0.5292  0.0676
 8213TIP3   OH248833   0.842   6.281  10.201 -0.1345 -0.1591 -0.6500
 8213TIP3    H148834   0.899   6.355  10.184  0.9466 -1.3844 -2.7236
 8213TIP3    H248835   0.901   6.206  10.209 -1.3319 -1.1574 -0.8942
 8214TIP3   OH248836   7.478   5.897   9.555 -0.0752  0.4284 -0.0490
 8214TIP3    H148837   7.383   5.906   9.555 -0.1542 -0.2953  1.2386
 8214TIP3    H248838   7.509   5.969   9.500 -1.4842 -0.9542 -2.8837
 8215TIP3   OH248839   2.590   2.319  11.178  0.8125 -0.4688 -0.0707
 8215TIP3    H148840   2.648   2.323  11.254  2.0395 -0.4765 -0.9963
 8215TIP3    H248841   2.561   2.228  11.175  0.4012 -0.3741  0.6250
 8216TIP3   OH248842   4.330   6.731  10.508  0.4058 -0.1324  0.5055
 8216TIP3    H148843   4.248   6.685  10.488 -0.2903  0.3499  2.1019
 8216TIP3    H248844   4.399   6.671  10.478 -0.4807 -1.9720  1.9456
 8217TIP3   OH248845   4.130   0.920  11.695  0.0975  0.3970  0.3575
 8217TIP3    H148846   4.126   0.906  11.790  0.4600 -0.2303  0.2817
 8217TIP3    H248847   4.195   0.989  11.684 -1.2052  1.7315  0.6810
 8218TIP3   OH248848   4.476   4.849  12.352 -0.1004 -0.5639 -0.1778
 8218TIP3    H148849   4.567   4.869  12.330  0.0070  1.2872  1.6426
 8218TIP3    H248850   4.424   4.899  12.290  0.1632  0.7667  0.6483
 8219TIP3   OH248851   0.665   0.624  11.077 -0.4972 -0.4205  0.4204
 8219TIP3    H148852   0.581   0.589  11.046 -0.1554 -0.4233 -0.5353
 8219TIP3    H248853   0.640   0.689  11.144 -1.3612  0.6880 -0.9219
 8220TIP3   OH248854   3.945   5.557  11.211 -0.0330  0.3576  0.3146
 8220TIP3    H148855   3.959   5.521  11.123 -1.7071 -1.0597  0.5786
 8220TIP3    H248856   3.929   5.650  11.197 -0.5879  0.0944 -0.9355
 8221TIP3   OH248857   1.503   1.445  10.832 -0.1886 -0.4598 -0.6270
 8221TIP3    H148858   1.462   1.369  10.872 -0.5677  0.2583  0.3913
 8221TIP3    H248859   1.572   1.471  10.894  0.8540 -0.7697 -1.6111
 8222TIP3   OH248860   2.793   5.861  10.866 -0.1366  0.3801 -0.3871
 8222TIP3    H148861   2.750   5.927  10.920 -2.6035 -1.8748  0.6470
 8222TIP3    H248862   2.756   5.873  10.779 -2.3248 -0.9049  0.2841
 8223TIP3   OH248863   3.811   7.160  11.855  0.4005 -0.1480  0.3746
 8223TIP3    H148864   3.843   7.188  11.770  0.9205  2.5031  1.3538
 8223TIP3    H248865   3.886   7.118  11.897  0.1276 -1.5069 -0.4439
 8224TIP3   OH248866   5.680   2.291  10.970 -0.0831  0.3505  0.1075
 8224TIP3    H148867   5.620   2.302  11.044  0.0632  0.9813  0.1333
 8224TIP3    H248868   5.624   2.278  10.894 -0.2445 -1.8426  0.5385
 8225TIP3   OH248869   4.780   1.476   9.509 -0.0207  0.1379  0.5844
 8225TIP3    H148870   4.770   1.438   9.422  1.9992 -0.9353  0.7782
 8225TIP3    H248871   4.819   1.406   9.562  0.5328  1.3652  1.8618
 8226TIP3   OH248872   7.285   6.850  10.430 -0.1045  0.2045 -1.0596
 8226TIP3    H148873   7.203   6.899  10.441  0.3114  0.8750 -0.9025
 8226TIP3    H248874   7.303   6.813  10.516  0.3286  0.9797 -0.8048
 8227TIP3   OH248875   0.947   1.306  10.184 -0.5725 -0.1475  0.0745
 8227TIP3    H148876   0.962   1.377  10.121 -1.7954  0.5625  0.5419
 8227TIP3    H248877   1.034   1.288  10.221 -0.2528  1.2178  0.0484
 8228TIP3   OH248878   6.758   0.186  10.544  0.1061 -0.0161  0.3482
 8228TIP3    H148879   6.675   0.138  10.537  0.3586 -0.4395  0.1887
 8228TIP3    H248880   6.773   0.193  10.638 -0.2089  0.2355  0.3807
 8229TIP3   OH248881   7.406   5.078  12.360 -0.0049  0.3437  0.2280
 8229TIP3    H148882   7.455   5.068  12.442  0.4309 -0.8755 -0.1587
 8229TIP3    H248883   7.333   5.017  12.368  0.5403 -0.4500 -0.6429
 8230TIP3   OH248884   0.472   2.762  12.032 -0.2344  0.4063 -0.3372
 8230TIP3    H148885   0.484   2.747  12.126 -3.7817 -2.8475 -0.1345
 8230TIP3    H248886   0.516   2.689  11.989 -1.2840  0.0642 -0.8960
 8231TIP3   OH248887   6.085   5.262  10.026  0.1519 -0.0418  0.2079
 8231TIP3    H148888   6.050   5.351  10.017  1.4345  0.4797  0.2263
 8231TIP3    H248889   6.051   5.216   9.949  2.3231  1.4648 -1.8070
 8232TIP3   OH248890   2.151   5.726  12.257 -0.0260 -0.5064  0.1968
 8232TIP3    H148891   2.070   5.776  12.254 -0.8405 -1.8412 -0.4419
 8232TIP3    H248892   2.147   5.666  12.182  0.6027 -2.0072  1.3011
 8233TIP3   OH248893   1.135   1.426  10.007 -0.1858  0.0199  0.0256
 8233TIP3    H148894   1.178   1.509  10.027  0.5780 -0.7815  1.9141
 8233TIP3    H248895   1.204   1.361  10.017 -1.3956 -1.1229  1.3244
 8234TIP3   OH248896   5.804   3.985  11.668 -0.1089 -0.0031  0.0866
 8234TIP3    H148897   5.717   4.019  11.691 -0.6146 -2.6440  2.7751
 8234TIP3    H248898   5.863   4.059  11.684 -1.5201  0.8445  1.8414
 8235TIP3   OH248899   2.642   3.123  10.431 -0.0153 -0.0222  0.3910
 8235TIP3    H148900   2.710   3.159  10.488  1.4427  0.0987 -1.3539
 8235TIP3    H248901   2.684   3.114  10.346 -2.4464  0.8525 -0.9847
 8236TIP3   OH248902   2.730   2.160  10.594  0.3456 -0.5180 -0.1480
 8236TIP3    H148903   2.648   2.112  10.576  0.7677 -1.3590  0.0958
 8236TIP3    H248904   2.775   2.162  10.510 -0.2792  0.6623 -0.4696
 8237TIP3   OH248905   6.161   0.119  11.325 -0.5857 -0.3893  0.0772
 8237TIP3    H148906   6.214   0.176  11.381  0.5122  0.2504 -1.5456
 8237TIP3    H248907   6.126   0.177  11.257 -2.6719 -0.9719  0.5806
 8238TIP3   OH248908   5.768   5.403  11.670 -0.0029  0.0948  0.2092
 8238TIP3    H148909   5.701   5.353  11.716  0.5473 -0.5102  0.3709
 8238TIP3    H248910   5.746   5.393  11.577  0.7336 -1.4208  0.1622
 8239TIP3   OH248911   0.518   3.271  11.887 -0.0934 -0.0725  0.3748
 8239TIP3    H148912   0.445   3.209  11.884  0.4110 -0.6495 -1.2969
 8239TIP3    H248913   0.483   3.352  11.850 -0.2529  0.0906  0.8716
 8240TIP3   OH248914   1.068   4.243  11.354 -0.6872  0.0454  0.4601
 8240TIP3    H148915   1.035   4.201  11.274  1.7942 -1.9562  0.3585
 8240TIP3    H248916   1.032   4.191  11.425  0.5124 -0.8824  0.4221
 8241TIP3   OH248917   0.824   3.747   9.746 -0.3805  0.2414  0.7395
 8241TIP3    H148918   0.883   3.683   9.706 -3.1784 -0.9942 -1.7240
 8241TIP3    H248919   0.776   3.698   9.812 -1.4046  0.1377 -0.0523
 8242TIP3   OH248920   2.440   5.327  11.916 -0.1573  0.4818  0.3712
 8242TIP3    H148921   2.521   5.369  11.945 -0.8199  0.8642  1.7184
 8242TIP3    H248922   2.468   5.238  11.891  0.7065  0.6706  0.6136
 8243TIP3   OH248923   5.131   0.133  10.598  0.1482 -0.2973 -0.0282
 8243TIP3    H148924   5.187   0.104  10.670  1.2017  0.4067 -0.5431
 8243TIP3    H248925   5.151   0.074  10.526  0.7550  0.3813 -0.4291
 8244TIP3   OH248926   6.320   0.907  11.265 -0.1444  0.2932  0.3049
 8244TIP3    H148927   6.353   0.951  11.186  0.5015  0.9290  0.9139
 8244TIP3    H248928   6.334   0.814  11.247  1.1282  0.4930  0.1412
 8245TIP3   OH248929   4.202   4.594   9.707 -0.1845  0.1386 -0.3124
 8245TIP3    H148930   4.256   4.520   9.736 -0.4441  0.4957  1.1212
 8245TIP3    H248931   4.113   4.558   9.704 -0.2652  0.3102  0.0675
 8246TIP3   OH248932   4.975   6.883  10.697  0.1656 -0.1610  0.3358
 8246TIP3    H148933   4.920   6.860  10.772 -1.4346  0.6387 -0.5383
 8246TIP3    H248934   4.975   6.805  10.642  1.3188 -0.7399  1.1221
 8247TIP3   OH248935   2.822   5.875   9.289  0.2808 -0.0554  0.4005
 8247TIP3    H148936   2.853   5.886   9.199  1.9662  0.2606  0.9737
 8247TIP3    H248937   2.734   5.839   9.280 -1.4409  3.9349 -1.4648
 8248TIP3   OH248938   2.458   5.469   9.557  0.2431  0.2490  0.0681
 8248TIP3    H148939   2.526   5.488   9.493  0.2166  0.7340  0.1825
 8248TIP3    H248940   2.504   5.461   9.640 -0.0374  2.6039  0.5128
 8249TIP3   OH248941   6.599   3.924  11.111 -0.3484 -0.3880 -0.2014
 8249TIP3    H148942   6.569   3.886  11.028 -1.7862 -0.1466  0.1756
 8249TIP3    H248943   6.677   3.974  11.087 -1.6008  0.9724 -1.7368
 8250TIP3   OH248944   0.148   6.024  12.015 -0.3607 -0.1744 -0.2428
 8250TIP3    H148945   0.135   6.081  12.092  0.6586 -1.3879  0.8781
 8250TIP3    H248946   0.183   6.083  11.948 -0.1000  0.6883  0.6177
 8251TIP3   OH248947   5.041   7.064  10.324  0.1008  0.5366  0.0366
 8251TIP3    H148948   5.074   7.092  10.239 -1.7825 -0.3438 -1.0486
 8251TIP3    H248949   4.979   6.994  10.304  0.7497 -0.7766  2.2606
 8252TIP3   OH248950   3.093   1.071  12.060  0.6511  0.0657 -0.8988
 8252TIP3    H148951   3.022   1.072  11.996 -0.6255 -2.7473  0.3157
 8252TIP3    H248952   3.051   1.092  12.144  1.7404  0.8397 -0.5168
 8253TIP3   OH248953   6.249   0.033  10.333  0.4225 -0.8316  0.6787
 8253TIP3    H148954   6.332   0.019  10.288  0.6011 -1.2589  1.1311
 8253TIP3    H248955   6.225  -0.053  10.367 -1.6236 -1.3652 -1.8102
 8254TIP3   OH248956   2.222   1.157   9.987 -0.4507  0.4072  0.0881
 8254TIP3    H148957   2.148   1.098   9.997 -0.2822  0.3081  0.7693
 8254TIP3    H248958   2.282   1.133  10.057  0.2741  0.4263 -0.5072
 8255TIP3   OH248959   0.219   1.352  11.726 -0.1426 -0.0120 -0.0271
 8255TIP3    H148960   0.166   1.388  11.797  0.0793  1.0649 -0.3789
 8255TIP3    H248961   0.301   1.403  11.729  0.6583 -1.2605  0.1507
 8256TIP3   OH248962   6.051   5.473  11.596 -0.0107 -0.3459 -0.0865
 8256TIP3    H148963   6.039   5.459  11.502 -0.0153  0.0176 -0.1406
 8256TIP3    H248964   6.072   5.386  11.631  0.0132 -0.4773 -0.4265
 8257TIP3   OH248965   2.534   4.920  11.084 -0.3686  0.6426 -0.0454
 8257TIP3    H148966   2.574   5.007  11.072  1.0357  0.0266 -0.0360
 8257TIP3    H248967   2.582   4.863  11.024 -1.4628 -0.0882 -0.2490
 8258TIP3   OH248968   1.538   7.325  10.593 -0.2681 -0.5012 -0.3295
 8258TIP3    H148969   1.537   7.235  10.626 -2.1126 -0.3301  0.2083
 8258TIP3    H248970   1.480   7.324  10.518  0.3752  0.0806 -0.8472
 8259TIP3   OH248971   3.013   7.371  11.306 -0.0751  0.5915 -0.7307
 8259TIP3    H148972   3.055   7.446  11.349  0.3322  0.4176 -0.8172
 8259TIP3    H248973   3.011   7.303  11.374 -1.2055  0.9401 -0.3912
 8260TIP3   OH248974   5.449   1.708  10.002  0.0247 -0.5561  0.1590
 8260TIP3    H148975   5.408   1.782   9.956  2.2484 -0.3789 -1.7302
 8260TIP3    H248976   5.426   1.722  10.094 -1.8733  0.9567 -0.4768
 8261TIP3   OH248977   3.971   2.601  10.180 -0.8263 -0.6061  0.3123
 8261TIP3    H148978   4.027   2.524  10.179  0.5878  0.3986 -0.2124
 8261TIP3    H248979   3.942   2.611  10.089 -3.5775 -2.2652  0.8822
 8262TIP3   OH248980   5.632   3.006  11.414 -0.2964 -0.5076  0.3076
 8262TIP3    H148981   5.682   3.031  11.337 -0.2546  1.0944  0.8058
 8262TIP3    H248982   5.678   2.931  11.450 -0.0960 -1.0316 -0.9946
 8263TIP3   OH248983   6.701   2.905  10.322 -0.3480 -0.6113  0.0313
 8263TIP3    H148984   6.768   2.879  10.258 -2.1661 -0.2186 -2.1776
 8263TIP3    H248985   6.672   2.822  10.361 -2.2089 -1.4896 -2.8998
 8264TIP3   OH248986   5.293   1.866   9.535  0.5351 -0.5691 -0.1845
 8264TIP3    H148987   5.382   1.831   9.538  0.9893  0.5405 -0.5372
 8264TIP3    H248988   5.248   1.810   9.471  1.3680 -0.2541 -1.0667
 8265TIP3   OH248989   4.256   6.398  11.471 -0.4306  0.4930 -0.3888
 8265TIP3    H148990   4.251   6.318  11.419  1.9772 -0.7040  1.0682
 8265TIP3    H248991   4.172   6.402  11.517 -0.7885 -0.9513 -0.8657
 8266TIP3   OH248992   1.002   7.233  10.300  0.3733 -0.0837 -0.1571
 8266TIP3    H148993   0.930   7.296  10.290  0.8798  0.3347 -1.3064
 8266TIP3    H248994   0.998   7.207  10.392 -2.4326 -1.4944 -0.5574
 8267TIP3   OH248995   4.019   6.250  12.022 -0.1097 -0.2303  0.4077
 8267TIP3    H148996   4.093   6.265  11.964  0.1927 -1.5988  0.4147
 8267TIP3    H248997   3.942   6.274  11.970  0.2604  0.1781  0.0425
 8268TIP3   OH248998   6.736   2.488  11.980 -0.3133  0.0404 -0.2440
 8268TIP3    H148999   6.693   2.414  12.021  1.5144  0.4971  2.7992
 8268TIP3    H249000   6.757   2.547  12.052  1.1892  2.0117 -2.1333
 8269TIP3   OH249001   2.662   1.871  11.848 -0.0127  0.5076 -0.0851
 8269TIP3    H149002   2.674   1.818  11.927  0.0366  0.9975  0.2405
 8269TIP3    H249003   2.580   1.839  11.811 -0.0050  0.2303  0.1325
 8270TIP3   OH249004   3.250   2.915  10.016  0.1152 -0.5835 -0.4709
 8270TIP3    H149005   3.309   2.958   9.954 -0.3137 -1.0943 -1.2425
 8270TIP3    H249006   3.179   2.977  10.029  0.3031 -0.3951 -0.3256
 8271TIP3   OH249007   2.743   3.434  10.367  0.5477 -0.0909 -0.4767
 8271TIP3    H149008   2.803   3.507  10.383  0.2523 -0.1144  0.8635
 8271TIP3    H249009   2.702   3.417  10.452 -0.2809 -1.0342 -1.0353
 8272TIP3   OH249010   2.505   1.225  11.759  0.0371 -0.3524 -0.1252
 8272TIP3    H149011   2.440   1.159  11.733 -1.6489  0.9408  0.6278
 8272TIP3    H249012   2.478   1.305  11.713  0.8558  0.3272  0.5425
 8273TIP3   OH249013   5.618   0.747  11.827 -0.2966 -0.7699  0.2810
 8273TIP3    H149014   5.568   0.677  11.870  1.3051 -1.7759  0.6073
 8273TIP3    H249015   5.678   0.700  11.768  0.7877  0.3260  0.4795
 8274TIP3   OH249016   2.179   1.942  12.427  0.5061  0.0239 -0.3319
 8274TIP3    H149017   2.096   1.918  12.466  0.0392  0.3032 -1.1314
 8274TIP3    H249018   2.240   1.874  12.457 -0.0510 -0.2893  0.1023
 8275TIP3   OH249019   3.090   5.888   9.774 -0.1721  0.6359 -0.1134
 8275TIP3    H149020   3.027   5.904   9.844 -0.2505  3.3597 -0.6915
 8275TIP3    H249021   3.041   5.907   9.693  0.4884 -0.4547 -0.7934
 8276TIP3   OH249022   1.944   7.167   9.809  0.1884  0.2408  0.2026
 8276TIP3    H149023   1.993   7.229   9.865  1.7995 -0.7589 -0.0241
 8276TIP3    H249024   1.952   7.203   9.721  0.7320 -0.0203  0.1372
 8277TIP3   OH249025   3.251   6.721   9.988  0.4350  0.3620  0.1904
 8277TIP3    H149026   3.197   6.654  10.030  0.3827  1.0034  1.1892
 8277TIP3    H249027   3.189   6.775   9.940  0.3299  0.4167  0.3869
 8278TIP3   OH249028   1.856   2.672   9.826  0.1667  0.0456  0.2868
 8278TIP3    H149029   1.828   2.745   9.881 -1.3523  0.0531 -0.4524
 8278TIP3    H249030   1.846   2.704   9.736  1.4388 -0.3912 -0.0422
 8279TIP3   OH249031   0.179   7.198  11.776  0.2262  0.1499 -0.1044
 8279TIP3    H149032   0.211   7.116  11.738  1.6830 -0.3241  1.9739
 8279TIP3    H249033   0.258   7.242  11.807 -0.8357 -0.0227  3.2755
 8280TIP3   OH249034   1.087   3.244  10.520 -0.3359  0.5549  0.0525
 8280TIP3    H149035   1.001   3.286  10.527 -0.0386  1.2274 -0.2429
 8280TIP3    H249036   1.133   3.295  10.453  0.6231  0.7692  0.8522
 8281TIP3   OH249037   6.693   2.194  11.049  0.0108  0.1252  0.3755
 8281TIP3    H149038   6.669   2.228  10.963  0.1707  0.1172  0.3281
 8281TIP3    H249039   6.615   2.146  11.078 -0.1024  0.2652  0.3069
 8282TIP3   OH249040   5.291   5.658   9.900  0.0217  1.0583  0.1184
 8282TIP3    H149041   5.319   5.723   9.964 -1.3570 -0.1095  2.0050
 8282TIP3    H249042   5.357   5.588   9.906 -1.1330  0.0495  1.7789
 8283TIP3   OH249043   3.697   4.334  12.538 -0.1955 -0.3739 -0.5292
 8283TIP3    H149044   3.655   4.339  12.624  0.4153  0.9398 -0.2832
 8283TIP3    H249045   3.626   4.312  12.478 -0.4839 -2.0929  0.3958
 8284TIP3   OH249046   1.537   6.210   9.909  0.3498  0.4313 -0.2523
 8284TIP3    H149047   1.551   6.266   9.833  0.2225 -0.4004 -0.9164
 8284TIP3    H249048   1.467   6.150   9.881 -0.2934  0.6531  0.8297
 8285TIP3   OH249049   2.069   0.793  10.896 -0.0101 -1.0855  0.5642
 8285TIP3    H149050   2.122   0.814  10.819 -0.7971 -2.2759 -0.3502
 8285TIP3    H249051   2.131   0.758  10.959  0.7948  0.7842  0.8650
 8286TIP3   OH249052   4.269   0.638  11.866  0.4185 -0.2981  0.4027
 8286TIP3    H149053   4.300   0.548  11.855  1.0082 -0.4465  2.7700
 8286TIP3    H249054   4.338   0.692  11.828  0.3172 -0.8038 -0.5288
 8287TIP3   OH249055   2.821   4.274  10.847 -0.2072  0.5796 -0.3482
 8287TIP3    H149056   2.774   4.357  10.844 -0.1825  0.6189  0.2373
 8287TIP3    H249057   2.753   4.207  10.840 -0.3602  0.6360  0.4590
 8288TIP3   OH249058   4.074   2.665  12.066 -0.0079 -0.4513  0.4494
 8288TIP3    H149059   3.985   2.637  12.089 -0.5224 -0.9131 -1.8548
 8288TIP3    H249060   4.068   2.760  12.060 -0.8629 -0.5621 -1.3436
 8289TIP3   OH249061   2.572   5.588  11.535  0.1091  0.5426  0.2431
 8289TIP3    H149062   2.633   5.569  11.607 -0.3929  1.2406  0.8765
 8289TIP3    H249063   2.490   5.611  11.579 -0.4368  0.2205 -0.5809
 8290TIP3   OH249064   1.877   6.077  10.066  0.1618  0.3248  0.1578
 8290TIP3    H149065   1.811   6.142  10.038 -0.5087 -0.2271  0.4294
 8290TIP3    H249066   1.951   6.091  10.007  0.5342  2.1670  0.9795
 8291TIP3   OH249067   0.118   7.099  10.823  0.2876 -0.1111  0.3524
 8291TIP3    H149068   0.051   7.158  10.856  0.1835 -0.0230 -0.0143
 8291TIP3    H249069   0.075   7.049  10.754  0.3455 -0.6857  0.7208
 8292TIP3   OH249070   1.947   5.317   9.860  0.4672 -0.5561 -0.0521
 8292TIP3    H149071   1.896   5.237   9.846 -1.1474 -0.0579  2.3636
 8292TIP3    H249072   2.005   5.295   9.933 -0.6117  0.6436  1.2329
 8293TIP3   OH249073   6.714   3.803  10.736 -0.1831 -0.2387 -0.7398
 8293TIP3    H149074   6.721   3.760  10.650  0.7633  0.3707 -0.9722
 8293TIP3    H249075   6.719   3.731  10.799 -1.0016 -0.7033 -1.1858
 8294TIP3   OH249076   6.749   3.951  10.074 -0.8338 -0.1295 -0.4423
 8294TIP3    H149077   6.759   3.959   9.979  0.9559 -0.2049 -0.2939
 8294TIP3    H249078   6.777   4.036  10.108 -0.6361 -0.3941  0.0611
 8295TIP3   OH249079   2.387   2.986   9.676 -0.9286  0.3979 -0.4648
 8295TIP3    H149080   2.390   2.923   9.604 -1.8049  0.6199 -0.7010
 8295TIP3    H249081   2.368   2.932   9.754 -1.7152  0.3646 -0.6720
 8296TIP3   OH249082   2.425   0.783  10.529  0.4965  0.0835  0.2061
 8296TIP3    H149083   2.486   0.711  10.542 -1.4344 -1.6266  0.4229
 8296TIP3    H249084   2.399   0.809  10.618  1.4740  1.3656  0.1442
 8297TIP3   OH249085   6.423   6.190  11.402 -0.1754  0.3116  0.3722
 8297TIP3    H149086   6.395   6.100  11.388  0.7430 -0.0456  0.7676
 8297TIP3    H249087   6.517   6.189  11.384 -0.4170  1.5333 -1.2017
 8298TIP3   OH249088   4.428   1.340  12.178  0.0051  0.8636  0.2221
 8298TIP3    H149089   4.360   1.372  12.119 -1.4217 -1.5877  0.4238
 8298TIP3    H249090   4.506   1.334  12.123 -1.0290 -0.3157 -1.2010
 8299TIP3   OH249091   7.144   0.568  10.064 -0.1850  0.1642 -0.0493
 8299TIP3    H149092   7.199   0.543   9.990 -0.2383 -1.2012  0.3465
 8299TIP3    H249093   7.185   0.527  10.140  0.1185  1.8932  0.7869
 8300TIP3   OH249094   1.338   2.965  11.143  0.3097  0.3301  0.7787
 8300TIP3    H149095   1.303   2.972  11.054  1.9893 -1.0753 -0.0561
 8300TIP3    H249096   1.273   3.009  11.198 -0.6778  1.4079 -1.1475
 8301TIP3   OH249097   4.605   0.701  10.977  0.3607  0.8700 -0.1355
 8301TIP3    H149098   4.528   0.679  11.028 -0.6558 -0.4754 -2.1215
 8301TIP3    H249099   4.662   0.749  11.038 -0.2040 -1.6575  2.6133
 8302TIP3   OH249100   4.614   4.057  10.779 -0.2968  0.0697  0.0934
 8302TIP3    H149101   4.670   3.982  10.760 -1.7920 -1.0900  0.0612
 8302TIP3    H249102   4.636   4.081  10.869 -1.3834 -1.9401  0.9838
 8303TIP3   OH249103   5.031   5.032   9.653 -0.4343  0.0506  0.3120
 8303TIP3    H149104   4.994   5.001   9.571 -1.4081  2.3968 -0.2258
 8303TIP3    H249105   5.046   4.953   9.704  0.2222 -1.4801 -2.1083
 8304TIP3   OH249106   1.516   2.932  11.463  0.0884  0.5711  0.4681
 8304TIP3    H149107   1.527   2.841  11.493 -0.5427  0.2030 -0.3787
 8304TIP3    H249108   1.544   2.985  11.537  0.8586 -0.3170  0.8353
 8305TIP3   OH249109   2.823   3.767  11.675 -0.2938 -0.0329 -0.3332
 8305TIP3    H149110   2.732   3.791  11.693  0.1161  2.1817 -0.9306
 8305TIP3    H249111   2.817   3.682  11.631 -2.0687  0.0800 -0.3894
 8306TIP3   OH249112   3.676   5.312  10.494 -0.5394 -0.3909  0.0027
 8306TIP3    H149113   3.742   5.366  10.538  0.4376 -1.2423 -0.3764
 8306TIP3    H249114   3.619   5.281  10.565  0.5264 -1.0749  0.5903
 8307TIP3   OH249115   4.441   5.843  11.677  0.2185  0.0044 -0.0375
 8307TIP3    H149116   4.472   5.759  11.643 -0.0342 -0.2873  0.4407
 8307TIP3    H249117   4.347   5.829  11.693  0.0858  0.5092 -0.3437
 8308TIP3   OH249118   3.301   4.778   9.437  0.1571  0.9776 -0.5659
 8308TIP3    H149119   3.254   4.797   9.356  0.8026  2.0030 -0.7149
 8308TIP3    H249120   3.264   4.839   9.501 -0.9701 -0.4127  0.1728
 8309TIP3   OH249121   2.320   5.504   9.945  0.1018  0.7843 -0.1628
 8309TIP3    H149122   2.226   5.513   9.932  0.2292  0.9899 -0.9530
 8309TIP3    H249123   2.328   5.453  10.026 -0.7295 -1.5371 -1.4495
 8310TIP3   OH249124   7.435   4.403  12.145 -0.1747 -0.2472 -0.1497
 8310TIP3    H149125   7.363   4.428  12.203 -0.8566 -0.5525 -0.8355
 8310TIP3    H249126   7.400   4.329  12.095  1.0856 -1.2375  0.4028
 8311TIP3   OH249127   3.116   7.292  11.012 -0.5014  0.3527  0.0574
 8311TIP3    H149128   3.079   7.378  10.994 -0.9111  0.3953  1.0564
 8311TIP3    H249129   3.203   7.295  10.973 -0.5459  1.1817  0.0046
 8312TIP3   OH249130   1.951   1.090  11.621 -0.0681  0.2519 -0.2926
 8312TIP3    H149131   1.874   1.131  11.661 -1.8143 -2.6768 -0.3819
 8312TIP3    H249132   2.025   1.127  11.669 -1.4763  2.8546  0.1075
 8313TIP3   OH249133   6.441   3.910   9.820  0.3213 -0.1354  0.2033
 8313TIP3    H149134   6.432   3.865   9.904 -2.5076 -1.3175 -0.6116
 8313TIP3    H249135   6.512   3.863   9.776 -0.2672 -1.5972  0.7347
 8314TIP3   OH249136   6.682   4.957  11.663  0.0153 -0.2433  0.4280
 8314TIP3    H149137   6.736   4.952  11.742  1.5947  0.8526 -0.5247
 8314TIP3    H249138   6.640   5.043  11.669  0.6647  0.1324 -0.2146
 8315TIP3   OH249139   6.771   0.941  10.854  0.5898 -0.2388 -0.1386
 8315TIP3    H149140   6.710   0.988  10.797 -0.6171  0.6949  1.8211
 8315TIP3    H249141   6.824   0.889  10.794 -0.0111  1.3521 -2.1740
 8316TIP3   OH249142   6.773   5.659   9.791  0.6532 -0.4337 -0.8228
 8316TIP3    H149143   6.777   5.564   9.802 -0.5069 -0.3712  0.2717
 8316TIP3    H249144   6.680   5.680   9.796  0.8760  0.7408 -1.3327
 8317TIP3   OH249145   4.672   5.790  10.792 -1.1575  0.0949 -0.7304
 8317TIP3    H149146   4.735   5.792  10.864  0.7418 -0.1527 -2.2985
 8317TIP3    H249147   4.694   5.712  10.742 -3.6317 -0.7636 -0.6418
 8318TIP3   OH249148   2.841   3.448  10.772  0.1885 -0.1340 -0.1440
 8318TIP3    H149149   2.821   3.470  10.864 -0.5906  0.1911 -0.3813
 8318TIP3    H249150   2.766   3.483  10.723  1.2602  0.9467 -1.0638
 8319TIP3   OH249151   5.970   6.045  12.067  0.1873 -0.0776 -0.1838
 8319TIP3    H149152   6.053   6.044  12.019 -1.5436 -1.9401 -3.5351
 8319TIP3    H249153   5.978   5.973  12.130  0.6623 -1.2268 -1.5033
 8320TIP3   OH249154   5.173   1.402  10.221  0.6132  0.2883  0.2170
 8320TIP3    H149155   5.166   1.495  10.242  2.6721  0.6673 -0.5030
 8320TIP3    H249156   5.253   1.396  10.169  1.8392 -2.1852  2.2029
 8321TIP3   OH249157   5.249   4.242  11.867 -0.0215  0.5597  0.3555
 8321TIP3    H149158   5.201   4.238  11.949 -1.3867 -1.1070 -0.4592
 8321TIP3    H249159   5.300   4.161  11.864 -0.2780  0.4175 -0.5961
 8322TIP3   OH249160   1.116   4.536  11.092  0.0487  0.0177 -0.7572
 8322TIP3    H149161   1.109   4.485  11.012 -0.9977  0.1497 -0.7541
 8322TIP3    H249162   1.026   4.553  11.119  0.2974  2.6724 -1.2552
 8323TIP3   OH249163   6.071   3.415   9.979  0.3397 -0.0171  0.5752
 8323TIP3    H149164   6.034   3.457  10.057 -0.8439 -0.5058  0.3012
 8323TIP3    H249165   6.083   3.487   9.918 -2.4157 -0.0666 -0.1752
 8324TIP3   OH249166   1.740   4.424  11.558  0.3359  0.3401 -0.5016
 8324TIP3    H149167   1.697   4.368  11.623 -1.0195  0.7340 -1.0282
 8324TIP3    H249168   1.833   4.412  11.574  0.0395  0.4527  1.5302
 8325TIP3   OH249169   7.447   2.282   9.997  0.8649  0.2425 -0.5030
 8325TIP3    H149170   7.473   2.372   9.982 -0.0850  0.6604  0.2503
 8325TIP3    H249171   7.377   2.266   9.933  1.4611 -0.1669 -1.0586
 8326TIP3   OH249172   2.648   0.681  11.618  0.6904 -0.4894 -0.3555
 8326TIP3    H149173   2.664   0.766  11.578  1.2249  0.0383  0.9385
 8326TIP3    H249174   2.669   0.618  11.549 -1.7566  0.4074 -2.0543
 8327TIP3   OH249175   7.098   0.869  11.104 -0.1064  0.2334  0.7459
 8327TIP3    H149176   7.166   0.848  11.041  1.4301  2.2760  1.5996
 8327TIP3    H249177   7.122   0.821  11.183 -1.8623 -2.0801  0.0004
 8328TIP3   OH249178   2.207   6.566   9.782 -0.4845  0.1596  0.2950
 8328TIP3    H149179   2.255   6.634   9.733 -2.6501  1.2716 -0.4048
 8328TIP3    H249180   2.160   6.517   9.715 -0.8475 -0.4711  1.0006
 8329TIP3   OH249181   0.781   4.591  10.782 -0.0519  0.3325 -0.3681
 8329TIP3    H149182   0.750   4.643  10.708 -0.8497 -0.4628 -0.6055
 8329TIP3    H249183   0.826   4.654  10.838 -0.7696  1.2345 -0.7727
 8330TIP3   OH249184   4.370   3.281  10.337 -0.0858  0.7165  0.1461
 8330TIP3    H149185   4.322   3.364  10.335 -1.0521  0.1766 -0.5531
 8330TIP3    H249186   4.301   3.214  10.332  0.6620 -0.1335  0.8545
 8331TIP3   OH249187   0.007   5.654  11.104  0.0602 -0.4108  0.4385
 8331TIP3    H149188   0.019   5.587  11.171  0.4144 -1.5618 -0.7369
 8331TIP3    H249189  -0.088   5.660  11.093 -0.0330  0.2450  1.4617
 8332TIP3   OH249190   2.944   4.749   9.661  0.5662  0.3078 -0.3187
 8332TIP3    H149191   2.867   4.721   9.611 -0.7667 -2.0147  2.7091
 8332TIP3    H249192   2.998   4.671   9.668  0.6156  0.4739  1.8543
 8333TIP3   OH249193   3.889   6.918  11.662  0.4705 -0.4848  0.2537
 8333TIP3    H149194   3.921   6.890  11.576  0.7939 -1.0144  0.5430
 8333TIP3    H249195   3.944   6.871  11.724 -0.1396 -0.5312  0.7564
 8334TIP3   OH249196   7.330   1.924   9.914 -0.5900 -1.0235 -0.3571
 8334TIP3    H149197   7.294   1.937  10.001 -0.2867  0.2901 -0.4022
 8334TIP3    H249198   7.424   1.940   9.924 -0.8522  1.5808 -1.3278
 8335TIP3   OH249199   2.069   5.842   9.828  0.3361  0.0925 -0.0674
 8335TIP3    H149200   2.122   5.920   9.843  0.6715 -0.3471  1.2126
 8335TIP3    H249201   2.026   5.827   9.912 -0.3719 -0.6176 -0.5519
 8336TIP3   OH249202   2.546   0.595  17.144 -0.4537  0.0789 -0.2838
 8336TIP3    H149203   2.568   0.637  17.227  0.5620 -1.9277  0.5455
 8336TIP3    H249204   2.630   0.566  17.108 -1.1739 -3.0564  0.2891
 8337TIP3   OH249205   3.648   6.088  11.294  0.3605 -0.1649 -0.9678
 8337TIP3    H149206   3.617   6.066  11.382  0.7066 -0.3307 -0.8820
 8337TIP3    H249207   3.575   6.065  11.236 -0.6028  1.6892 -0.5753
 8338TIP3   OH249208   6.474   2.060  11.102  0.0250 -0.5533  0.0712
 8338TIP3    H149209   6.387   2.097  11.094  0.9379  1.4663 -1.4160
 8338TIP3    H249210   6.472   1.981  11.047 -0.2896  0.6884 -1.7884
 8339TIP3   OH249211   1.413   2.463  11.441  0.2564 -0.2238  0.4313
 8339TIP3    H149212   1.501   2.481  11.473  0.1703  1.3569 -0.1306
 8339TIP3    H249213   1.382   2.547  11.408 -1.3143 -0.8446  0.2451
 8340TIP3   OH249214   1.002   4.081  11.975  0.5118 -0.1177 -0.4152
 8340TIP3    H149215   0.969   4.084  12.065  2.9372 -0.1132  0.5318
 8340TIP3    H249216   0.983   4.168  11.940  0.3700  0.2004  0.4199
 8341TIP3   OH249217   2.888   4.153  11.538  0.1634 -0.5402 -0.3880
 8341TIP3    H149218   2.881   4.249  11.538 -1.6375 -0.6106  0.8709
 8341TIP3    H249219   2.972   4.135  11.580 -0.4161  0.5198  1.3713
 8342TIP3   OH249220   0.233   2.476  10.273 -0.7707 -0.6196  0.0362
 8342TIP3    H149221   0.249   2.384  10.254  1.3047  0.0752 -2.1309
 8342TIP3    H249222   0.150   2.496  10.229 -0.8482 -1.2730 -0.1230
 8343TIP3   OH249223   3.013   2.551  10.260  0.0729 -0.3604  0.3007
 8343TIP3    H149224   2.941   2.596  10.216  1.1707  1.5501  0.3349
 8343TIP3    H249225   2.996   2.564  10.353  0.0690 -0.5719  0.3302
 8344TIP3   OH249226   5.979   0.596  10.473 -0.4367 -0.2660 -0.2353
 8344TIP3    H149227   5.945   0.648  10.545 -2.0219 -1.9025  0.2657
 8344TIP3    H249228   5.930   0.626  10.396 -0.6506 -0.3448 -0.1299
 8345TIP3   OH249229   2.317   1.221   9.485  0.1647 -0.2204 -0.1474
 8345TIP3    H149230   2.252   1.278   9.444  0.6187 -0.0716 -0.6740
 8345TIP3    H249231   2.332   1.261   9.571 -1.2569 -0.8878  0.4431
 8346TIP3   OH249232   1.283   3.231  10.707 -0.1889  0.2282  0.4104
 8346TIP3    H149233   1.218   3.214  10.639  1.2726 -0.8576 -0.8013
 8346TIP3    H249234   1.362   3.186  10.677  1.2369  1.7278  1.6653
 8347TIP3   OH249235   0.871   7.348  11.481 -0.2512  0.1145 -0.0748
 8347TIP3    H149236   0.956   7.354  11.523  0.3128 -2.0275 -0.7474
 8347TIP3    H249237   0.854   7.254  11.475 -0.9945  0.3411 -3.1964
 8348TIP3   OH249238   6.992   2.841  17.547 -0.0638 -0.0527 -0.3872
 8348TIP3    H149239   7.082   2.860  17.570  0.0025 -0.0415 -0.6550
 8348TIP3    H249240   6.950   2.817  17.630 -0.3086  1.8266  0.0678
 8349TIP3   OH249241   2.938   5.807  12.264  0.4408 -0.3432 -0.5709
 8349TIP3    H149242   2.862   5.770  12.308 -1.0527  0.0326 -2.7339
 8349TIP3    H249243   2.942   5.898  12.295 -0.7623 -0.0017 -1.3749
 8350TIP3   OH249244   0.707   6.406  12.332  0.1579  0.0756  0.0646
 8350TIP3    H149245   0.717   6.438  12.421 -0.1102  0.9201 -0.2042
 8350TIP3    H249246   0.733   6.314  12.337 -0.7843 -0.1494  1.2007
 8351TIP3   OH249247   3.492   6.617  10.011 -0.1255  0.5202  0.3662
 8351TIP3    H149248   3.417   6.675  10.012  0.2869  1.0649  1.4583
 8351TIP3    H249249   3.520   6.614   9.919 -2.2670 -0.7724 -0.3082
 8352TIP3   OH249250   4.771   0.619  10.077  0.2383 -0.2606  0.0797
 8352TIP3    H149251   4.698   0.670  10.043  0.3938  0.1046  0.2899
 8352TIP3    H249252   4.837   0.621  10.009  0.1512 -0.3855 -0.0099
 8353TIP3   OH249253   0.492   7.003  12.390  0.9162  0.0447 -0.1291
 8353TIP3    H149254   0.523   6.949  12.463  0.3791 -0.4967 -0.2927
 8353TIP3    H249255   0.462   7.084  12.432 -1.7922 -1.2402  0.5956
 8354TIP3   OH249256   0.431   6.545  12.390 -0.2924 -0.0923  0.1253
 8354TIP3    H149257   0.385   6.604  12.451 -1.3304 -0.5325 -0.2195
 8354TIP3    H249258   0.506   6.514  12.440 -0.7501  0.0912  0.9527
 8355TIP3   OH249259   5.182   6.462   9.750  0.2475  0.3482 -0.0233
 8355TIP3    H149260   5.119   6.511   9.697 -0.6202  0.2866  0.9246
 8355TIP3    H249261   5.144   6.374   9.757 -0.9324  0.9572  2.6561
 8356TIP3   OH249262   7.471   3.209  10.792 -0.5724  0.3163 -0.6749
 8356TIP3    H149263   7.490   3.120  10.822 -2.0072  1.0498  2.8825
 8356TIP3    H249264   7.441   3.198  10.701  0.9339 -2.5611 -0.9422
 8357TIP3   OH249265   4.148   5.410  10.510  0.0684  0.4842 -0.0769
 8357TIP3    H149266   4.110   5.358  10.439  1.3284 -1.9981  0.9332
 8357TIP3    H249267   4.220   5.458  10.469 -0.4520  0.6130 -0.8528
 8358TIP3   OH249268   7.066   7.448  11.661  0.5667  0.2578  0.4669
 8358TIP3    H149269   7.004   7.375  11.665  0.5059  0.1774 -1.2224
 8358TIP3    H249270   7.152   7.405  11.661  0.5244 -0.0151 -2.2831
 8359TIP3   OH249271   2.611   0.319  12.245 -0.3906  0.1079  0.2689
 8359TIP3    H149272   2.691   0.366  12.269  1.1669 -0.5068 -3.2086
 8359TIP3    H249273   2.549   0.387  12.222  0.5096  0.5899 -0.8274
 8360TIP3   OH249274   1.369   1.882   9.726 -0.2732 -0.1154  0.5443
 8360TIP3    H149275   1.321   1.799   9.735  0.6942 -0.6155  1.3180
 8360TIP3    H249276   1.301   1.947   9.711 -1.0137 -1.1428 -0.8262
 8361TIP3   OH249277   7.057   5.068  10.406  0.2188 -0.6858 -0.0039
 8361TIP3    H149278   7.102   5.135  10.354 -0.8773 -0.8271 -1.1890
 8361TIP3    H249279   7.028   5.003  10.342  1.9814 -2.7910  1.1983
 8362TIP3   OH249280   0.983   0.397  10.953  0.5009 -0.1472  0.4109
 8362TIP3    H149281   0.906   0.415  10.899  1.2393  2.2884  0.0673
 8362TIP3    H249282   1.036   0.338  10.899  0.0436  0.1816 -0.4217
 8363TIP3   OH249283   2.613   1.223  10.534 -0.2436  0.6960  0.1734
 8363TIP3    H149284   2.573   1.185  10.612  0.2875 -0.0017  0.1206
 8363TIP3    H249285   2.651   1.149  10.488  0.0263  1.1840 -0.4100
 8364TIP3   OH249286   5.955   6.935  12.112  0.2017  0.3414  0.2010
 8364TIP3    H149287   6.048   6.942  12.135  0.2600  1.1990 -0.2386
 8364TIP3    H249288   5.914   6.903  12.192  0.7667  0.7499  0.6726
 8365TIP3   OH249289   2.773   6.514  11.640  0.0836  0.6030  0.9932
 8365TIP3    H149290   2.728   6.446  11.590  0.3567  1.2610 -0.1910
 8365TIP3    H249291   2.774   6.481  11.730 -2.0391  0.1986  0.9171
 8366TIP3   OH249292   0.220   3.852  10.199 -0.2402  0.5849 -0.3780
 8366TIP3    H149293   0.187   3.919  10.259 -0.9822  0.8378 -1.0483
 8366TIP3    H249294   0.149   3.788  10.193 -0.9922  1.5150 -2.4272
 8367TIP3   OH249295   2.629   2.504   9.938 -0.0438  0.1933  0.1738
 8367TIP3    H149296   2.536   2.525   9.951  0.1888  0.8034  0.8644
 8367TIP3    H249297   2.676   2.571   9.987  0.7739  0.0249 -0.3638
 8368TIP3   OH249298   4.456   6.958  11.590 -0.5397  0.8417 -0.3480
 8368TIP3    H149299   4.509   6.890  11.549 -0.9140  1.5300 -2.0741
 8368TIP3    H249300   4.378   6.912  11.620  0.0787  0.1867  0.2886
 8369TIP3   OH249301   1.840   2.493  11.308  0.3387 -0.0353  0.4648
 8369TIP3    H149302   1.899   2.533  11.371  2.0358  0.8756 -1.5799
 8369TIP3    H249303   1.827   2.560  11.240  0.8557 -1.8358 -1.5372
 8370TIP3   OH249304   2.923   0.724  10.571 -0.8580 -0.1666  0.0249
 8370TIP3    H149305   2.930   0.635  10.537  0.4779 -0.1950  0.3336
 8370TIP3    H249306   2.960   0.780  10.502  0.7065 -0.1098  0.8805
 8371TIP3   OH249307   4.826   6.324  10.368 -0.4334  0.1112  0.2126
 8371TIP3    H149308   4.757   6.367  10.317  1.7541  3.2402 -0.3562
 8371TIP3    H249309   4.905   6.373  10.349  2.1815 -3.5494  0.4922
 8372TIP3   OH249310   1.002   5.559   9.838 -0.2364 -0.7118 -0.1961
 8372TIP3    H149311   1.057   5.494   9.796 -0.6903 -0.7842 -0.6908
 8372TIP3    H249312   1.001   5.633   9.777  1.0435  0.1687  0.7745
 8373TIP3   OH249313   2.918   1.852  10.013 -0.0616  0.3960  0.1024
 8373TIP3    H149314   2.889   1.904   9.938 -0.2563 -1.4599 -1.1822
 8373TIP3    H249315   3.011   1.838   9.997  0.2359  1.2261  1.0174
 8374TIP3   OH249316   1.399   5.399  11.095 -0.3157  0.1820  0.0768
 8374TIP3    H149317   1.444   5.464  11.041  0.3370 -0.4740 -0.1793
 8374TIP3    H249318   1.331   5.449  11.140 -0.3119  0.9039 -0.6858
 8375TIP3   OH249319   1.447   2.007  11.354  0.1403 -0.0783 -0.0512
 8375TIP3    H149320   1.533   2.005  11.313  0.1785  0.3400  0.0020
 8375TIP3    H249321   1.414   2.096  11.338 -0.5281 -0.4104 -0.5792
 8376TIP3   OH249322   2.834   4.469  11.754  0.4561  0.0782  0.7370
 8376TIP3    H149323   2.852   4.435  11.666  1.1383 -0.6381  1.1366
 8376TIP3    H249324   2.746   4.439  11.774 -0.4199  1.7735 -0.3944
 8377TIP3   OH249325   0.495   2.179  10.976 -0.0589  0.6871  0.0171
 8377TIP3    H149326   0.435   2.254  10.981 -0.7115  0.0983  1.6305
 8377TIP3    H249327   0.580   2.215  11.000 -0.4198  0.8892  1.0446
 8378TIP3   OH249328   3.072   6.635  12.638  0.8133  0.6082  0.1297
 8378TIP3    H149329   3.115   6.550  12.642  0.3148  0.2939 -0.7558
 8378TIP3    H249330   3.012   6.628  12.563  1.6855  2.1490 -0.7698
 8379TIP3   OH249331   3.938   1.259   9.947 -0.0348 -0.0772  0.1638
 8379TIP3    H149332   3.881   1.219   9.881  0.0157  2.1274 -1.3298
 8379TIP3    H249333   4.027   1.237   9.918 -0.0558 -1.0694  0.8382
 8380TIP3   OH249334   2.086   6.758  11.840  0.3650 -0.2293 -0.2650
 8380TIP3    H149335   2.154   6.752  11.773 -1.3454 -0.3042 -2.1135
 8380TIP3    H249336   2.086   6.671  11.881  1.0729 -0.3721 -0.5458
 8381TIP3   OH249337   4.279   0.538  11.493  0.0139 -0.6438  0.0933
 8381TIP3    H149338   4.333   0.595  11.546  1.3735 -0.5887 -1.2990
 8381TIP3    H249339   4.288   0.452  11.534  1.0899 -0.6147 -0.0519
 8382TIP3   OH249340   1.973   2.300   9.651 -0.2078  0.4552 -0.1666
 8382TIP3    H149341   2.027   2.318   9.727 -1.5026 -1.9290  1.4751
 8382TIP3    H249342   2.002   2.213   9.621 -1.5056  0.1723 -0.6866
 8383TIP3   OH249343   1.264   0.638  10.838 -0.1712 -0.3125  0.5862
 8383TIP3    H149344   1.349   0.606  10.868 -0.7481 -1.1269  1.4104
 8383TIP3    H249345   1.274   0.733  10.835  0.5926 -0.3600  1.2492
 8384TIP3   OH249346   3.186   3.966   9.684  0.2076 -0.1713 -0.3371
 8384TIP3    H149347   3.250   4.024   9.644  0.4432  0.8175  1.3554
 8384TIP3    H249348   3.237   3.907   9.739 -0.1216 -1.3510 -1.2539
 8385TIP3   OH249349   1.131   2.607   9.977  0.1149 -0.3602  0.0424
 8385TIP3    H149350   1.064   2.541   9.994  0.5183 -0.2711  2.3451
 8385TIP3    H249351   1.207   2.578  10.028  1.3996  0.2516 -1.4327
 8386TIP3   OH249352   1.865   4.241  11.309  0.3048 -0.1607  0.2610
 8386TIP3    H149353   1.829   4.315  11.261  1.5934 -0.4201 -1.1684
 8386TIP3    H249354   1.883   4.277  11.397 -0.4734  0.7882  0.0541
 8387TIP3   OH249355   1.959   4.096   9.673  0.0720  0.1274 -0.0123
 8387TIP3    H149356   1.875   4.054   9.656  0.7829 -1.2158 -0.3249
 8387TIP3    H249357   1.942   4.154   9.748 -0.8715 -0.9628  0.6478
 8388TIP3   OH249358   7.421   3.143  10.310  0.1301 -0.4104  0.1278
 8388TIP3    H149359   7.490   3.089  10.348 -3.3438 -3.7463  2.4492
 8388TIP3    H249360   7.341   3.114  10.354 -2.9520  2.5064 -2.9468
 8389TIP3   OH249361   2.993   2.824  12.294  0.2899  0.0334  0.2130
 8389TIP3    H149362   3.035   2.779  12.367 -1.2385 -0.2235  0.9816
 8389TIP3    H249363   2.915   2.772  12.275  1.2101 -0.5797 -2.4200
 8390TIP3   OH249364   4.398   3.897  10.552  0.2772  0.0899  0.2281
 8390TIP3    H149365   4.480   3.905  10.600 -0.5251 -0.0053  1.6780
 8390TIP3    H249366   4.336   3.952  10.600 -0.6815 -0.4008 -0.4048
 8391TIP3   OH249367   5.257   7.145  11.350  1.5288  0.3808 -0.4432
 8391TIP3    H149368   5.267   7.147  11.445  3.0676  0.2138 -0.5811
 8391TIP3    H249369   5.178   7.197  11.333  2.5014  2.3565  0.7694
 8392TIP3   OH249370   4.262   5.872  10.275 -0.3691 -0.0450 -0.1831
 8392TIP3    H149371   4.261   5.881  10.371  2.9057 -1.0311  0.0799
 8392TIP3    H249372   4.205   5.798  10.257 -0.7540 -0.0661  1.0250
 8393TIP3   OH249373   0.938   2.894  12.661  0.6656  0.0676  0.2529
 8393TIP3    H149374   0.906   2.923  12.575 -1.9158 -0.0048  1.0923
 8393TIP3    H249375   0.909   2.803  12.667  1.6881 -0.2340  0.8441
 8394TIP3   OH249376   3.567   5.234  10.035 -0.8104  0.0608  0.2029
 8394TIP3    H149377   3.521   5.292   9.976  1.0509  1.1415 -0.2743
 8394TIP3    H249378   3.541   5.263  10.123 -0.5248  1.0935 -0.0448
 8395TIP3   OH249379   1.837   5.903  10.730 -0.4821  0.0519  1.0481
 8395TIP3    H149380   1.826   5.816  10.769 -2.0580 -0.3490 -0.1996
 8395TIP3    H249381   1.762   5.953  10.761  0.3052  0.9204  1.5867
 8396TIP3   OH249382   2.155   6.581  10.499  0.1331  0.3005 -0.0275
 8396TIP3    H149383   2.175   6.519  10.429 -0.7594  0.0106 -0.0439
 8396TIP3    H249384   2.219   6.651  10.489  0.2287  0.0972 -0.9265
 8397TIP3   OH249385   1.655   0.585  12.448  0.6790  0.1758  0.2448
 8397TIP3    H149386   1.746   0.614  12.450  0.2202  1.6574  1.5629
 8397TIP3    H249387   1.655   0.501  12.494  1.4212 -0.0280 -0.1062
 8398TIP3   OH249388   5.033   6.527  10.231 -0.6729 -0.0645 -0.5491
 8398TIP3    H149389   5.052   6.618  10.209 -0.7478  0.1798  0.3773
 8398TIP3    H249390   5.002   6.489  10.149 -0.4504  0.6884 -0.9919
 8399TIP3   OH249391   0.310   6.432  12.682 -0.1773 -0.0544  0.4158
 8399TIP3    H149392   0.288   6.515  12.641 -1.4832 -0.3895  0.3781
 8399TIP3    H249393   0.347   6.455  12.767  2.0797  0.6297 -0.6889
 8400TIP3   OH249394   2.339   3.623  10.582 -0.6699  0.5544 -0.4242
 8400TIP3    H149395   2.245   3.603  10.590 -0.1560 -1.5279  1.4420
 8400TIP3    H249396   2.365   3.585  10.498 -0.7418 -2.6842  0.8855
 8401TIP3   OH249397   6.446   3.690  12.206  0.1617 -0.2494  1.0850
 8401TIP3    H149398   6.421   3.781  12.221  0.6723  0.2497 -0.8240
 8401TIP3    H249399   6.374   3.653  12.155 -0.2594 -1.0776  2.2383
 8402TIP3   OH249400   0.624   6.553   9.781  0.0786  0.1546  0.3028
 8402TIP3    H149401   0.599   6.536   9.690  1.2740  1.5529 -0.3178
 8402TIP3    H249402   0.544   6.587   9.821  0.1330  1.7655 -0.8720
 8403TIP3   OH249403   2.152   7.451  11.399  0.4361 -1.0876 -0.2720
 8403TIP3    H149404   2.200   7.420  11.321  1.6075 -2.1529  0.8227
 8403TIP3    H249405   2.165   7.382  11.464  0.5037  0.3200  1.2723
 8404TIP3   OH249406   2.316   1.026  10.263 -0.8662 -0.1697  0.5596
 8404TIP3    H149407   2.303   1.030  10.357 -0.1690 -1.5512  0.7518
 8404TIP3    H249408   2.277   0.943  10.237  1.8785 -1.4786  0.2172
 8405TIP3   OH249409   6.990   5.529  11.377  0.3062 -0.0554  0.3675
 8405TIP3    H149410   7.007   5.484  11.295  1.3748 -0.9260  1.0464
 8405TIP3    H249411   6.945   5.464  11.431  0.6804  0.1178  0.8945
 8406TIP3   OH249412   1.101   2.410  10.574  0.6403 -0.0903  0.0615
 8406TIP3    H149413   1.179   2.464  10.582  0.5369  0.0956 -0.1805
 8406TIP3    H249414   1.132   2.321  10.590  0.6800  0.1085  1.1639
 8407TIP3   OH249415   6.932   3.692  11.289 -0.0160 -0.4862 -0.4946
 8407TIP3    H149416   7.007   3.651  11.246  0.6927  0.2908 -0.0272
 8407TIP3    H249417   6.867   3.701  11.220  0.6881 -0.2641 -1.1414
 8408TIP3   OH249418   6.821   1.837   9.766  0.3116  0.1171  0.4451
 8408TIP3    H149419   6.794   1.779   9.695  0.5658  0.7980 -0.2225
 8408TIP3    H249420   6.834   1.779   9.841  2.0661 -0.9283 -0.5959
 8409TIP3   OH249421   0.951   5.553  11.487 -0.4250 -0.2464  0.2569
 8409TIP3    H149422   0.990   5.474  11.523  0.4982  0.3521  0.6221
 8409TIP3    H249423   0.984   5.624  11.543  0.2148  0.5949 -1.1268
 8410TIP3   OH249424   2.430   1.795  11.306 -0.0952  0.0265 -0.0146
 8410TIP3    H149425   2.385   1.777  11.223  0.8590  0.2331 -0.5978
 8410TIP3    H249426   2.376   1.862  11.348 -0.5484 -0.0205 -0.5082
 8411TIP3   OH249427   2.069   4.732  10.415  0.2217 -0.0379 -0.3306
 8411TIP3    H149428   2.161   4.707  10.422  0.0401 -0.6219  0.0476
 8411TIP3    H249429   2.033   4.715  10.502 -0.0934  0.8302 -0.2794
 8412TIP3   OH249430   0.302   4.889  10.532  0.1308  0.5315  0.4652
 8412TIP3    H149431   0.355   4.951  10.581 -0.2924  1.1966  0.0937
 8412TIP3    H249432   0.293   4.929  10.445 -0.6240  0.2245  0.3977
 8413TIP3   OH249433   1.165   5.797  11.269  0.3631 -0.3562 -0.0725
 8413TIP3    H149434   1.120   5.880  11.248  1.3793 -0.3116 -2.4011
 8413TIP3    H249435   1.241   5.823  11.320 -0.1616 -0.0336  0.5593
 8414TIP3   OH249436   3.185   5.454   9.658 -1.3556 -0.2499  0.5617
 8414TIP3    H149437   3.261   5.403   9.687 -3.2047 -1.2816  4.1866
 8414TIP3    H249438   3.222   5.537   9.628  1.2854 -1.2423  0.7963
 8415TIP3   OH249439   1.998   6.364   9.930 -0.0633  0.3593  0.6504
 8415TIP3    H149440   1.985   6.434   9.866  1.7113  1.1177  1.0464
 8415TIP3    H249441   2.087   6.333   9.913 -0.7957 -1.8512  0.4827
 8416TIP3   OH249442   4.748   2.685  11.065 -0.3467 -0.0944  0.2957
 8416TIP3    H149443   4.777   2.693  10.974 -0.5519  0.8137  0.2984
 8416TIP3    H249444   4.661   2.644  11.059 -1.2891  1.8503 -0.0918
 8417TIP3   OH249445   2.699   4.766  10.896 -0.2069 -0.1933 -0.0593
 8417TIP3    H149446   2.747   4.797  10.819 -0.5903  1.4507  0.3291
 8417TIP3    H249447   2.636   4.703  10.861 -0.3283  0.4790 -1.0763
 8418TIP3   OH249448   0.287   4.417   9.964  0.0000  0.1486  0.2907
 8418TIP3    H149449   0.220   4.469  10.009  3.0653  0.9183  4.4902
 8418TIP3    H249450   0.319   4.475   9.894 -1.2847  1.1328  0.4695
 8419TIP3   OH249451   5.721   6.720  10.008 -0.4013 -0.2302  0.0151
 8419TIP3    H149452   5.816   6.723  10.009 -0.3038 -0.6318 -2.2151
 8419TIP3    H249453   5.694   6.788  10.069  1.2926 -0.4434  1.0610
 8420TIP3   OH249454   5.744   1.176  10.156  0.3506 -0.3160 -0.6928
 8420TIP3    H149455   5.703   1.157  10.240  0.4712 -1.3119 -0.8428
 8420TIP3    H249456   5.737   1.271  10.146 -2.2098 -0.4528 -0.8474
 8421TIP3   OH249457   3.093   4.926  10.528 -0.0843 -0.0807  0.2045
 8421TIP3    H149458   3.152   4.979  10.581  2.1587 -0.9022 -1.3261
 8421TIP3    H249459   3.082   4.975  10.447 -1.1485 -0.1672  0.2833
 8422TIP3   OH249460   1.364   6.412  10.943  0.4143  0.0223  0.3453
 8422TIP3    H149461   1.450   6.401  10.904  0.6156 -1.7012  1.1576
 8422TIP3    H249462   1.371   6.490  10.997  1.2253  0.3405 -0.2108
 8423TIP3   OH249463   3.258   0.432  10.213 -0.5657 -0.2089 -0.8361
 8423TIP3    H149464   3.261   0.361  10.149  0.2147 -0.1025 -0.9285
 8423TIP3    H249465   3.296   0.395  10.293 -0.2306  0.0700 -0.8601
 8424TIP3   OH249466   4.624   3.567  10.154 -0.6144  0.0635 -0.2360
 8424TIP3    H149467   4.548   3.511  10.139 -0.6362 -0.3994  1.4478
 8424TIP3    H249468   4.591   3.636  10.211 -0.0742  0.6379 -0.6029
 8425TIP3   OH249469   1.495   5.793  11.637  0.8222  0.0882  0.4420
 8425TIP3    H149470   1.516   5.863  11.699 -1.6200 -0.2919  1.8246
 8425TIP3    H249471   1.568   5.732  11.644  1.4955  0.9851  1.5576
 8426TIP3   OH249472   4.490   3.716  10.345 -0.2493 -0.3732 -0.2531
 8426TIP3    H149473   4.434   3.759  10.409 -0.2470 -1.4263  0.4748
 8426TIP3    H249474   4.570   3.693  10.393  0.3618  0.1031 -0.9976
 8427TIP3   OH249475   5.340   1.028  10.660  0.6191  0.5081  0.7024
 8427TIP3    H149476   5.274   1.091  10.630  0.5109  0.3096  0.5232
 8427TIP3    H249477   5.289   0.961  10.706  0.2593 -1.4941 -2.3509
 8428TIP3   OH249478   1.726   7.202  10.946  0.2613 -0.8208 -0.3937
 8428TIP3    H149479   1.794   7.135  10.943  1.1768  0.0040  0.7923
 8428TIP3    H249480   1.773   7.284  10.958 -0.8761 -0.0405 -1.0536
 8429TIP3   OH249481   1.254   5.700  12.281  0.4165  0.5904  0.7177
 8429TIP3    H149482   1.242   5.794  12.297  1.9043  0.8475  0.4946
 8429TIP3    H249483   1.181   5.676  12.224 -0.4894  1.4046  1.4979
 8430TIP3   OH249484   2.558   1.760  10.799 -0.7987 -0.0584 -0.0345
 8430TIP3    H149485   2.490   1.826  10.811  0.1346  1.0107 -0.3752
 8430TIP3    H249486   2.582   1.767  10.707 -1.3230 -1.5363 -0.2987
 8431TIP3   OH249487   7.402   0.588  12.124 -0.3046 -0.0918  0.0371
 8431TIP3    H149488   7.395   0.569  12.218  2.4586  2.2663  0.8912
 8431TIP3    H249489   7.466   0.525  12.092  3.0588  2.4194  1.1760
 8432TIP3   OH249490   2.748   5.295  11.703  0.0892 -0.0239  0.4526
 8432TIP3    H149491   2.787   5.288  11.790 -1.6512  0.4856  1.3051
 8432TIP3    H249492   2.795   5.367  11.661  0.9917 -0.3209  0.9215
 8433TIP3   OH249493   5.352   0.651  10.419 -0.2000 -0.1421  0.0001
 8433TIP3    H149494   5.343   0.638  10.513 -0.2872  1.8165  0.2958
 8433TIP3    H249495   5.328   0.743  10.404 -1.6586 -0.7710 -2.1302
 8434TIP3   OH249496   6.510   3.013  11.781  0.5741  0.1038  0.6767
 8434TIP3    H149497   6.489   2.970  11.864  0.5328  1.9729  1.6820
 8434TIP3    H249498   6.494   2.946  11.715 -0.4602 -1.1019  2.0810
 8435TIP3   OH249499   5.101   6.849  10.048 -0.2945  0.2287  0.3282
 8435TIP3    H149500   5.065   6.810   9.968  1.1383 -0.2852 -0.1001
 8435TIP3    H249501   5.148   6.927  10.019 -0.3454  0.4294  0.7639
 8436TIP3   OH249502   2.572   4.992   9.741 -0.1370  0.4923  0.0856
 8436TIP3    H149503   2.598   4.976   9.831  2.1887 -0.6021 -0.6826
 8436TIP3    H249504   2.556   4.905   9.705 -0.9350  0.9069 -0.5950
 8437TIP3   OH249505   6.545   0.839  10.028  0.1277 -0.3845 -0.1941
 8437TIP3    H149506   6.609   0.824  10.097 -0.6142 -0.4644  0.4997
 8437TIP3    H249507   6.491   0.760  10.028  1.0404 -1.0616 -1.9257
 8438TIP3   OH249508   2.599   1.973   9.870  0.5127  0.1604 -0.1201
 8438TIP3    H149509   2.678   1.962   9.816  0.6818  0.9673 -0.0529
 8438TIP3    H249510   2.612   2.057   9.915 -0.6606  0.6029 -0.5692
 8439TIP3   OH249511   2.944   3.062  11.486 -0.1742 -0.0106  0.1494
 8439TIP3    H149512   2.949   3.090  11.394 -0.0261  0.1834  0.2153
 8439TIP3    H249513   2.854   3.032  11.497 -0.6797  1.4893  0.3743
 8440TIP3   OH249514   0.227   2.066  10.518  0.3450 -0.3413  0.1924
 8440TIP3    H149515   0.194   1.993  10.465  0.5670 -0.7738  0.6461
 8440TIP3    H249516   0.305   2.095  10.472  0.1046 -0.2090 -0.1378
 8441TIP3   OH249517   3.916   7.400  12.703 -0.2955 -0.1459  0.4458
 8441TIP3    H149518   4.000   7.439  12.679 -1.1983  0.4559 -2.1243
 8441TIP3    H249519   3.929   7.306  12.693  0.0651 -0.0527  0.0209
 8442TIP3   OH249520   0.997   1.054  11.669  0.5514  0.0194  0.3244
 8442TIP3    H149521   0.949   1.053  11.587  0.5041  0.9089  0.3251
 8442TIP3    H249522   1.048   0.973  11.670 -0.4738 -0.6359  0.0412
 8443TIP3   OH249523   6.745   5.629  10.347  0.4052 -0.7253  0.6035
 8443TIP3    H149524   6.805   5.634  10.272  1.0863  0.0248  1.1887
 8443TIP3    H249525   6.790   5.573  10.410 -0.7917 -2.5631 -0.0702
 8444TIP3   OH249526   1.669   2.338  11.174  0.2244  0.5215 -0.4607
 8444TIP3    H149527   1.729   2.383  11.234 -0.2925 -1.4244  1.6358
 8444TIP3    H249528   1.712   2.344  11.089  2.1646  1.3493  0.5143
 8445TIP3   OH249529   4.275   4.431  10.274  0.6389 -0.0098  0.5537
 8445TIP3    H149530   4.311   4.357  10.322 -1.5977 -1.2299  0.4711
 8445TIP3    H249531   4.203   4.394  10.223  0.0865  2.0489 -0.2690
 8446TIP3   OH249532   1.790   5.253  12.279  0.0973 -0.3988 -0.7644
 8446TIP3    H149533   1.835   5.237  12.195  0.8704 -1.5092 -0.1619
 8446TIP3    H249534   1.783   5.167  12.319 -2.7907 -0.3173 -0.8848
 8447TIP3   OH249535   3.354   1.974  11.386  0.6201  0.1383 -0.0828
 8447TIP3    H149536   3.270   1.989  11.342  1.9516  3.0409 -2.0053
 8447TIP3    H249537   3.403   1.918  11.326  0.6383 -0.1653  0.2153
 8448TIP3   OH249538   1.436   1.544   9.871  0.3314 -0.1088 -0.3734
 8448TIP3    H149539   1.362   1.569   9.927  1.0859  0.1177  0.5256
 8448TIP3    H249540   1.398   1.543   9.782 -1.1029 -1.3779  0.2060
 8449TIP3   OH249541   3.358   0.030  10.535 -0.0241  0.1364  0.1220
 8449TIP3    H149542   3.361  -0.066  10.540 -1.8528  0.0910  1.5124
 8449TIP3    H249543   3.379   0.060  10.624 -0.9719  0.9346  0.0980
 8450TIP3   OH249544   4.743   3.639  10.436  0.7142 -0.1728 -0.2132
 8450TIP3    H149545   4.817   3.699  10.446  0.5521  0.0052 -0.0702
 8450TIP3    H249546   4.776   3.555  10.466  1.1116 -0.2795 -0.9367
 8451TIP3   OH249547   4.011   0.391  10.823 -0.3531  0.6431 -0.3954
 8451TIP3    H149548   3.939   0.352  10.774 -0.6165  1.2894 -0.5347
 8451TIP3    H249549   3.969   0.458  10.877 -0.4552 -1.5856  2.5335
 8452TIP3   OH249550   6.858   6.103  10.230 -0.1419 -0.4646  0.3059
 8452TIP3    H149551   6.777   6.066  10.263 -0.6425  0.6380  0.3556
 8452TIP3    H249552   6.884   6.045  10.159 -1.7137 -0.0791 -0.6259
 8453TIP3   OH249553   0.753   7.209  10.520  0.6798  0.4295  0.0206
 8453TIP3    H149554   0.673   7.239  10.478 -1.8254 -3.3514  1.5548
 8453TIP3    H249555   0.737   7.221  10.614  2.5316  0.8299  0.3256
 8454TIP3   OH249556   5.278   0.520  10.014 -0.0225  0.1673 -0.6575
 8454TIP3    H149557   5.231   0.476   9.944 -0.1897 -1.0648  0.1989
 8454TIP3    H249558   5.305   0.450  10.073  1.2247  1.0402 -0.1372
 8455TIP3   OH249559   4.882   5.090  11.481  0.0199  0.0618 -0.8695
 8455TIP3    H149560   4.887   5.185  11.496 -0.5861 -0.0373  0.0073
 8455TIP3    H249561   4.967   5.057  11.510  0.4550  0.3921 -1.7155
 8456TIP3   OH249562   6.022   6.734  10.030 -0.1630 -0.4097 -0.0064
 8456TIP3    H149563   6.059   6.790  10.100 -2.2279  0.4630  0.4540
 8456TIP3    H249564   5.996   6.796   9.962 -1.3256 -0.9191 -0.0394
 8457TIP3   OH249565   2.040   0.218  10.814 -0.4719  0.2451  0.1289
 8457TIP3    H149566   2.047   0.125  10.837 -0.9981  0.4722  1.3223
 8457TIP3    H249567   2.122   0.238  10.768  0.1987 -0.5423  0.9273
 8458TIP3   OH249568   4.566   2.218  10.835 -0.1705  0.3844  0.1388
 8458TIP3    H149569   4.634   2.213  10.768 -0.1009 -0.4731  0.2560
 8458TIP3    H249570   4.606   2.175  10.911 -0.2948  1.2241  0.6889
 8459TIP3   OH249571   3.344   0.120  11.599 -0.3665  0.3702 -0.5311
 8459TIP3    H149572   3.391   0.189  11.552 -0.8631  0.2488 -1.2195
 8459TIP3    H249573   3.370   0.039  11.556  0.6318  0.0531  0.6214
 8460TIP3   OH249574   2.338   0.144  11.681 -0.0602  0.2646 -0.1016
 8460TIP3    H149575   2.376   0.075  11.628 -2.4551  0.3644 -2.1059
 8460TIP3    H249576   2.343   0.222  11.627  0.0697  1.0645  1.0179
 8461TIP3   OH249577   4.543   6.904   9.766 -0.2655  0.4071 -0.0462
 8461TIP3    H149578   4.465   6.885   9.818 -0.7887 -0.9611 -1.2618
 8461TIP3    H249579   4.509   6.951   9.689  0.4258  1.9346  0.5527
 8462TIP3   OH249580   6.222   0.761  10.648  0.1512  0.2444 -0.4792
 8462TIP3    H149581   6.209   0.804  10.564 -0.8364 -0.4301 -0.6863
 8462TIP3    H249582   6.220   0.667  10.628 -2.2865  0.0133  0.5702
 8463TIP3   OH249583   1.524   0.742  11.553 -0.1625  0.1150  0.6103
 8463TIP3    H149584   1.444   0.756  11.502  0.0953  1.2291  0.4874
 8463TIP3    H249585   1.584   0.810  11.522  0.8864 -0.8004  0.6022
 8464TIP3   OH249586   3.546   6.935  12.386 -0.0792  0.6695 -0.1311
 8464TIP3    H149587   3.488   6.875  12.433  0.9310 -1.6811 -1.6829
 8464TIP3    H249588   3.509   6.940  12.297 -0.2996  2.6400  0.0302
 8465TIP3   OH249589   6.647   3.244  11.603 -0.2865 -0.4219  0.1257
 8465TIP3    H149590   6.574   3.192  11.637 -1.2321  0.7850  0.0582
 8465TIP3    H249591   6.653   3.220  11.511 -1.1586  0.0368 -0.0673
 8466TIP3   OH249592   6.318   6.038  12.255  0.0408  0.1297  0.4269
 8466TIP3    H149593   6.329   5.975  12.184  1.1395  0.1431  0.5574
 8466TIP3    H249594   6.243   6.007  12.304  0.2617 -0.7982  0.1934
 8467TIP3   OH249595   3.473   3.787  10.657 -0.5228  0.1064  0.1688
 8467TIP3    H149596   3.421   3.748  10.728  1.1491 -2.1790  0.2451
 8467TIP3    H249597   3.489   3.877  10.685 -1.9362 -0.0224  1.5186
 8468TIP3   OH249598   1.068   6.647  12.034  0.4602 -0.4943 -0.2354
 8468TIP3    H149599   1.055   6.698  11.954 -0.8645 -1.2144 -0.5005
 8468TIP3    H249600   1.162   6.629  12.036  0.7453  0.7854 -0.8353
 8469TIP3   OH249601   0.378   7.056  11.444 -0.5302 -0.2299  0.1206
 8469TIP3    H149602   0.435   7.044  11.368  0.7286 -1.9943  1.2603
 8469TIP3    H249603   0.392   7.147  11.470 -0.6687  0.2818 -1.4881
 8470TIP3   OH249604   5.672   3.814   9.677 -0.7233 -0.0277 -0.7474
 8470TIP3    H149605   5.671   3.725   9.713  0.3535 -0.2357 -1.2008
 8470TIP3    H249606   5.641   3.804   9.587  2.9820 -0.6390 -2.1603
 8471TIP3   OH249607   4.218   6.157  10.458  0.2716  0.1927 -0.1466
 8471TIP3    H149608   4.126   6.133  10.446  0.7490 -1.2015 -1.2887
 8471TIP3    H249609   4.258   6.080  10.499  0.4578  1.7388  2.8304
 8472TIP3   OH249610   1.055   2.886  10.394 -0.0019 -0.1764  0.1657
 8472TIP3    H149611   1.134   2.891  10.448 -1.7438 -2.5476  3.2645
 8472TIP3    H249612   1.072   2.813  10.333  0.3834 -0.3310  0.4532
 8473TIP3   OH249613   5.749   2.820  11.581  0.0741  0.0698 -0.2115
 8473TIP3    H149614   5.827   2.793  11.629  0.1151  0.8859  0.1954
 8473TIP3    H249615   5.679   2.821  11.646  0.0153  0.6612 -0.2768
 8474TIP3   OH249616   5.965   0.255  11.072  0.2327 -0.4095  0.3587
 8474TIP3    H149617   6.042   0.300  11.106  0.4321 -0.9000  0.5632
 8474TIP3    H249618   5.957   0.286  10.982 -0.1411  0.6935  0.7618
 8475TIP3   OH249619   1.048   5.935  10.907 -0.2538  0.3042 -0.0893
 8475TIP3    H149620   1.043   5.990  10.985 -0.7798 -1.2372  1.0081
 8475TIP3    H249621   0.972   5.877  10.914  0.3439 -0.6390 -1.1564
 8476TIP3   OH249622   1.976   1.477  12.003  0.1713 -0.1360  0.4060
 8476TIP3    H149623   2.034   1.470  12.079  1.3698  0.9034 -0.3681
 8476TIP3    H249624   1.890   1.499  12.040  1.1158  2.2417  1.4078
 8477TIP3   OH249625   0.627   6.043  11.457 -0.2217  0.1325  1.0552
 8477TIP3    H149626   0.698   6.037  11.522 -0.3339 -1.4400  1.0684
 8477TIP3    H249627   0.610   5.952  11.432  1.2488  0.7147 -2.7568
 8478TIP3   OH249628   0.540   5.260  11.030  0.1562  0.5299  0.0591
 8478TIP3    H149629   0.615   5.232  11.083  1.5907  0.2964 -1.9700
 8478TIP3    H249630   0.464   5.233  11.080  1.4316 -0.3246  1.6368
 8479TIP3   OH249631   2.996   7.060  11.060 -0.1483 -0.1587  0.8426
 8479TIP3    H149632   3.058   7.016  11.003 -1.4882  0.2544 -1.0085
 8479TIP3    H249633   3.014   7.153  11.048  0.1047 -0.0728  1.7657
 8480TIP3   OH249634   3.390   5.297   9.754 -0.3661  0.2181 -0.0209
 8480TIP3    H149635   3.363   5.223   9.809  0.2532  0.0953  0.1200
 8480TIP3    H249636   3.486   5.296   9.757 -0.3467  0.8451 -0.2613
 8481TIP3   OH249637   0.868   0.394  12.026  0.5177  0.2755 -0.3095
 8481TIP3    H149638   0.947   0.349  11.998 -1.4017 -3.7340  0.0336
 8481TIP3    H249639   0.842   0.350  12.107 -2.3167  1.0194 -0.6946
 8482TIP3   OH249640   7.218   4.623  10.018  1.1342  0.1743 -0.1607
 8482TIP3    H149641   7.151   4.571  10.062  0.5996  0.7275 -0.3018
 8482TIP3    H249642   7.170   4.696   9.978  2.0045  1.5882  1.2340
 8483TIP3   OH249643   0.775   2.078  12.684  0.0842  0.3694 -0.1593
 8483TIP3    H149644   0.853   2.131  12.704 -0.0887  1.0091 -1.1246
 8483TIP3    H249645   0.718   2.136  12.633 -0.8997 -0.1900  0.2787
 8484TIP3   OH249646   0.172   7.466  12.366 -0.1263 -0.7801 -0.4450
 8484TIP3    H149647   0.145   7.529  12.298  0.4400 -1.3313 -1.1929
 8484TIP3    H249648   0.167   7.516  12.448  0.8471  0.4097 -1.0843
 8485TIP3   OH249649   0.817   2.678  10.106 -0.0798 -0.2022 -0.0088
 8485TIP3    H149650   0.884   2.715  10.163 -0.7813  0.0678  0.6646
 8485TIP3    H249651   0.862   2.610  10.056  0.8591  0.4574 -0.0991
 8486TIP3   OH249652   0.212   1.811  11.573 -0.6123 -0.2143 -0.4106
 8486TIP3    H149653   0.200   1.775  11.661 -2.9283 -1.5560 -1.1831
 8486TIP3    H249654   0.234   1.736  11.519  1.8949  0.7583 -0.8949
 8487TIP3   OH249655   5.974   5.544  10.020 -0.4580  0.2365  0.9955
 8487TIP3    H149656   5.907   5.596   9.976 -0.7127 -0.3241  0.7103
 8487TIP3    H249657   5.943   5.539  10.111 -0.4203  0.5952  1.0307
 8488TIP3   OH249658   4.861   5.552  10.399  0.3943  0.2847 -0.7069
 8488TIP3    H149659   4.889   5.546  10.307  0.4130  1.5377 -0.7932
 8488TIP3    H249660   4.813   5.635  10.404 -0.4518 -0.2375  0.2007
 8489TIP3   OH249661   0.757   1.962  10.244  0.3072 -0.2284 -0.4689
 8489TIP3    H149662   0.786   2.005  10.324 -1.4621  0.3027 -0.0791
 8489TIP3    H249663   0.788   2.019  10.173  1.1374 -0.2620 -0.1523
 8490TIP3   OH249664   1.240   1.656  10.038 -0.5013  0.3210 -0.3804
 8490TIP3    H149665   1.194   1.713   9.977 -2.2174 -0.3841  0.1601
 8490TIP3    H249666   1.209   1.684  10.125  1.7268  1.1752  0.1864
 8491TIP3   OH249667   0.102   7.071  12.360 -0.4045 -0.4622  0.2333
 8491TIP3    H149668   0.134   7.150  12.318 -0.0626  0.1081  1.5060
 8491TIP3    H249669   0.008   7.083  12.367 -0.2789  0.1725  1.0390
 8492TIP3   OH249670   7.261   6.658   9.820  0.3830  0.5914  0.5540
 8492TIP3    H149671   7.319   6.598   9.774  1.7236  1.1385  1.4707
 8492TIP3    H249672   7.253   6.620   9.908 -1.0160  0.2958  0.3276
 8493TIP3   OH249673   2.225   1.938  11.428 -0.2900  0.0566  0.3110
 8493TIP3    H149674   2.162   1.877  11.467 -0.5916  0.5292  0.5811
 8493TIP3    H249675   2.230   2.010  11.491 -0.3625  0.5703 -0.2659
 8494TIP3   OH249676   0.902   7.212  11.207 -0.2848 -0.4260  0.4001
 8494TIP3    H149677   0.833   7.163  11.164 -1.1882 -0.7083  2.0762
 8494TIP3    H249678   0.869   7.301  11.213  0.7239  0.1082 -1.2987
 8495TIP3   OH249679   7.012   7.468  10.035  0.1698  0.1177 -0.1434
 8495TIP3    H149680   7.061   7.499   9.959 -0.3205  0.1839 -0.4370
 8495TIP3    H249681   6.924   7.505  10.024 -0.2058 -0.7259 -0.0887
 8496TIP3   OH249682   2.047   0.799  10.447  0.3120  0.5695  0.2538
 8496TIP3    H149683   1.973   0.849  10.411  1.0521  1.1340 -0.5468
 8496TIP3    H249684   2.007   0.728  10.496 -0.7650  0.5241 -0.6514
 8497TIP3   OH249685   3.953   0.773  11.020 -0.8460  0.3035  0.2089
 8497TIP3    H149686   3.950   0.868  11.013 -1.1748  0.3228  0.5742
 8497TIP3    H249687   3.866   0.744  10.992 -1.8402  0.3207  2.9690
 8498TIP3   OH249688   6.472   2.254  10.018 -0.3971 -0.7523 -0.0520
 8498TIP3    H149689   6.484   2.294  10.104 -0.2609 -0.1760 -0.3364
 8498TIP3    H249690   6.534   2.181  10.017 -0.5127 -0.8655  0.3960
 8499TIP3   OH249691   3.869   4.252  11.295 -0.4771 -0.3791 -0.1440
 8499TIP3    H149692   3.823   4.253  11.379 -1.4657 -0.7283 -0.6723
 8499TIP3    H249693   3.901   4.162  11.286  0.4220 -0.1167  0.2644
 8500TIP3   OH249694   4.808   6.064  10.297 -0.2938 -0.0693 -0.0854
 8500TIP3    H149695   4.857   6.088  10.218 -0.4039  1.3051  0.2458
 8500TIP3    H249696   4.783   6.147  10.336  0.5131 -0.6768  1.8756
 8501TIP3   OH249697   2.690   2.619  11.719  0.1361  0.5184  0.0288
 8501TIP3    H149698   2.766   2.611  11.661  0.1099 -0.6818  0.1350
 8501TIP3    H249699   2.634   2.685  11.677  0.8284  0.7810 -0.4958
 8502TIP3   OH249700   7.291   3.783  11.908  0.5272  0.1524  0.6212
 8502TIP3    H149701   7.352   3.855  11.892 -0.0127  0.6989  0.9988
 8502TIP3    H249702   7.262   3.757  11.820  0.7081  0.4075  0.4842
 8503TIP3   OH249703   6.823   6.342   9.776  0.0361 -0.2199 -0.5349
 8503TIP3    H149704   6.777   6.426   9.784 -1.0562 -0.8677  0.1732
 8503TIP3    H249705   6.909   6.359   9.817 -0.3678  0.4097  0.0954
 8504TIP3   OH249706   5.595   3.570   9.737  0.0230  0.0902 -0.0048
 8504TIP3    H149707   5.636   3.516   9.805 -0.9572  0.2038  0.6805
 8504TIP3    H249708   5.501   3.560   9.751 -0.2497  3.1631  1.1190
 8505TIP3   OH249709   6.266   2.547  11.297 -0.1536  0.0226 -0.2933
 8505TIP3    H149710   6.335   2.498  11.254 -1.8095 -0.8836 -2.0583
 8505TIP3    H249711   6.262   2.630  11.250 -0.9254 -0.3392 -0.8846
 8506TIP3   OH249712   3.279   1.055  10.907  0.1662  0.3951 -0.7534
 8506TIP3    H149713   3.322   1.121  10.851  0.1715  0.1959 -0.9852
 8506TIP3    H249714   3.294   1.087  10.996 -0.1524  0.9053 -0.8773
 8507TIP3   OH249715   6.868   3.290  11.779  0.4970 -0.0992 -0.1474
 8507TIP3    H149716   6.784   3.267  11.739  1.1413  0.6695 -2.0547
 8507TIP3    H249717   6.848   3.301  11.872 -1.5276  0.1249 -0.5683
 8508TIP3   OH249718   3.457   7.300  12.275  0.2736 -0.2774  0.6798
 8508TIP3    H149719   3.415   7.300  12.361 -0.5565  1.6379  0.3369
 8508TIP3    H249720   3.406   7.364  12.224  3.4847  2.1168  0.2021
 8509TIP3   OH249721   1.294   6.021  12.075 -0.1003 -0.5584 -0.3322
 8509TIP3    H149722   1.288   6.106  12.118 -1.9428 -0.5100 -0.5926
 8509TIP3    H249723   1.296   5.958  12.147  1.0800 -0.3280 -0.1405
 8510TIP3   OH249724   5.200   0.402  11.632 -0.6620 -0.7761 -0.4874
 8510TIP3    H149725   5.232   0.437  11.715 -1.4748  0.2527 -0.5924
 8510TIP3    H249726   5.278   0.397  11.577 -0.2945 -0.4714 -0.0107
 8511TIP3   OH249727   3.951   3.568  11.539  0.0226  0.2836 -0.0323
 8511TIP3    H149728   4.020   3.546  11.601 -3.0247 -0.8157  3.3124
 8511TIP3    H249729   3.925   3.484  11.501  0.1941  0.6267 -0.9361
 8512TIP3   OH249730   5.162   3.990  10.493  0.3537  0.4567  0.4550
 8512TIP3    H149731   5.236   4.010  10.550  0.4345  0.2766  0.4157
 8512TIP3    H249732   5.185   4.029  10.409 -0.5444  2.2597  0.9888
 8513TIP3   OH249733   6.569   0.985   9.788  0.4541 -0.2224 -0.3584
 8513TIP3    H149734   6.567   0.931   9.867  1.6233  0.2443  0.0204
 8513TIP3    H249735   6.480   1.018   9.778  0.0122 -1.2441  0.0840
 8514TIP3   OH249736   6.360   3.805  10.481 -0.2387  0.0160 -0.2887
 8514TIP3    H149737   6.328   3.887  10.520  2.2047  1.1107 -0.3679
 8514TIP3    H249738   6.446   3.828  10.446  0.9414 -2.8432  0.5015
 8515TIP3   OH249739   0.074   4.657  11.251 -0.7151 -0.6061 -0.0567
 8515TIP3    H149740   0.084   4.563  11.238  1.5692 -0.4633  0.1875
 8515TIP3    H249741   0.126   4.696  11.181 -0.9287  0.4484  0.3525
 8516TIP3   OH249742   4.958   6.578   9.639  0.1368 -0.7538 -0.1674
 8516TIP3    H149743   4.874   6.534   9.652  0.4686 -1.1937  0.5523
 8516TIP3    H249744   4.963   6.643   9.709 -1.1761  1.8063 -2.2967
 8517TIP3   OH249745   4.801   2.699  10.513 -0.0934  0.2291 -0.8958
 8517TIP3    H149746   4.742   2.649  10.457 -1.1892  0.9236 -0.3893
 8517TIP3    H249747   4.745   2.765  10.555  1.3623  2.0788 -1.7438
 8518TIP3   OH249748   2.453   4.894  11.413  0.1463 -0.2892  0.0784
 8518TIP3    H149749   2.476   4.987  11.403 -0.5493  0.0933  1.6705
 8518TIP3    H249750   2.484   4.872  11.501 -0.8627 -1.1972  0.2240
 8519TIP3   OH249751   5.890   2.611  10.030  0.1189  0.8772 -0.2315
 8519TIP3    H149752   5.806   2.585   9.993 -0.1875 -0.4390  1.2759
 8519TIP3    H249753   5.875   2.616  10.124  1.7536  0.4514  0.0865
 8520TIP3   OH249754   6.169   0.389  11.185 -0.3084  0.1814  0.2216
 8520TIP3    H149755   6.178   0.450  11.111 -0.4810  0.1765  0.1965
 8520TIP3    H249756   6.229   0.423  11.251 -0.2730  0.2788  0.1413
 8521TIP3   OH249757   0.560   5.803  11.335  0.6763 -0.9785 -0.0496
 8521TIP3    H149758   0.490   5.765  11.280  0.4182 -0.6211  0.0325
 8521TIP3    H249759   0.641   5.776  11.292  0.4732 -0.5269 -0.7310
 8522TIP3   OH249760   4.369   5.113   9.943 -0.1608  0.0352  0.3123
 8522TIP3    H149761   4.330   5.109  10.030 -0.8411  1.3252  0.0840
 8522TIP3    H249762   4.348   5.200   9.911 -2.3955 -1.3360 -2.2911
 8523TIP3   OH249763   0.520   6.588  10.086  0.4060 -0.6739 -0.1972
 8523TIP3    H149764   0.595   6.638  10.054  0.2776  0.0637  0.6020
 8523TIP3    H249765   0.491   6.536  10.010  0.5980  0.4078 -1.0360
 8524TIP3   OH249766   3.827   5.150  11.785 -0.0896 -0.3641 -0.0696
 8524TIP3    H149767   3.900   5.194  11.743  0.5524  0.1336  1.4964
 8524TIP3    H249768   3.818   5.067  11.738  2.2209 -0.9457  0.3984
 8525TIP3   OH249769   5.171   6.342  11.672  0.3564 -0.2669 -0.1319
 8525TIP3    H149770   5.104   6.312  11.611  1.1909 -2.2000 -0.1870
 8525TIP3    H249771   5.159   6.286  11.749  1.7283 -0.4553 -0.0413
 8526TIP3   OH249772   6.793   6.968  10.574  0.1193  0.3657  0.0839
 8526TIP3    H149773   6.785   6.887  10.623  0.7267 -0.3071 -0.8859
 8526TIP3    H249774   6.759   7.036  10.632  0.2500 -0.4876  1.1696
 8527TIP3   OH249775   3.827   3.260  10.646 -0.1583  0.2477 -0.3365
 8527TIP3    H149776   3.767   3.330  10.618  0.0604  0.8769  0.6932
 8527TIP3    H249777   3.771   3.196  10.689  0.0773  2.1925  3.2822
 8528TIP3   OH249778   6.242   6.016  10.464  0.3197 -0.1413  0.2468
 8528TIP3    H149779   6.269   5.977  10.381  0.1359  2.1792 -1.0128
 8528TIP3    H249780   6.318   6.068  10.492 -0.5881  1.4478 -0.0747
 8529TIP3   OH249781   0.478   5.750   9.547  0.6064 -0.5512  0.1087
 8529TIP3    H149782   0.547   5.685   9.537  0.0796 -1.3314  1.4163
 8529TIP3    H249783   0.523   5.834   9.537  1.3051 -1.0713 -1.4957
 8530TIP3   OH249784   6.086   6.404   9.769  0.2478 -0.0330  0.6271
 8530TIP3    H149785   6.026   6.467   9.728  1.0796  0.4582  0.1353
 8530TIP3    H249786   6.117   6.448   9.848  1.2255  0.4106  0.0182
 8531TIP3   OH249787   2.252   3.319  10.262 -0.4104  0.5901  0.2149
 8531TIP3    H149788   2.222   3.319  10.353 -2.5828 -1.0617 -0.3984
 8531TIP3    H249789   2.203   3.391  10.221 -0.5664  0.3871  0.0430
 8532TIP3   OH249790   1.649   5.012  12.069  0.2304  0.1643  0.2443
 8532TIP3    H149791   1.693   5.097  12.070  0.8618 -0.1383 -0.5922
 8532TIP3    H249792   1.558   5.032  12.091  0.1105  1.2186 -1.0738
 8533TIP3   OH249793   4.627   0.054  11.034  0.7455 -0.0473 -0.0967
 8533TIP3    H149794   4.676   0.136  11.032  2.9763 -1.2910 -0.0034
 8533TIP3    H249795   4.653   0.012  11.116 -1.8865 -0.0412  0.8578
 8534TIP3   OH249796   5.531   1.709   9.558  0.4186  0.5589  0.2849
 8534TIP3    H149797   5.576   1.626   9.544 -1.7269 -0.8935  1.4259
 8534TIP3    H249798   5.568   1.742   9.640  0.8196  0.4087  0.1703
 8535TIP3   OH249799   4.578   3.760  11.422 -0.3439  0.0582 -0.2139
 8535TIP3    H149800   4.610   3.785  11.508 -1.1712 -0.1625  0.1656
 8535TIP3    H249801   4.646   3.703  11.386  0.5877  1.1544 -0.2308
 8536TIP3   OH249802   1.239   0.011  11.510  0.4292 -0.0247 -0.3498
 8536TIP3    H149803   1.232   0.059  11.427  0.7237 -0.1406 -0.4430
 8536TIP3    H249804   1.332   0.017  11.534  0.2344  0.5558  0.3036
 8537TIP3   OH249805   5.494   7.193  10.597  0.4102 -0.0394 -0.4158
 8537TIP3    H149806   5.415   7.156  10.559  0.0877  1.6438 -1.4529
 8537TIP3    H249807   5.495   7.160  10.687 -1.3916 -0.2108 -0.4305
 8538TIP3   OH249808   2.233   3.455   9.993 -0.3665  0.3163 -0.3953
 8538TIP3    H149809   2.237   3.374   9.942 -1.6471  0.4640 -0.7596
 8538TIP3    H249810   2.320   3.464  10.031 -0.2019 -1.2203 -0.3638
 8539TIP3   OH249811   4.275   0.883  10.967 -0.3210  0.2920  0.1503
 8539TIP3    H149812   4.308   0.948  11.029 -3.2745  1.2311  0.8998
 8539TIP3    H249813   4.320   0.903  10.885  0.9914  1.3593  1.0758
 8540TIP3   OH249814   4.161   6.144  10.087  0.4324  0.7854  0.1746
 8540TIP3    H149815   4.155   6.224  10.035 -3.2970  0.7500  0.2746
 8540TIP3    H249816   4.097   6.156  10.157  1.2026 -1.5083  1.3756
 8541TIP3   OH249817   1.364   4.917   9.627 -0.0418  0.1000  0.0983
 8541TIP3    H149818   1.398   4.951   9.544 -0.0475  0.9079  0.4186
 8541TIP3    H249819   1.429   4.853   9.656  0.3821  0.4384 -0.1051
 8542TIP3   OH249820   7.421   0.855  10.284  0.0285 -0.9159 -0.1194
 8542TIP3    H149821   7.435   0.928  10.343  0.1871 -1.6115  0.7334
 8542TIP3    H249822   7.342   0.877  10.235 -0.8857 -0.9095  1.3019
 8543TIP3   OH249823   2.633   0.932  10.511  0.5203 -0.6754 -0.1727
 8543TIP3    H149824   2.660   0.925  10.420  2.1706  0.6611  0.1550
 8543TIP3    H249825   2.548   0.890  10.515  0.2455 -0.4209 -2.3999
 8544TIP3   OH249826   4.296   4.413  10.671  0.0138  0.4187 -0.4714
 8544TIP3    H149827   4.277   4.369  10.753  2.1940 -0.4418 -0.3554
 8544TIP3    H249828   4.356   4.483  10.695 -0.9185  1.4591 -1.0924
 8545TIP3   OH249829   5.489   1.381  11.249  0.3892 -0.1421  0.5990
 8545TIP3    H149830   5.530   1.400  11.164  0.5687 -1.0421  0.4759
 8545TIP3    H249831   5.395   1.383  11.231  0.4281 -2.0755 -0.0500
 8546TIP3   OH249832   2.119   6.942  12.072  0.2071 -0.3831 -0.4258
 8546TIP3    H149833   2.125   6.858  12.027  0.0590 -0.9595  0.6132
 8546TIP3    H249834   2.037   6.938  12.122  1.4516 -0.6917  1.7157
 8547TIP3   OH249835   0.182   4.058  11.158  0.2631  0.1078 -1.0958
 8547TIP3    H149836   0.099   4.077  11.201  0.7733  1.3143 -0.6187
 8547TIP3    H249837   0.161   4.055  11.065 -0.6221 -1.3429 -0.8930
 8548TIP3   OH249838   4.411   2.143   9.839  0.4253 -0.3095  0.5738
 8548TIP3    H149839   4.505   2.149   9.859  0.3399  0.2081  0.8504
 8548TIP3    H249840   4.390   2.227   9.797  0.0951 -0.4395  0.4782
 8549TIP3   OH249841   3.500   5.332  12.192  0.0832  0.0293  0.1648
 8549TIP3    H149842   3.464   5.253  12.234  0.5737 -1.0340 -1.3042
 8549TIP3    H249843   3.576   5.300  12.144 -0.1583  1.2657 -1.0959
 8550TIP3   OH249844   1.510   1.419  18.462 -0.6077 -0.1888  0.2564
 8550TIP3    H149845   1.577   1.397  18.527 -0.7556 -0.0067  0.4743
 8550TIP3    H249846   1.472   1.501  18.494  0.0625  0.4893 -0.6371
 8551TIP3   OH249847   7.209   0.963  10.811 -0.1569  0.1707 -0.1323
 8551TIP3    H149848   7.159   1.044  10.823  0.9208  1.0687 -1.4137
 8551TIP3    H249849   7.292   0.991  10.773  1.0002 -1.3772  1.1335
 8552TIP3   OH249850   5.735   6.538  10.569 -0.3242  0.0660 -0.3578
 8552TIP3    H149851   5.828   6.515  10.561  0.0317  0.3337  2.0528
 8552TIP3    H249852   5.721   6.605  10.502  1.3265  0.2800 -0.5410
 8553TIP3   OH249853   2.932   2.224  10.125 -0.5354 -0.4477  0.2052
 8553TIP3    H149854   2.994   2.180  10.066  0.2114  0.8323  0.0011
 8553TIP3    H249855   2.862   2.255  10.067  0.5197  1.3814 -0.1602
 8554TIP3   OH249856   6.357   1.989  10.566 -0.2441 -0.4124  0.5033
 8554TIP3    H149857   6.343   1.993  10.660 -2.5020 -0.1927  0.2253
 8554TIP3    H249858   6.271   1.966  10.530  0.4696 -0.1414 -1.5142
 8555TIP3   OH249859   1.839   0.469  11.153 -0.0593 -0.3559 -0.0470
 8555TIP3    H149860   1.827   0.452  11.060  0.1871  1.7641 -0.5225
 8555TIP3    H249861   1.755   0.506  11.182  0.1997 -0.0257  0.3098
 8556TIP3   OH249862   4.353   6.234  10.898 -0.6441  0.1390  0.2412
 8556TIP3    H149863   4.414   6.160  10.900  0.3759  0.9356 -0.6051
 8556TIP3    H249864   4.384   6.292  10.968 -2.9646 -1.3316  2.6850
 8557TIP3   OH249865   1.779   7.083  10.021  0.5416 -0.6330 -0.6082
 8557TIP3    H149866   1.840   7.085   9.947  2.7624  1.1151  1.1602
 8557TIP3    H249867   1.825   7.032  10.088 -0.2018  0.1760  0.5412
 8558TIP3   OH249868   4.947   1.039  11.297 -0.0533  0.4856  0.0717
 8558TIP3    H149869   4.959   0.976  11.226  2.0054  0.2221  0.6089
 8558TIP3    H249870   4.854   1.031  11.321 -1.0409  1.1574 -3.0640
 8559TIP3   OH249871   1.472   3.611  10.929 -0.0132  0.2345 -0.1366
 8559TIP3    H149872   1.490   3.569  10.846  0.1576  0.8709 -0.4285
 8559TIP3    H249873   1.377   3.625  10.928  0.1062  1.0869 -0.6445
 8560TIP3   OH249874   3.150   0.873  10.471  0.6238 -0.3085 -0.8393
 8560TIP3    H149875   3.201   0.953  10.484  0.0307  0.1448 -1.2689
 8560TIP3    H249876   3.191   0.809  10.529  1.1127  0.3013 -0.4993
 8561TIP3   OH249877   1.349   2.038  10.420 -0.4352  0.5644  0.0666
 8561TIP3    H149878   1.334   2.053  10.513  0.6303  2.0423  0.0291
 8561TIP3    H249879   1.403   2.112  10.392  0.0592 -0.3574 -1.5178
 8562TIP3   OH249880   5.663   4.598  16.916  0.6429  0.1379  0.6559
 8562TIP3    H149881   5.729   4.650  16.870 -0.4548  0.0918 -1.0643
 8562TIP3    H249882   5.585   4.653  16.916  0.3659 -0.2192  1.7590
 8563TIP3   OH249883   5.482   4.644   9.841  0.2741  0.3934  0.1895
 8563TIP3    H149884   5.419   4.610   9.778  1.7042 -0.7441 -0.6648
 8563TIP3    H249885   5.451   4.612   9.926 -0.0395 -0.5510 -0.2719
 8564TIP3   OH249886   4.353   0.274  10.609  0.1643 -0.6013  0.5989
 8564TIP3    H149887   4.447   0.292  10.612  0.1118 -0.3896  2.2117
 8564TIP3    H249888   4.335   0.253  10.518  1.6373  0.0832  0.1152
 8565TIP3   OH249889   1.532   7.101  10.784  0.3982  0.0070 -0.1516
 8565TIP3    H149890   1.580   7.149  10.852  0.6430  0.3990 -0.5937
 8565TIP3    H249891   1.441   7.102  10.814  0.3915  0.7889 -0.1640
 8566TIP3   OH249892   1.371   4.575  11.045 -0.3737 -0.2303  0.2589
 8566TIP3    H149893   1.392   4.667  11.027  0.5886 -0.2632  1.1197
 8566TIP3    H249894   1.278   4.576  11.068 -1.0377  0.1479 -2.1753
 8567TIP3   OH249895   2.654   6.718  10.411  0.1702  0.4401  0.4862
 8567TIP3    H149896   2.638   6.785  10.344  0.4346  1.2903  1.2568
 8567TIP3    H249897   2.619   6.755  10.491 -0.4401 -0.7111  0.7784
 8568TIP3   OH249898   3.477   0.886  10.717 -0.4333 -0.4185 -0.1931
 8568TIP3    H149899   3.499   0.942  10.792 -1.6414 -1.3049  0.8521
 8568TIP3    H249900   3.405   0.931  10.675 -0.5569 -0.5361 -0.1073
 8569TIP3   OH249901   0.150   7.123  11.288  0.4290 -0.0719  0.0800
 8569TIP3    H149902   0.174   7.215  11.297 -0.2271  0.1605 -0.5162
 8569TIP3    H249903   0.223   7.076  11.329  0.6097  0.7155  0.6922
 8570TIP3   OH249904   0.713   4.200  11.555  0.3435  0.0505 -0.4355
 8570TIP3    H149905   0.714   4.295  11.538  1.4668  0.3148  0.9240
 8570TIP3    H249906   0.796   4.183  11.599 -0.9954 -1.0748  1.8535
 8571TIP3   OH249907   1.411   6.247  12.227  0.3338  0.0253 -0.1793
 8571TIP3    H149908   1.422   6.227  12.320  2.8804  1.0884 -0.1725
 8571TIP3    H249909   1.367   6.331  12.225  0.4917  0.1131  0.0769
 8572TIP3   OH249910   7.228   0.134  11.305 -0.1927 -0.3881 -0.6305
 8572TIP3    H149911   7.241   0.221  11.267 -0.9615  0.3312  0.6478
 8572TIP3    H249912   7.208   0.078  11.231 -2.6687  1.1549 -1.2605
 8573TIP3   OH249913   1.976   1.877  10.850 -0.2605  0.2643 -0.4044
 8573TIP3    H149914   2.001   1.965  10.878 -0.7768  0.6599 -1.1471
 8573TIP3    H249915   1.980   1.824  10.929  1.0440  0.7294 -0.1319
 8574TIP3   OH249916   0.635   6.279  10.029 -0.1690  0.3429  0.5078
 8574TIP3    H149917   0.703   6.285  10.096  0.6132  0.9697 -0.3158
 8574TIP3    H249918   0.668   6.332   9.957 -1.4060  0.4025 -0.0320
 8575TIP3   OH249919   5.274   0.947   9.875 -0.0126 -0.1130 -0.3470
 8575TIP3    H149920   5.234   0.909   9.953 -0.8335  0.0878 -0.6648
 8575TIP3    H249921   5.292   0.871   9.819  1.7795 -0.4094  0.5403
 8576TIP3   OH249922   4.089   5.663  10.251  0.3727  0.5437  0.1878
 8576TIP3    H149923   4.027   5.648  10.180 -0.2809 -0.0059  0.8502
 8576TIP3    H249924   4.036   5.702  10.321  0.9884  1.0220  0.3980
 8577TIP3   OH249925   2.079   6.349   9.650  0.5327  0.0851  0.3355
 8577TIP3    H149926   2.122   6.321   9.569 -0.6942 -0.1334 -0.2595
 8577TIP3    H249927   1.988   6.322   9.639  0.6213 -1.2727  2.4116
 8578TIP3   OH249928   4.410   1.398  10.131 -0.5246 -0.2418 -0.4339
 8578TIP3    H149929   4.336   1.347  10.166 -2.0317  1.6234 -0.6876
 8578TIP3    H249930   4.429   1.357  10.047 -1.5187 -0.5716 -0.5230
 8579TIP3   OH249931   2.290   5.289  12.145 -0.2380  0.2764  0.2969
 8579TIP3    H149932   2.253   5.204  12.170  1.5428 -0.5750  0.1506
 8579TIP3    H249933   2.363   5.268  12.087  1.1987  1.8133  1.4363
 8580TIP3   OH249934   5.731   1.725  11.358  0.5185  0.8863  0.0041
 8580TIP3    H149935   5.805   1.670  11.386  0.9929  2.0011  1.0417
 8580TIP3    H249936   5.654   1.669  11.370  1.0823  0.0938  0.0109
 8581TIP3   OH249937   0.239   6.162  11.799 -0.1441 -0.4134 -0.4475
 8581TIP3    H149938   0.261   6.128  11.713 -2.0159 -0.5424 -0.9190
 8581TIP3    H249939   0.316   6.211  11.827  0.3051  0.0647 -2.4128
 8582TIP3   OH249940   5.042   3.712  11.394  0.6312 -0.6446 -0.0406
 8582TIP3    H149941   5.015   3.645  11.331  0.3369 -0.3159 -0.2727
 8582TIP3    H249942   5.007   3.682  11.478  0.3705 -0.7110 -0.1705
 8583TIP3   OH249943   6.301   1.468  10.204 -0.3587  0.5987 -0.6047
 8583TIP3    H149944   6.240   1.512  10.145 -1.2170  0.3539  0.0702
 8583TIP3    H249945   6.284   1.375  10.192  0.1535  0.5143 -0.6905
 8584TIP3   OH249946   4.080   1.674  10.206  0.2172  0.1629 -0.9112
 8584TIP3    H149947   4.083   1.680  10.111  0.0840 -0.3486 -0.9521
 8584TIP3    H249948   4.113   1.758  10.237  2.7406 -0.5505 -1.3937
 8585TIP3   OH249949   0.558   1.292  11.435  0.0990 -0.5369 -0.0398
 8585TIP3    H149950   0.645   1.257  11.417  0.7633  0.8502  0.3423
 8585TIP3    H249951   0.574   1.377  11.475 -1.4381 -0.1273 -0.2279
 8586TIP3   OH249952   1.056   6.983  11.910  0.0983  0.0886  0.1982
 8586TIP3    H149953   0.965   7.012  11.908  0.0841  0.1195  1.0539
 8586TIP3    H249954   1.074   6.966  12.002  0.8515 -0.2693 -0.0070
 8587TIP3   OH249955   5.122   2.286  11.235 -0.0868 -0.1735  0.0351
 8587TIP3    H149956   5.198   2.230  11.223  0.8302  0.5444  1.9591
 8587TIP3    H249957   5.106   2.324  11.149  0.9707 -1.2588 -0.6754
 8588TIP3   OH249958   4.459   4.061  10.261  0.5543 -0.2125 -0.3812
 8588TIP3    H149959   4.440   4.122  10.332  0.4520  0.3901 -0.9231
 8588TIP3    H249960   4.484   3.980  10.306 -1.0573 -0.3411  0.3551
 8589TIP3   OH249961   0.359   6.055  11.170 -0.0160 -0.1735  0.1623
 8589TIP3    H149962   0.290   6.086  11.111  0.3206 -0.3168 -0.3130
 8589TIP3    H249963   0.311   6.014  11.242 -0.4295 -0.9066 -0.5094
 8590TIP3   OH249964   3.334   0.918  10.171 -0.0213  0.1547  0.5025
 8590TIP3    H149965   3.319   1.011  10.192 -0.3540  0.0647  0.6647
 8590TIP3    H249966   3.257   0.873  10.204 -0.4787 -0.0269 -0.7593
 8591TIP3   OH249967   5.035   7.249  10.762  0.2020 -0.2825 -0.7447
 8591TIP3    H149968   4.951   7.230  10.720 -0.7065 -1.2429  1.3554
 8591TIP3    H249969   5.012   7.270  10.853  2.2098 -0.3316 -0.1788
 8592TIP3   OH249970   1.516   5.232   9.782  0.1442  0.0714  0.1701
 8592TIP3    H149971   1.547   5.245   9.872 -0.0615 -2.0582  0.5929
 8592TIP3    H249972   1.550   5.146   9.757  0.0631  0.5481 -1.7521
 8593TIP3   OH249973   6.757   5.616  11.894  0.1651 -0.4279  0.3581
 8593TIP3    H149974   6.764   5.664  11.811 -2.8745  1.2960  0.9840
 8593TIP3    H249975   6.816   5.663  11.953 -1.9634  2.1269  0.6671
 8594TIP3   OH249976   3.358   5.085  10.916 -0.4501  0.2659 -0.1083
 8594TIP3    H149977   3.449   5.080  10.887 -0.5000  2.8930 -1.0191
 8594TIP3    H249978   3.354   5.166  10.967 -2.5941  1.1053 -1.4679
 8595TIP3   OH249979   2.520   6.720   9.676 -0.1035 -0.2303  0.2673
 8595TIP3    H149980   2.494   6.639   9.631  0.6066  0.4083 -1.3552
 8595TIP3    H249981   2.498   6.704   9.768  0.3709 -2.4276  0.0605
 8596TIP3   OH249982   1.760   2.990  12.040 -1.3423 -0.6928  0.0575
 8596TIP3    H149983   1.827   3.027  11.983  1.3443 -1.3253  2.6193
 8596TIP3    H249984   1.706   3.065  12.066  0.2823  0.4214  0.3607
 8597TIP3   OH249985   2.470   5.152   9.522  0.4134  0.1460  0.2146
 8597TIP3    H149986   2.474   5.123   9.613  0.9791  0.8145  0.4086
 8597TIP3    H249987   2.451   5.246   9.527 -0.7361 -0.0427 -0.3924
 8598TIP3   OH249988   2.557   3.763  11.723  0.1949 -0.3539 -0.3934
 8598TIP3    H149989   2.488   3.817  11.686  0.6488 -0.3238 -1.2348
 8598TIP3    H249990   2.516   3.718  11.797 -0.7704 -0.4534 -0.9654
 8599TIP3   OH249991   6.730   5.717  11.659 -0.1420 -0.4372 -0.0981
 8599TIP3    H149992   6.642   5.755  11.655 -1.0716 -2.5219 -1.8911
 8599TIP3    H249993   6.738   5.669  11.576  2.5595 -0.6364  0.2044
 8600TIP3   OH249994   2.613   3.218  11.256  0.1760  0.4702  1.2692
 8600TIP3    H149995   2.696   3.184  11.223 -0.4991  1.4096 -1.6796
 8600TIP3    H249996   2.638   3.275  11.329  1.8128 -1.5195  2.3694
 8601TIP3   OH249997   0.336   2.876  11.830 -0.8214  0.1469  0.0495
 8601TIP3    H149998   0.384   2.834  11.902 -2.6027 -1.6612  0.2995
 8601TIP3    H249999   0.385   2.853  11.751  0.1832  0.6522  0.5080
 8602TIP3   OH250000   1.624   6.080  11.689 -0.1320 -0.0597 -0.5843
 8602TIP3    H150001   1.588   6.130  11.616  0.3830  0.1785 -0.6811
 8602TIP3    H250002   1.559   6.091  11.760 -0.3180  0.2398 -0.7982
 8603TIP3   OH250003   5.312   0.378   9.775 -0.4222  0.0756  0.2953
 8603TIP3    H150004   5.218   0.392   9.764 -0.5654 -0.2299  1.0839
 8603TIP3    H250005   5.321   0.283   9.778 -0.1896  0.1190  1.0440
 8604TIP3   OH250006   2.380   3.583  11.904  0.1611  0.3771 -0.0059
 8604TIP3    H150007   2.301   3.529  11.901  1.0771 -1.0019 -0.2285
 8604TIP3    H250008   2.390   3.605  11.997 -1.2073  1.7510 -0.1278
 8605TIP3   OH250009   7.478   1.917  11.022  0.8253 -0.1631  0.3121
 8605TIP3    H150010   7.567   1.923  10.987  0.3371 -1.1213 -1.2099
 8605TIP3    H250011   7.477   1.838  11.076  0.4993 -1.1631 -1.0850
 8606TIP3   OH250012   3.239   4.060  10.945 -0.4390 -0.1872  0.2063
 8606TIP3    H150013   3.167   3.998  10.959 -2.4479  2.2035  1.2761
 8606TIP3    H250014   3.196   4.137  10.909  1.5784  1.4121  1.0579
 8607TIP3   OH250015   5.862   4.989  10.638  0.3968  0.0929  0.8157
 8607TIP3    H150016   5.915   5.042  10.697  1.4332 -1.2005  1.0946
 8607TIP3    H250017   5.847   4.908  10.686  3.0463 -1.8749 -1.3808
 8608TIP3   OH250018   0.962   6.453  11.719 -0.3777 -0.5239  0.1753
 8608TIP3    H150019   0.899   6.494  11.779 -1.0270 -0.4843 -0.5092
 8608TIP3    H250020   1.028   6.521  11.704 -1.2201  0.1426 -0.6167
 8609TIP3   OH250021   1.156   1.226  11.505  0.5493  0.0921  0.0173
 8609TIP3    H150022   1.138   1.158  11.570  0.4761 -0.2664 -0.3797
 8609TIP3    H250023   1.091   1.294  11.525 -0.0204 -0.3766 -0.2038
 8610TIP3   OH250024   0.337   0.733  10.623 -0.1651  0.7473 -0.5812
 8610TIP3    H150025   0.254   0.779  10.636  0.6496  2.0417  0.2858
 8610TIP3    H250026   0.391   0.796  10.575  1.0906  0.8823  0.9391
 8611TIP3   OH250027   5.503   0.113  10.526 -0.1918 -0.5088 -0.6028
 8611TIP3    H150028   5.423   0.102  10.474  0.4486 -2.0271 -1.3422
 8611TIP3    H250029   5.476   0.099  10.616 -0.7102 -1.3489 -0.8800
 8612TIP3   OH250030   5.646   1.007  11.959  0.0382 -0.1211  0.3094
 8612TIP3    H150031   5.669   0.915  11.945  0.1704  0.1235 -1.2624
 8612TIP3    H250032   5.695   1.032  12.037  0.6729 -1.1636  0.2734
 8613TIP3   OH250033   2.363   2.972  10.050 -0.4109 -0.3291  0.0064
 8613TIP3    H150034   2.451   2.975  10.087 -0.6611 -2.7965  1.0192
 8613TIP3    H250035   2.365   2.896   9.991 -0.8520  1.8161 -2.9870
 8614TIP3   OH250036   4.012   6.081  12.636 -0.2371 -1.0557  0.2737
 8614TIP3    H150037   4.024   6.098  12.730  0.1297 -1.2955  0.2715
 8614TIP3    H250038   3.993   6.167  12.598 -0.8100 -1.0173  0.6331
 8615TIP3   OH250039   5.535   4.599  10.323  0.9916 -0.2127  0.0979
 8615TIP3    H150040   5.460   4.616  10.379  0.0267  0.6360 -1.3960
 8615TIP3    H250041   5.566   4.512  10.349 -1.4662 -1.2671 -0.3116
 8616TIP3   OH250042   2.935   7.100   9.738  0.3220  0.4543  0.6043
 8616TIP3    H150043   2.852   7.052   9.741  0.3265  0.3684 -0.3430
 8616TIP3    H250044   2.909   7.192   9.733  0.2201  0.3589 -1.3776
 8617TIP3   OH250045   3.316   3.703  10.851  0.0967 -0.0657  0.0102
 8617TIP3    H150046   3.222   3.691  10.866  0.1000 -1.1343 -0.6798
 8617TIP3    H250047   3.354   3.698  10.938 -0.2979 -1.8034  0.1267
 8618TIP3   OH250048   7.466   0.638  10.148 -0.4397 -0.1388 -0.0678
 8618TIP3    H150049   7.439   0.707  10.208 -2.7124 -0.4630 -0.5977
 8618TIP3    H250050   7.414   0.562  10.175  0.9264 -1.2301 -0.4106
 8619TIP3   OH250051   5.573   1.511  10.432 -0.2792 -0.2088  0.5616
 8619TIP3    H150052   5.506   1.443  10.438  0.1093 -0.5359  1.5370
 8619TIP3    H250053   5.527   1.588  10.398 -0.4873 -1.2526 -1.7223
 8620TIP3   OH250054   3.522   0.233  11.133 -0.1719  0.4689 -0.3661
 8620TIP3    H150055   3.592   0.176  11.165 -0.1654 -1.2638 -3.2218
 8620TIP3    H250056   3.447   0.176  11.122 -0.8603  1.4827 -1.1303
 8621TIP3   OH250057   6.977   2.213  10.214  0.6514  0.3134 -0.4086
 8621TIP3    H150058   7.012   2.302  10.213  2.4564 -0.3417  0.3589
 8621TIP3    H250059   6.896   2.221  10.264 -0.1245  1.7903 -1.7874
 8622TIP3   OH250060   1.154   7.338  10.936  0.0687  0.0775  0.2104
 8622TIP3    H150061   1.066   7.365  10.911  0.5965  1.6651 -0.0316
 8622TIP3    H250062   1.144   7.299  11.023 -1.0737 -1.1658 -0.4410
 8623TIP3   OH250063   2.067   2.243  10.354 -0.2469 -0.4903 -0.2038
 8623TIP3    H150064   2.017   2.309  10.403  0.1525 -0.5707  0.3212
 8623TIP3    H250065   2.009   2.167  10.351  0.0429 -0.7724  0.8850
 8624TIP3   OH250066   2.242   6.936  10.074  0.6647  0.4192 -0.0192
 8624TIP3    H150067   2.263   7.028  10.059  0.3816  0.5366  0.2890
 8624TIP3    H250068   2.163   6.938  10.129  0.2667 -0.0071 -0.5570
 8625TIP3   OH250069   6.606   5.435  12.009 -0.2379  0.0200 -0.9770
 8625TIP3    H150070   6.638   5.497  11.944 -0.0856  0.4266 -0.5204
 8625TIP3    H250071   6.677   5.372  12.019  1.3278  1.9740  1.4334
 8626TIP3   OH250072   4.058   4.544  11.907  0.3097  0.2814  0.2759
 8626TIP3    H150073   4.064   4.479  11.838 -0.6524  0.2507  0.2160
 8626TIP3    H250074   4.149   4.574  11.920  0.4947  0.3366 -1.0360
 8627TIP3   OH250075   2.715   3.519  11.034  0.0699  0.0760 -0.2025
 8627TIP3    H150076   2.623   3.491  11.038  0.2524 -0.7133 -1.0654
 8627TIP3    H250077   2.757   3.472  11.107 -0.2087  0.4435  0.1979
 8628TIP3   OH250078   6.889   6.940  12.718 -0.5915 -0.3904 -0.1335
 8628TIP3    H150079   6.898   7.029  12.683  1.1846  0.3505  2.0090
 8628TIP3    H250080   6.797   6.934  12.746 -0.3493  1.4005  1.1933
 8629TIP3   OH250081   6.570   2.616  10.211 -0.6773  0.4884  0.6635
 8629TIP3    H150082   6.536   2.624  10.122  1.4876  0.8452 -0.1732
 8629TIP3    H250083   6.564   2.523  10.231 -0.8513  0.3586  0.0212
 8630TIP3   OH250084   5.365   4.804  11.585 -0.4745  0.3151  0.0541
 8630TIP3    H150085   5.384   4.747  11.510 -0.7697  0.9934 -0.5460
 8630TIP3    H250086   5.413   4.764  11.658 -0.1353 -0.3238 -0.5057
 8631TIP3   OH250087   6.299   2.055  10.833  0.0035 -0.3612 -0.0460
 8631TIP3    H150088   6.304   2.150  10.817 -0.6562 -0.5943 -1.9982
 8631TIP3    H250089   6.240   2.046  10.907 -0.9451  0.7375 -0.6347
 8632TIP3   OH250090   2.918   5.566   9.844  0.2060  0.2915 -0.0799
 8632TIP3    H150091   2.999   5.601   9.881 -0.0575  0.1858  0.6129
 8632TIP3    H250092   2.931   5.572   9.750  0.9078  0.5378  0.0211
 8633TIP3   OH250093   3.468   4.237  10.177  0.2755 -0.3208  0.1607
 8633TIP3    H150094   3.395   4.224  10.237 -0.8160  2.3408 -0.4614
 8633TIP3    H250095   3.531   4.290  10.227  0.0736  0.5592 -0.4923
 8634TIP3   OH250096   7.348   3.372  10.170 -0.1063 -0.2320 -0.1351
 8634TIP3    H150097   7.428   3.389  10.120  0.6518 -1.7730  0.4860
 8634TIP3    H250098   7.364   3.288  10.213 -1.7276 -0.1528  0.7011
 8635TIP3   OH250099   6.727   6.850  11.491  0.4602  0.5173 -0.6738
 8635TIP3    H150100   6.679   6.782  11.539  2.9187  0.5341  2.0647
 8635TIP3    H250101   6.713   6.828  11.399 -2.3477 -1.1122  0.0080
 8636TIP3   OH250102   0.530   7.108  11.794  0.2233 -0.3863 -0.0331
 8636TIP3    H150103   0.485   7.034  11.836  1.6794 -0.7602  0.9332
 8636TIP3    H250104   0.494   7.109  11.705 -0.4045 -1.7749  0.1668
 8637TIP3   OH250105   5.916   0.377   9.841  0.4391  0.1067 -0.2202
 8637TIP3    H150106   5.994   0.326   9.866  1.1224 -0.5357 -3.2047
 8637TIP3    H250107   5.951   0.449   9.788 -0.8670  0.9637  0.0584
 8638TIP3   OH250108   6.632   5.305  11.071  0.2451 -0.4940  0.0773
 8638TIP3    H150109   6.619   5.232  11.010 -0.9630 -1.3791  1.3288
 8638TIP3    H250110   6.570   5.287  11.142  2.1301  0.0764  1.9433
 8639TIP3   OH250111   1.020   0.338  12.494  0.8996  0.0289 -0.0992
 8639TIP3    H150112   1.094   0.386  12.531  2.9034 -1.3892 -2.0086
 8639TIP3    H250113   1.059   0.278  12.431 -1.8182 -1.5648 -0.4308
 8640TIP3   OH250114   1.033   7.285  11.779  0.1624  0.3830  0.6426
 8640TIP3    H150115   0.949   7.320  11.810 -1.3769 -1.5798 -1.0555
 8640TIP3    H250116   1.031   7.192  11.801  0.8946 -0.1645 -1.3305
 8641TIP3   OH250117   6.106   4.948  12.492  0.1577 -0.4607  0.1244
 8641TIP3    H150118   6.065   4.871  12.451 -2.0262  0.0533  1.1661
 8641TIP3    H250119   6.032   5.004  12.515  1.6641  1.7807 -0.1914
 8642TIP3   OH250120   4.227   1.950   9.726 -0.2034 -0.0838 -0.4895
 8642TIP3    H150121   4.202   2.020   9.666  0.6431  1.2233  0.6289
 8642TIP3    H250122   4.308   1.981   9.767 -0.8982 -0.7886  1.5473
 8643TIP3   OH250123   3.813   5.318  11.195 -0.3522 -0.0526 -0.0554
 8643TIP3    H150124   3.831   5.408  11.221  1.8250 -0.5900  0.5210
 8643TIP3    H250125   3.775   5.278  11.274 -3.7674  0.8937 -1.0483
 8644TIP3   OH250126   5.655   2.008  10.700 -0.8004  0.9254 -0.3630
 8644TIP3    H150127   5.746   2.039  10.703 -0.4093 -0.2657  1.2309
 8644TIP3    H250128   5.603   2.088  10.712  0.1154  1.3275  1.2073
 8645TIP3   OH250129   5.702   3.906  10.655  0.3018 -0.1162  0.0732
 8645TIP3    H150130   5.771   3.957  10.697 -1.3417  0.3850  2.4093
 8645TIP3    H250131   5.700   3.937  10.565  2.1901  0.8235  0.3016
 8646TIP3   OH250132   0.488   1.817  12.164 -0.2069  0.4973  0.1969
 8646TIP3    H150133   0.401   1.854  12.181 -0.5631 -0.6506  0.9808
 8646TIP3    H250134   0.484   1.787  12.073 -1.0789 -0.6765  0.5982
 8647TIP3   OH250135   4.743   2.377   9.864  0.8512  0.0324  0.1838
 8647TIP3    H150136   4.791   2.417   9.937  1.4990  1.1585 -0.8208
 8647TIP3    H250137   4.688   2.311   9.905  0.5098  1.2657  1.8166
 8648TIP3   OH250138   4.371   0.287  10.330 -0.0112  0.6811  0.0741
 8648TIP3    H150139   4.458   0.327  10.339  0.2239 -0.0225  1.1726
 8648TIP3    H250140   4.346   0.303  10.239  1.7934 -0.1372 -0.6144
 8649TIP3   OH250141   0.129   6.193  10.367 -0.4144 -0.1732 -0.3886
 8649TIP3    H150142   0.133   6.222  10.458 -1.5834  0.5771 -0.5544
 8649TIP3    H250143   0.169   6.106  10.367  0.3503  0.1631  0.6847
 8650TIP3   OH250144   0.528   0.037  10.124  0.0917  0.1799  0.6668
 8650TIP3    H150145   0.436   0.025  10.145 -0.2344 -0.9474 -1.2085
 8650TIP3    H250146   0.574  -0.029  10.176 -0.3299 -0.3148  0.4145
 8651TIP3   OH250147   0.052   1.408  10.339  0.1529 -0.2925  0.2739
 8651TIP3    H150148   0.034   1.317  10.317 -0.4044 -0.5079  1.5554
 8651TIP3    H250149  -0.022   1.456  10.302  0.6261 -0.2887 -0.7192
 8652TIP3   OH250150   2.194   4.254  11.425 -0.6822 -0.1607 -0.1942
 8652TIP3    H150151   2.172   4.216  11.341  0.4446 -1.3348  0.0165
 8652TIP3    H250152   2.233   4.339  11.404 -2.9464  0.8404 -0.6732
 8653TIP3   OH250153   6.453   7.100  11.191  0.1433  0.1636  0.1436
 8653TIP3    H150154   6.537   7.126  11.153  0.4145  0.0671  0.6710
 8653TIP3    H250155   6.392   7.104  11.117  0.6664 -0.0566 -0.3101
 8654TIP3   OH250156   1.982   1.064  10.898  0.1169 -0.2503  0.0347
 8654TIP3    H150157   2.063   1.109  10.877  0.2624 -1.1672 -1.5122
 8654TIP3    H250158   1.999   0.972  10.877 -1.0534 -0.5891  0.4553
 8655TIP3   OH250159   1.614   1.795   9.868  0.1685  0.5033  0.5385
 8655TIP3    H150160   1.553   1.727   9.898 -0.5492  1.3994  1.1891
 8655TIP3    H250161   1.563   1.845   9.804  1.2172 -0.5147 -1.1492
 8656TIP3   OH250162   1.847   7.088  12.039  0.3798 -0.1145 -0.2892
 8656TIP3    H150163   1.775   7.137  12.079 -0.2703 -0.7732 -0.6203
 8656TIP3    H250164   1.890   7.044  12.112 -0.6795 -1.1568 -0.2715
 8657TIP3   OH250165   6.341   6.873  11.380 -0.1707  0.2485 -0.0603
 8657TIP3    H150166   6.404   6.944  11.368 -0.3919  0.6394  1.0136
 8657TIP3    H250167   6.349   6.820  11.300  1.1891  0.5321 -0.1330
 8658TIP3   OH250168   4.296   4.017  10.999 -0.0065  0.1837  0.1334
 8658TIP3    H150169   4.263   3.935  11.036  0.4714  0.1223  0.4278
 8658TIP3    H250170   4.363   4.046  11.060  1.9572 -0.7486 -1.4776
 8659TIP3   OH250171   6.739   5.634  11.415  0.5658  0.7878  0.2195
 8659TIP3    H150172   6.685   5.556  11.424 -2.3762  2.0656 -3.5539
 8659TIP3    H250173   6.824   5.601  11.386 -0.3971 -1.0945 -0.6566
 8660TIP3   OH250174   3.581   5.350  11.010 -0.9393 -0.0184  0.5390
 8660TIP3    H150175   3.618   5.381  11.093 -1.0620 -0.4782  0.7754
 8660TIP3    H250176   3.651   5.297  10.971  0.1730  2.4771 -1.0465
 8661TIP3   OH250177   3.782   5.547  11.991 -0.1040  0.4589  0.4407
 8661TIP3    H150178   3.850   5.614  11.990 -0.7895  1.2214  1.7509
 8661TIP3    H250179   3.701   5.596  12.002 -0.8601 -0.4464 -0.8872
 8662TIP3   OH250180   3.438   3.117  11.127  0.2591  0.3128 -0.2149
 8662TIP3    H150181   3.354   3.087  11.162 -0.0825 -0.2450 -1.4600
 8662TIP3    H250182   3.461   3.051  11.062  1.3299  0.8315 -0.3746
 8663TIP3   OH250183   2.020   2.989  11.835  0.0353  0.2403  0.1183
 8663TIP3    H150184   2.093   2.955  11.782  0.7835 -0.0140  1.2887
 8663TIP3    H250185   2.057   3.000  11.922 -0.5882  2.6184  0.1473
 8664TIP3   OH250186   1.217   3.987   9.664  0.0346  0.2300 -0.5626
 8664TIP3    H150187   1.234   3.898   9.696  0.1858  0.2420 -0.6076
 8664TIP3    H250188   1.133   3.981   9.618 -0.7462  0.4458  0.7747
 8665TIP3   OH250189   2.084   7.082  12.488 -0.1431  0.2142 -0.0866
 8665TIP3    H150190   2.178   7.070  12.496 -0.4736 -1.4541  2.7164
 8665TIP3    H250191   2.069   7.173  12.516  0.5335  0.0994  0.6672
 8666TIP3   OH250192   0.241   7.466   9.900 -0.2878  0.4287 -0.0394
 8666TIP3    H150193   0.301   7.402   9.862 -1.9548 -1.0908 -0.2022
 8666TIP3    H250194   0.255   7.459   9.994 -1.1801 -0.9455  0.0114
 8667TIP3   OH250195   4.687   1.935   9.575 -0.6709  0.4190 -0.3689
 8667TIP3    H150196   4.672   2.029   9.589  0.7800  1.1452 -3.0247
 8667TIP3    H250197   4.781   1.928   9.556 -0.8497 -1.5057 -0.7329
 8668TIP3   OH250198   6.970   7.238  11.395 -0.5438 -0.4329 -0.3991
 8668TIP3    H150199   7.058   7.226  11.430  0.0360  2.0171 -0.8076
 8668TIP3    H250200   6.915   7.249  11.473 -0.0817  0.1675 -0.1385
 8669TIP3   OH250201   2.534   6.983   9.928  0.3358  0.2809 -0.0291
 8669TIP3    H150202   2.452   6.946   9.895  0.1292  2.4599 -2.3309
 8669TIP3    H250203   2.533   7.074   9.896  2.6598  1.0330  1.7533
 8670TIP3   OH250204   0.264   6.701  11.449  0.1320  0.1969  0.2641
 8670TIP3    H150205   0.224   6.756  11.381 -0.8277 -1.7417 -0.8287
 8670TIP3    H250206   0.226   6.615  11.435  1.5110 -0.7476  1.9721
 8671TIP3   OH250207   6.969   4.572  11.369  0.1981 -0.6598  0.0657
 8671TIP3    H150208   6.908   4.554  11.298 -0.4232 -2.4081  0.9698
 8671TIP3    H250209   7.053   4.589  11.326 -0.3797 -0.7083 -1.1050
 8672TIP3   OH250210   3.213   6.086  11.056  0.1383  0.2617  0.2896
 8672TIP3    H150211   3.203   6.086  10.961  0.2096 -1.2447  0.2547
 8672TIP3    H250212   3.124   6.071  11.089 -0.0767  1.8505  0.5305
 8673TIP3   OH250213   6.109   7.377   9.900 -0.3614  0.4200 -0.1550
 8673TIP3    H150214   6.156   7.443   9.851 -0.2794  1.6702  1.5118
 8673TIP3    H250215   6.168   7.353   9.972 -0.9294 -0.4735  0.0381
 8674TIP3   OH250216   6.919   6.589  11.640 -0.2031 -0.0991  0.1165
 8674TIP3    H150217   7.008   6.612  11.664  0.1066 -0.6258 -0.4998
 8674TIP3    H250218   6.922   6.574  11.545 -1.1541  0.8693 -0.0898
 8675TIP3   OH250219   2.549   2.915  11.048 -0.0989 -0.4612  0.4378
 8675TIP3    H150220   2.599   2.969  10.986  1.4162 -2.0186  0.2144
 8675TIP3    H250221   2.496   2.858  10.993  0.5535 -1.2100  0.5591
 8676TIP3   OH250222   6.898   3.293  10.755 -0.3525 -0.2613 -0.1219
 8676TIP3    H150223   6.898   3.359  10.685 -1.5511 -1.8739 -1.7424
 8676TIP3    H250224   6.815   3.307  10.801 -1.5264 -1.7676 -1.6763
 8677TIP3   OH250225   6.989   0.613  11.844  0.2682  0.2432 -0.1900
 8677TIP3    H150226   6.922   0.666  11.887  1.7204  1.2658  0.9357
 8677TIP3    H250227   7.071   0.657  11.866  1.5313 -2.3192  0.5181
 8678TIP3   OH250228   2.778   0.396  10.711 -0.1772  0.2682  0.2104
 8678TIP3    H150229   2.859   0.434  10.678  0.8408 -0.6433  1.5461
 8678TIP3    H250230   2.806   0.334  10.778 -2.0014  0.1835  0.9599
 8679TIP3   OH250231   1.481   0.992  10.232 -0.8412  0.1895  0.4114
 8679TIP3    H150232   1.477   1.031  10.320  0.4717 -0.9870  1.0274
 8679TIP3    H250233   1.468   1.065  10.172 -4.8044  0.6561  1.5498
 8680TIP3   OH250234   7.311   6.208  10.318 -0.0622  0.8505  0.2881
 8680TIP3    H150235   7.327   6.123  10.277 -1.2390  0.5669  0.3849
 8680TIP3    H250236   7.391   6.225  10.369  0.6502  0.3372 -0.6121
 8681TIP3   OH250237   2.294   7.112  10.403 -0.1954 -0.2645  0.3344
 8681TIP3    H150238   2.278   7.156  10.486 -0.9041 -0.8677  0.5204
 8681TIP3    H250239   2.211   7.117  10.356  0.4365  0.8609 -0.7341
 8682TIP3   OH250240   1.690   7.371  11.758  0.1045  0.8334 -0.0775
 8682TIP3    H150241   1.739   7.405  11.833 -0.1491 -0.7430  0.8586
 8682TIP3    H250242   1.744   7.395  11.682  2.1762 -0.4641  0.8759
 8683TIP3   OH250243   5.269   3.733  11.870 -0.2381 -0.0583 -0.0892
 8683TIP3    H150244   5.355   3.742  11.830 -0.2199 -0.0789 -0.0546
 8683TIP3    H250245   5.233   3.652  11.833 -0.5800  0.3804 -0.7258
 8684TIP3   OH250246   0.101   7.451  10.542 -0.4409  0.7619  0.4114
 8684TIP3    H150247   0.138   7.538  10.529 -1.0166  1.0625  0.7641
 8684TIP3    H250248   0.019   7.452  10.493  0.4978 -0.2640 -1.2984
 8685TIP3   OH250249   1.937   4.973  10.470  0.2966 -0.1387  0.1566
 8685TIP3    H150250   2.010   4.912  10.477  0.7952  0.5987  2.7742
 8685TIP3    H250251   1.863   4.921  10.440  0.8730 -1.9156  1.6532
 8686TIP3   OH250252   2.870   0.338  11.783 -0.2928  0.2565  0.3533
 8686TIP3    H150253   2.814   0.304  11.853 -2.8794  1.8643 -0.7832
 8686TIP3    H250254   2.951   0.364  11.828 -0.3311 -2.2168  2.0701
 8687TIP3   OH250255   5.861   0.162  10.747 -0.2341 -0.2753  0.6511
 8687TIP3    H150256   5.789   0.101  10.762 -1.3195  0.2010 -2.0929
 8687TIP3    H250257   5.860   0.179  10.653  1.8312  1.7856  0.8960
 8688TIP3   OH250258   4.833   1.704   9.331  0.2221  0.4740 -0.1154
 8688TIP3    H150259   4.828   1.649   9.410  1.0209  0.8053  0.1755
 8688TIP3    H250260   4.925   1.699   9.305 -0.2305 -0.4842 -1.6538
 8689TIP3   OH250261   2.927   6.113  10.785  0.1091  0.2963  0.3316
 8689TIP3    H150262   2.834   6.103  10.806 -0.1339  1.7271  0.0241
 8689TIP3    H250263   2.966   6.029  10.808 -1.4491 -0.7272 -0.5867
 8690TIP3   OH250264   2.130   3.511  11.575 -0.3086  0.1239  0.1913
 8690TIP3    H150265   2.165   3.489  11.661 -0.6940  0.1814  0.3647
 8690TIP3    H250266   2.170   3.448  11.515  3.3444  2.6218 -0.3352
 8691TIP3   OH250267   4.731   0.572  10.767 -0.4740 -0.1846  0.1040
 8691TIP3    H150268   4.680   0.605  10.841 -0.5489 -1.3253  0.5719
 8691TIP3    H250269   4.821   0.569  10.799 -0.3622  0.2149 -0.1646
 8692TIP3   OH250270   4.462   3.881  10.026 -0.2529  0.0010 -0.1122
 8692TIP3    H150271   4.465   3.960  10.080  0.7690 -1.4241  2.0820
 8692TIP3    H250272   4.553   3.868   9.998 -0.5424 -0.0291 -1.0941
 8693TIP3   OH250273   6.846   5.477  11.014  0.5896 -0.1072  0.2322
 8693TIP3    H150274   6.929   5.457  11.058  1.6850 -0.4971 -1.9095
 8693TIP3    H250275   6.795   5.396  11.022  1.9114 -1.1964 -1.5889
 8694TIP3   OH250276   0.581   0.493  10.060  0.3421 -0.1368  0.4189
 8694TIP3    H150277   0.601   0.418  10.116 -0.3830  0.7533  1.9513
 8694TIP3    H250278   0.500   0.470  10.015 -0.0285 -0.1735  1.0966
 8695TIP3   OH250279   0.068   6.876  12.060  0.0569 -0.4305 -0.2141
 8695TIP3    H150280   0.095   6.898  12.149 -0.6762  0.0530 -0.1021
 8695TIP3    H250281   0.055   6.961  12.018  2.0940 -0.6283 -1.3227
 8696TIP3   OH250282   2.182   6.751  11.273  0.1163 -0.2552  0.3445
 8696TIP3    H150283   2.179   6.656  11.279  1.4496 -0.4833 -1.6567
 8696TIP3    H250284   2.147   6.771  11.186  1.3959  0.9302  0.0531
 8697TIP3   OH250285   2.413   0.149  11.944  0.5255 -0.3665  0.3137
 8697TIP3    H150286   2.393   0.142  11.851  0.9751  1.7552  0.0030
 8697TIP3    H250287   2.417   0.244  11.961 -1.2050 -0.6468  2.8635
 8698TIP3   OH250288   7.296   1.715  12.043 -0.5111  0.1259 -0.3793
 8698TIP3    H150289   7.389   1.736  12.058 -0.1269 -1.6906  0.0241
 8698TIP3    H250290   7.249   1.792  12.075  0.7597  0.0797  1.8030
 8699TIP3   OH250291   3.030   2.954  10.743  0.1185  0.2361 -0.1312
 8699TIP3    H150292   3.092   3.006  10.693 -0.8525  1.2841 -0.2915
 8699TIP3    H250293   3.025   2.998  10.828  1.2224 -1.1197  0.6792
 8700TIP3   OH250294   4.544   3.438  11.975  0.0267 -0.2995  0.4332
 8700TIP3    H150295   4.604   3.511  11.992  1.0266  0.1735 -3.9385
 8700TIP3    H250296   4.587   3.362  12.015  1.3285  0.7273  1.0911
 8701TIP3   OH250297   5.132   1.745  10.193  0.7907  0.1460 -0.5972
 8701TIP3    H150298   5.049   1.777  10.229 -0.0752 -0.7897 -1.6950
 8701TIP3    H250299   5.194   1.817  10.206  0.0020  0.5921  0.8924
 8702TIP3   OH250300   7.466   1.546  10.963 -0.3378  0.0783 -0.7236
 8702TIP3    H150301   7.402   1.605  10.923 -2.8809 -1.9697  0.0642
 8702TIP3    H250302   7.491   1.590  11.045 -1.0731  0.7265 -0.8394
 8703TIP3   OH250303   3.196   4.866  11.810  0.4716  0.1109 -0.4893
 8703TIP3    H150304   3.128   4.932  11.799  1.0124  0.8636  0.5396
 8703TIP3    H250305   3.148   4.783  11.812 -0.4311  0.6286  0.2401
 8704TIP3   OH250306   5.993   6.759  11.896 -0.5705  0.6621 -0.1968
 8704TIP3    H150307   6.083   6.736  11.872 -1.3799 -2.7374 -0.4805
 8704TIP3    H250308   6.002   6.837  11.950  2.6094  0.1066  0.2778
 8705TIP3   OH250309   7.267   6.371  11.167 -0.2155 -0.0404  0.1904
 8705TIP3    H150310   7.209   6.412  11.102  0.7317 -1.4502 -1.6257
 8705TIP3    H250311   7.207   6.339  11.235 -1.1078  2.8015  0.8977
 8706TIP3   OH250312   5.769   6.333  12.614 -0.2409 -0.1319 -0.2521
 8706TIP3    H150313   5.848   6.328  12.560 -0.4217 -0.1539 -0.5209
 8706TIP3    H250314   5.788   6.280  12.691  0.6797  1.3178  0.5618
 8707TIP3   OH250315   2.623   7.384  11.955  0.6022 -0.0299 -0.6687
 8707TIP3    H150316   2.680   7.357  12.026  1.1160 -1.0666 -1.4579
 8707TIP3    H250317   2.569   7.454  11.993  0.9103 -0.5081  0.7062
 8708TIP3   OH250318   0.407   4.782  10.085  0.2622  0.2382 -0.0983
 8708TIP3    H150319   0.407   4.782   9.989 -1.1272 -1.4933 -0.1500
 8708TIP3    H250320   0.315   4.773  10.109  0.5172  1.2716  1.4483
 8709TIP3   OH250321   1.766   6.362  10.073  0.3696  0.1804 -0.4849
 8709TIP3    H150322   1.808   6.351  10.158  0.4513 -0.9842 -0.6635
 8709TIP3    H250323   1.837   6.351  10.009  0.0245 -0.5898 -0.7469
 8710TIP3   OH250324   0.013   7.158  11.990 -0.3010 -0.0858 -0.3279
 8710TIP3    H150325   0.050   7.219  12.054 -1.1029 -0.6659  0.7249
 8710TIP3    H250326   0.063   7.175  11.909  1.0047  0.4027  0.5388
 8711TIP3   OH250327   2.070   3.601  10.601  0.4000  0.3640  0.6902
 8711TIP3    H150328   2.033   3.633  10.519  0.1100  0.2914  0.7914
 8711TIP3    H250329   1.994   3.572  10.652  0.6729 -0.6115  0.5453
 8712TIP3   OH250330   1.398   4.467  10.709  0.5905 -0.0367 -0.4566
 8712TIP3    H150331   1.461   4.502  10.772 -1.5735  1.2305  1.1743
 8712TIP3    H250332   1.425   4.504  10.625  2.7513 -0.6338 -0.0789
 8713TIP3   OH250333   0.207   4.667  11.478  0.0732 -0.0578  0.7888
 8713TIP3    H150334   0.156   4.680  11.398  0.2552  2.5838  0.9850
 8713TIP3    H250335   0.267   4.596  11.457 -1.5682 -1.1299 -0.5206
 8714TIP3   OH250336   0.855   3.947  11.798  0.2339 -0.7903  0.0865
 8714TIP3    H150337   0.770   3.968  11.837 -0.3779 -2.6802 -0.1556
 8714TIP3    H250338   0.919   3.977  11.863 -0.5921  0.5663  0.3118
 8715TIP3   OH250339   6.984   6.055  11.362  0.8793 -0.4756  0.4405
 8715TIP3    H150340   7.039   5.991  11.316 -0.9419 -1.7812 -0.0247
 8715TIP3    H250341   6.895   6.033  11.336  0.0036  0.6426  2.3202
 8716TIP3   OH250342   1.185   0.238  10.562 -0.3230  0.2209 -0.5576
 8716TIP3    H150343   1.219   0.303  10.501 -0.8163  0.2879 -0.7654
 8716TIP3    H250344   1.135   0.289  10.626  2.0400  0.4356  1.2782
 8717TIP3   OH250345   4.650   6.011  11.698 -0.6513 -0.1074 -0.0496
 8717TIP3    H150346   4.678   5.987  11.787  0.3350 -0.4860 -0.4390
 8717TIP3    H250347   4.578   5.951  11.679  0.1293 -1.0785 -0.0572
 8718TIP3   OH250348   0.755   3.325  11.157 -0.5173  0.3786  0.7808
 8718TIP3    H150349   0.789   3.385  11.223  0.8388 -0.5349  0.9487
 8718TIP3    H250350   0.800   3.349  11.076 -0.0116 -0.3435  0.8343
 8719TIP3   OH250351   3.710   5.545   9.693  0.0501  0.5274  0.2873
 8719TIP3    H150352   3.682   5.456   9.711 -0.6730  0.6420 -0.2382
 8719TIP3    H250353   3.629   5.594   9.682  0.4455  0.9895 -0.6669
 8720TIP3   OH250354   5.662   0.244   9.844  0.0991 -0.2158 -0.1952
 8720TIP3    H150355   5.756   0.246   9.830  0.0026  0.6229 -0.8013
 8720TIP3    H250356   5.641   0.328   9.886 -0.2980 -0.6536  0.5076
 8721TIP3   OH250357   4.410   4.608  11.378  0.4284  0.3423  0.0780
 8721TIP3    H150358   4.417   4.548  11.304 -0.5298 -0.3258  0.5049
 8721TIP3    H250359   4.333   4.662  11.358 -0.1095 -0.1450  0.7817
 8722TIP3   OH250360   2.619   3.671  11.455  0.0968  0.7211 -0.7512
 8722TIP3    H150361   2.555   3.734  11.421 -1.5215 -0.5931 -0.2949
 8722TIP3    H250362   2.621   3.688  11.549 -0.9320 -0.3531 -0.5092
 8723TIP3   OH250363   2.385   6.247  10.740 -0.0442 -0.1505 -0.0752
 8723TIP3    H150364   2.377   6.185  10.667 -2.5606 -0.0425  0.0205
 8723TIP3    H250365   2.386   6.333  10.699 -1.7581 -0.0753 -0.0329
 8724TIP3   OH250366   5.286   7.394  10.712 -0.4579 -0.1105  0.2765
 8724TIP3    H150367   5.345   7.328  10.678 -1.1748 -1.5080  1.6281
 8724TIP3    H250368   5.209   7.345  10.741 -1.9573  1.5605 -0.6723
 8725TIP3   OH250369   6.251   5.677   9.510  0.1719  0.3068  0.1580
 8725TIP3    H150370   6.235   5.769   9.490 -0.1625  0.0105 -1.0122
 8725TIP3    H250371   6.216   5.629   9.434  0.5813 -0.7655  0.6216
 8726TIP3   OH250372   6.540   2.821  11.364  0.2674  0.1310 -0.6901
 8726TIP3    H150373   6.580   2.882  11.302 -0.1470 -0.1697 -1.2523
 8726TIP3    H250374   6.541   2.737  11.320 -0.3743 -0.0114 -0.4410
 8727TIP3   OH250375   4.290   7.114  10.296  0.2997 -0.5849 -0.5224
 8727TIP3    H150376   4.251   7.044  10.245 -1.1296 -0.5795  0.4959
 8727TIP3    H250377   4.345   7.069  10.360  2.1340 -0.5888 -2.0249
 8728TIP3   OH250378   6.355   3.019  11.073  0.3856  0.4596 -0.5597
 8728TIP3    H150379   6.326   2.934  11.108  0.1198  1.2407  1.2340
 8728TIP3    H250380   6.451   3.014  11.075  0.3764  0.4902  0.3333
 8729TIP3   OH250381   6.560   0.052  10.095  0.1841  0.2289  0.0867
 8729TIP3    H150382   6.652   0.078  10.084  0.4593 -1.2647 -1.6217
 8729TIP3    H250383   6.560   0.001  10.176  0.7405  0.6618  0.3752
 8730TIP3   OH250384   6.742   7.096   9.988 -0.3701 -0.1200 -0.3847
 8730TIP3    H150385   6.742   7.039   9.911  1.2403  1.2872 -1.4906
 8730TIP3    H250386   6.674   7.160   9.970 -0.6329 -0.3373 -0.1821
 8731TIP3   OH250387   0.451   3.911  12.197 -0.5744  0.1065  0.4983
 8731TIP3    H150388   0.479   3.965  12.271 -0.7897  1.1283 -0.1479
 8731TIP3    H250389   0.403   3.971  12.140  0.2897 -0.4610 -0.8826
 8732TIP3   OH250390   7.255   4.448  11.586 -0.3712  0.5509 -0.2844
 8732TIP3    H150391   7.250   4.403  11.671  0.6548 -0.0727 -0.5405
 8732TIP3    H250392   7.178   4.415  11.538  0.4186 -1.0708 -0.5129
 8733TIP3   OH250393   3.451   1.404  10.251 -0.1654 -0.3496 -0.6734
 8733TIP3    H150394   3.499   1.487  10.249 -1.3523  0.3510 -2.7626
 8733TIP3    H250395   3.385   1.416  10.319  2.1098 -1.1273  1.8619
 8734TIP3   OH250396   0.084   2.407  10.564 -0.3631  0.3232 -0.6627
 8734TIP3    H150397   0.087   2.501  10.547 -0.3525  0.4401 -0.0387
 8734TIP3    H250398   0.035   2.371  10.491  0.6717  0.6622 -1.5657
 8735TIP3   OH250399   4.661   5.069  10.312  0.7892 -0.0035 -0.4043
 8735TIP3    H150400   4.638   5.154  10.350  0.6651  0.4005 -1.3527
 8735TIP3    H250401   4.579   5.019  10.313  1.2612 -0.8586  1.9432
 8736TIP3   OH250402   5.291   5.000  10.472 -0.1763 -0.2437  0.2115
 8736TIP3    H150403   5.371   4.971  10.515  0.9929  0.8480 -1.1101
 8736TIP3    H250404   5.257   5.070  10.528  0.5268  0.1754  0.1239
 8737TIP3   OH250405   0.047   6.441  12.097 -0.0999 -0.0049  0.3606
 8737TIP3    H150406   0.127   6.411  12.054 -1.9986 -3.1276 -1.3914
 8737TIP3    H250407  -0.013   6.463  12.025 -0.9009  2.3130  1.6163
 8738TIP3   OH250408   7.062   6.200  10.631 -0.6504  0.3980 -0.1424
 8738TIP3    H150409   7.085   6.291  10.611 -0.4681  0.0485 -1.6992
 8738TIP3    H250410   7.091   6.151  10.554 -0.8422 -0.9733  0.6239
 8739TIP3   OH250411   3.595   7.120  10.187 -0.1498 -0.6816 -0.0259
 8739TIP3    H150412   3.535   7.045  10.193  0.5469 -1.1537  1.7357
 8739TIP3    H250413   3.566   7.168  10.109 -2.5658 -1.0930  0.5384
 8740TIP3   OH250414   0.237   1.502  12.335  0.2240 -0.0397  0.0692
 8740TIP3    H150415   0.278   1.509  12.249  0.1132 -0.1720  0.0055
 8740TIP3    H250416   0.143   1.512  12.318  0.2859  1.0371  0.3051
 8741TIP3   OH250417   2.061   1.709  12.253 -0.2251  0.8583  0.0583
 8741TIP3    H150418   2.086   1.679  12.340 -3.0087 -1.9482  0.0903
 8741TIP3    H250419   1.998   1.779  12.268  1.1802  2.1519  0.1580
 8742TIP3   OH250420   0.589   3.307  12.143  0.3634  0.2037 -0.2875
 8742TIP3    H150421   0.575   3.306  12.048 -0.3357 -1.0449 -0.1863
 8742TIP3    H250422   0.566   3.219  12.172 -1.0354  1.0132  1.2750
 8743TIP3   OH250423   2.886   2.924  10.159 -0.0261 -0.2803  0.1219
 8743TIP3    H150424   2.933   2.998  10.120 -2.5253  1.9271  0.9777
 8743TIP3    H250425   2.915   2.923  10.251  2.8205 -2.9188 -0.6318
 8744TIP3   OH250426   3.792   3.794  11.528 -0.2884 -0.4546  0.1939
 8744TIP3    H150427   3.715   3.777  11.583  1.1867  1.0141  2.8805
 8744TIP3    H250428   3.860   3.738  11.564  0.6184  0.1976 -0.4630
 8745TIP3   OH250429   0.797   1.628   9.961 -0.7591 -0.7401 -0.1368
 8745TIP3    H150430   0.892   1.636   9.961 -0.7229 -0.4994  1.8360
 8745TIP3    H250431   0.781   1.534   9.971 -0.7287 -0.7923 -0.5850
 8746TIP3   OH250432   3.304   0.573  11.462 -0.7956  0.1528 -0.0966
 8746TIP3    H150433   3.262   0.658  11.474 -2.4591 -0.2839 -2.0681
 8746TIP3    H250434   3.273   0.521  11.536 -1.0785  0.7925  0.2458
 8747TIP3   OH250435   2.842   6.416  10.121 -0.1795  0.2689  0.3387
 8747TIP3    H150436   2.767   6.472  10.144 -0.5502 -0.2224  0.3375
 8747TIP3    H250437   2.807   6.353  10.058  0.2467  0.0670  0.3015
 8748TIP3   OH250438   0.127   0.534  11.340  0.1503 -0.0018  0.0666
 8748TIP3    H150439   0.170   0.599  11.285  1.3437 -1.7674 -1.1926
 8748TIP3    H250440   0.198   0.492  11.388 -0.5857 -0.4232  0.8309
 8749TIP3   OH250441   1.976   2.038  11.882  0.9847 -0.3565 -0.0118
 8749TIP3    H150442   1.964   2.072  11.793 -0.2216 -1.1014 -0.1675
 8749TIP3    H250443   2.025   2.106  11.927  0.6143  0.5584 -0.9322
 8750TIP3   OH250444   1.906   1.184  10.161  0.3268  0.3386  0.3607
 8750TIP3    H150445   1.860   1.100  10.153 -0.9259  1.0220  0.0219
 8750TIP3    H250446   1.966   1.172  10.234 -1.0346 -0.3449  1.4224
 8751TIP3   OH250447   6.225   1.363  12.823 -0.4595 -0.1079 -0.2009
 8751TIP3    H150448   6.155   1.304  12.851 -1.3452  0.8334 -0.3643
 8751TIP3    H250449   6.292   1.305  12.788 -1.3377 -1.0171 -0.4485
 8752TIP3   OH250450   1.690   2.041  10.864 -0.3710 -0.2393  0.0463
 8752TIP3    H150451   1.777   2.003  10.877 -0.9749 -1.5659  0.2727
 8752TIP3    H250452   1.708   2.130  10.832  1.0934  0.2293  1.9691
 8753TIP3   OH250453   6.262   2.892   9.997  0.4290  0.6768  0.1777
 8753TIP3    H150454   6.354   2.913  10.011  0.2233  0.9250  1.2138
 8753TIP3    H250455   6.259   2.796  10.002  0.5944  0.6794  0.3291
 8754TIP3   OH250456   2.125   0.509  11.306 -0.1503  0.3292  0.1752
 8754TIP3    H150457   2.179   0.442  11.266 -0.3212  1.4823 -2.1177
 8754TIP3    H250458   2.036   0.489  11.278 -0.5834  0.0572  1.6280
 8755TIP3   OH250459   5.316   5.778  10.557 -0.0997 -0.2063  0.1454
 8755TIP3    H150460   5.318   5.682  10.562  0.3348 -0.3031 -1.2567
 8755TIP3    H250461   5.244   5.797  10.496  0.8617  0.2569 -0.8834
 8756TIP3   OH250462   3.102   0.366  11.285 -0.3335 -0.3722 -0.1768
 8756TIP3    H150463   3.147   0.450  11.277  0.2177 -0.6967 -0.6136
 8756TIP3    H250464   3.064   0.367  11.373  1.9619 -0.7568  0.8855
 8757TIP3   OH250465   5.767   0.944   9.988  0.3088 -0.4507 -0.4055
 8757TIP3    H150466   5.763   1.000  10.066  2.9872 -0.1478 -0.3862
 8757TIP3    H250467   5.695   0.882   9.999 -0.2899  0.5096  1.5574
 8758TIP3   OH250468   2.387   5.734  12.001 -0.1716  0.3507  0.2648
 8758TIP3    H150469   2.406   5.646  12.034 -0.7461 -0.4508 -1.4284
 8758TIP3    H250470   2.320   5.768  12.059 -4.3090 -2.6584 -2.2347
 8759TIP3   OH250471   6.220   6.885  12.206  0.4651 -0.1758  0.0072
 8759TIP3    H150472   6.261   6.956  12.157  0.4198 -0.9612 -1.2232
 8759TIP3    H250473   6.253   6.894  12.295  2.0150  0.1886 -0.5816
 8760TIP3   OH250474   7.208   0.657  10.898 -0.3350 -0.8025 -0.4089
 8760TIP3    H150475   7.266   0.673  10.823  2.2357 -2.3394  1.1052
 8760TIP3    H250476   7.179   0.567  10.888 -1.0995 -0.5876 -0.2305
 8761TIP3   OH250477   7.434   0.498  11.113  0.1009  0.0029  0.1808
 8761TIP3    H150478   7.498   0.467  11.176 -0.5810 -0.2672  0.7588
 8761TIP3    H250479   7.482   0.556  11.055  0.8971 -0.3309  0.5012
 8762TIP3   OH250480   5.433   5.467  11.633 -0.1973  0.1628 -0.1700
 8762TIP3    H150481   5.473   5.473  11.719  0.1391  0.4491 -0.3447
 8762TIP3    H250482   5.339   5.474  11.650 -0.1052  0.7458  0.1287
 8763TIP3   OH250483   4.669   1.660  12.186 -0.8784 -0.4367  0.8062
 8763TIP3    H150484   4.635   1.592  12.244 -0.7017 -1.8477 -0.6551
 8763TIP3    H250485   4.760   1.634  12.170 -1.5416 -1.5415 -1.9387
 8764TIP3   OH250486   6.411   5.414  17.914  0.2308 -0.0421 -0.0470
 8764TIP3    H150487   6.416   5.364  17.996 -1.0836 -0.8075 -0.4025
 8764TIP3    H250488   6.502   5.421  17.885  0.8333  1.1360  1.9781
 8765TIP3   OH250489   6.992   5.511   9.495  0.6737  0.4891  0.7222
 8765TIP3    H150490   7.079   5.537   9.524  1.1707  0.0220 -0.3091
 8765TIP3    H250491   6.975   5.565   9.418  1.8159 -2.2129 -1.6037
 8766TIP3   OH250492   6.807   6.275  10.593 -0.3830 -0.3457 -0.0629
 8766TIP3    H150493   6.898   6.246  10.606 -0.5651 -0.5463  0.8685
 8766TIP3    H250494   6.800   6.289  10.499  1.3416  2.0374  0.0504
 8767TIP3   OH250495   5.811   0.745  10.284  0.3484 -0.2950 -0.1259
 8767TIP3    H150496   5.810   0.822  10.341 -0.3430  0.3333 -0.9532
 8767TIP3    H250497   5.724   0.745  10.243  0.9350 -0.5393 -1.4140
 8768TIP3   OH250498   3.398   7.161   9.786  0.1859 -0.0305  0.3085
 8768TIP3    H150499   3.432   7.209   9.711  0.3775  1.6864  1.4397
 8768TIP3    H250500   3.471   7.107   9.816  0.0546 -0.8613 -0.8012
 8769TIP3   OH250501   7.085   1.895  11.636  0.0662 -0.0619  0.3121
 8769TIP3    H150502   7.061   1.942  11.716 -2.6413  0.2323 -0.5999
 8769TIP3    H250503   7.111   1.963  11.575 -2.7055  0.2954 -0.6138
 8770TIP3   OH250504   5.856   1.971  11.397 -0.1100  0.3471  0.3076
 8770TIP3    H150505   5.932   1.975  11.455  0.1285  1.4181 -0.0624
 8770TIP3    H250506   5.842   1.877  11.383  1.0444  0.1314  0.5031
 8771TIP3   OH250507   5.597   3.128  11.671  0.2400 -0.0719 -0.0890
 8771TIP3    H150508   5.596   3.054  11.732  3.3175  0.9931  1.5363
 8771TIP3    H250509   5.616   3.089  11.586 -0.3956 -1.3293  0.3207
 8772TIP3   OH250510   2.174   3.769  11.659 -0.0708  0.1188 -0.4773
 8772TIP3    H150511   2.200   3.692  11.609 -1.1592  0.6454 -1.9248
 8772TIP3    H250512   2.098   3.740  11.710 -0.2101  0.1178 -0.6851
 8773TIP3   OH250513   7.211   0.493  10.578  0.0282  0.1432 -0.1193
 8773TIP3    H150514   7.201   0.587  10.563 -2.9129  0.4717  2.6381
 8773TIP3    H250515   7.281   0.485  10.642  1.0353  0.3076 -1.1801
 8774TIP3   OH250516   6.387   3.932  11.837 -0.1421  0.3217  0.1061
 8774TIP3    H150517   6.307   3.883  11.856  0.2896 -1.1376 -1.6454
 8774TIP3    H250518   6.439   3.873  11.784  0.9023  2.2862 -1.1471
 8775TIP3   OH250519   4.555   1.102  11.882  0.7827  0.2190  0.1084
 8775TIP3    H150520   4.544   1.189  11.919  2.8750  1.0106 -0.9482
 8775TIP3    H250521   4.637   1.070  11.921  0.4600 -0.9368 -0.1311
 8776TIP3   OH250522   6.795   0.620  17.358 -0.5228 -0.1171  0.5249
 8776TIP3    H150523   6.838   0.581  17.435 -0.4058  0.2194  0.6305
 8776TIP3    H250524   6.741   0.549  17.322  0.0013 -0.5005  0.4821
 8777TIP3   OH250525   5.281   0.644  10.673  0.1296 -0.3317 -0.2129
 8777TIP3    H150526   5.264   0.723  10.724 -1.4108 -0.3782 -0.6189
 8777TIP3    H250527   5.309   0.580  10.738  1.1038  0.4470  0.1597
 8778TIP3   OH250528   2.688   1.710  11.527  0.3100  0.3526  0.0639
 8778TIP3    H150529   2.717   1.686  11.615  1.8823  0.8203 -0.2971
 8778TIP3    H250530   2.662   1.802  11.535 -0.5371  0.1050  0.2516
 8779TIP3   OH250531   0.658   7.121  11.052 -0.1950 -0.1906 -0.1641
 8779TIP3    H150532   0.693   7.036  11.025  1.2203  0.8307 -1.7278
 8779TIP3    H250533   0.575   7.100  11.095 -1.4733 -2.1765 -3.2317
 8780TIP3   OH250534   6.722   2.575  11.227  0.0094  0.2814  0.4040
 8780TIP3    H150535   6.677   2.588  11.144  1.1161 -0.6202 -0.3485
 8780TIP3    H250536   6.815   2.571  11.205  0.5583  2.3095  1.9570
 8781TIP3   OH250537   6.628   3.965  12.149  0.2431  0.0274  0.2730
 8781TIP3    H150538   6.648   3.885  12.100 -1.2360  0.2689 -0.7725
 8781TIP3    H250539   6.536   3.956  12.174 -0.7044  2.3870 -1.9131
 8782TIP3   OH250540   6.533   4.533   9.660 -0.3851  0.3197 -0.2690
 8782TIP3    H150541   6.609   4.530   9.602 -0.8317  0.1092 -0.8572
 8782TIP3    H250542   6.561   4.486   9.738  0.4517  1.1761 -0.0204
 8783TIP3   OH250543   5.606   5.180   9.844 -0.3305  0.1201 -0.1164
 8783TIP3    H150544   5.571   5.113   9.785  0.6386 -1.0308  0.5872
 8783TIP3    H250545   5.597   5.143   9.931  2.6416 -0.2646  0.1010
 8784TIP3   OH250546   2.755   1.269  11.838  0.2731 -0.2198  0.3439
 8784TIP3    H150547   2.812   1.195  11.861 -1.1224 -1.0092  1.3995
 8784TIP3    H250548   2.697   1.235  11.771 -0.2191 -0.0098  0.6602
 8785TIP3   OH250549   0.113   0.657  11.612  0.0156 -0.0549 -0.0321
 8785TIP3    H150550   0.091   0.607  11.534  0.9206  1.0802 -1.0528
 8785TIP3    H250551   0.089   0.600  11.685 -0.0030 -1.5029 -1.1376
 8786TIP3   OH250552   4.677   6.515  10.236  0.1275  0.5431 -0.7265
 8786TIP3    H150553   4.632   6.538  10.155 -1.5215  1.0941  0.2936
 8786TIP3    H250554   4.737   6.587  10.252  0.9577  0.1095 -1.7831
 8787TIP3   OH250555   3.482   5.127  10.422 -0.4820  0.2995 -0.5247
 8787TIP3    H150556   3.565   5.157  10.384  0.1814 -1.8427 -0.8570
 8787TIP3    H250557   3.504   5.108  10.513 -0.4026 -0.9874 -0.8033
 8788TIP3   OH250558   2.473   2.858  11.901  0.2042  0.1627  0.1593
 8788TIP3    H150559   2.469   2.945  11.862  0.2022  0.2973  0.4537
 8788TIP3    H250560   2.561   2.852  11.937  0.2765 -0.0413 -0.0544
 8789TIP3   OH250561   5.323   3.584   9.842 -0.0800  0.9008  0.0348
 8789TIP3    H150562   5.358   3.570   9.930  0.0150  0.0801 -0.1300
 8789TIP3    H250563   5.267   3.508   9.826  0.0980  0.9210 -0.7126
 8790TIP3   OH250564   6.087   5.186  11.674  0.1153 -0.5362 -0.1391
 8790TIP3    H150565   6.087   5.169  11.768  1.6649 -1.2508 -0.2317
 8790TIP3    H250566   5.998   5.164  11.645 -0.6711  0.6377  1.2850
 8791TIP3   OH250567   6.150   4.172  10.121  0.6538 -0.1845  0.4436
 8791TIP3    H150568   6.073   4.209  10.165  0.9225  0.1510  0.6256
 8791TIP3    H250569   6.121   4.085  10.094  0.5623 -0.4875  1.4879
 8792TIP3   OH250570   2.605   5.306   9.103 -0.3256 -0.4974 -0.0522
 8792TIP3    H150571   2.581   5.215   9.119 -0.7536 -0.8607 -2.4063
 8792TIP3    H250572   2.675   5.300   9.038 -0.4205  0.8579 -0.2916
 8793TIP3   OH250573   3.199   0.754  12.134  0.2610 -0.7144 -0.4481
 8793TIP3    H150574   3.121   0.724  12.088 -0.7031  2.6370 -1.1988
 8793TIP3    H250575   3.198   0.849  12.126  4.2578 -0.4674 -0.1862
 8794TIP3   OH250576   6.330   6.402  11.991 -0.2882 -0.7352 -0.0638
 8794TIP3    H150577   6.373   6.346  11.926 -0.1261  0.5481 -1.1050
 8794TIP3    H250578   6.338   6.354  12.073  0.9247 -1.6681 -0.6948
 8795TIP3   OH250579   3.109   5.331  11.969 -0.4148  0.0119 -0.0789
 8795TIP3    H150580   3.175   5.299  12.030 -0.0448  0.6885 -0.1145
 8795TIP3    H250581   3.036   5.270  11.979 -0.3353  0.0648  0.9951
 8796TIP3   OH250582   4.350   0.025  10.987  0.1382  0.4098 -0.3073
 8796TIP3    H150583   4.322  -0.022  10.908 -2.1196  1.6885 -0.3594
 8796TIP3    H250584   4.443   0.042  10.974 -0.0848  0.2008 -2.4990
 8797TIP3   OH250585   6.032   4.689  11.865 -0.9886 -0.9623  0.3783
 8797TIP3    H150586   6.109   4.674  11.920 -1.0510 -3.8810 -0.1563
 8797TIP3    H250587   6.018   4.606  11.820 -1.7498  0.8361 -3.0774
 8798TIP3   OH250588   4.538   6.844  11.001 -0.1788 -0.0668  0.3108
 8798TIP3    H150589   4.481   6.856  10.925  0.0273  1.5181  0.3787
 8798TIP3    H250590   4.508   6.908  11.065  0.2139 -0.7821  1.2466
 8799TIP3   OH250591   0.740   0.704  10.253  0.3626 -0.1340  0.0131
 8799TIP3    H150592   0.793   0.725  10.176 -1.1398  0.7148 -0.8241
 8799TIP3    H250593   0.662   0.661  10.218 -0.5022  0.5737  1.0124
 8800TIP3   OH250594   7.016   2.909  10.532 -0.3832  0.6250 -0.1011
 8800TIP3    H150595   6.973   2.992  10.511 -1.5525  0.2853  0.8392
 8800TIP3    H250596   7.109   2.929  10.529 -0.6505  2.0320  0.2936
 8801TIP3   OH250597   0.703   7.293  12.306 -0.2908  0.1673  0.0221
 8801TIP3    H150598   0.633   7.305  12.371 -0.4763  0.9617 -0.3136
 8801TIP3    H250599   0.711   7.378  12.264  0.1369 -0.2235 -0.6967
 8802TIP3   OH250600   0.054   2.884   9.650  0.1243  0.0955 -0.1833
 8802TIP3    H150601   0.047   2.953   9.585  1.5778  2.3417  1.8967
 8802TIP3    H250602   0.130   2.832   9.623 -0.7036 -0.4851 -1.5019
 8803TIP3   OH250603   3.314   1.259  10.722  0.3534 -0.2006  0.2709
 8803TIP3    H150604   3.363   1.330  10.764 -0.3271  0.6670 -0.3542
 8803TIP3    H250605   3.251   1.304  10.665 -0.6289 -1.2927  0.4553
 8804TIP3   OH250606   5.382   5.637  10.305  0.1994 -0.2409  0.1267
 8804TIP3    H150607   5.457   5.622  10.248  0.3793 -0.4013  0.4056
 8804TIP3    H250608   5.327   5.559  10.294  0.4231 -0.4494  0.4647
 8805TIP3   OH250609   2.966   4.974  11.676 -0.1227  0.0818  0.3599
 8805TIP3    H150610   2.977   5.015  11.590  1.3578  1.7016  1.2809
 8805TIP3    H250611   2.920   4.892  11.656 -0.8461  0.9222 -1.8390
 8806TIP3   OH250612   4.256   7.219  12.672 -0.1026 -0.1286 -0.0979
 8806TIP3    H150613   4.295   7.209  12.585  0.2451  1.7720 -0.1988
 8806TIP3    H250614   4.241   7.313  12.681 -1.6783 -0.4576  1.2461
 8807TIP3   OH250615   5.326   0.176  11.841  0.4642 -0.1864 -0.5446
 8807TIP3    H150616   5.357   0.088  11.862 -0.4502 -1.0140 -2.4977
 8807TIP3    H250617   5.274   0.201  11.917  1.0802 -1.1481  0.2246
 8808TIP3   OH250618   2.771   1.115  12.515  1.2545  0.0874 -0.7144
 8808TIP3    H150619   2.821   1.196  12.503  0.0674  0.9616  0.0188
 8808TIP3    H250620   2.702   1.119  12.450  0.9189 -0.1234 -0.3768
 8809TIP3   OH250621   4.429   3.115  11.043 -0.3975 -0.4240 -0.3096
 8809TIP3    H150622   4.470   3.075  10.966  1.3763  0.5974  0.0549
 8809TIP3    H250623   4.457   3.061  11.116  0.8904  0.6322  0.0169
 8810TIP3   OH250624   6.969   2.530  11.086 -0.4228  0.4089  0.3239
 8810TIP3    H150625   7.063   2.546  11.073 -0.1081 -1.3581  0.1726
 8810TIP3    H250626   6.944   2.475  11.012 -1.6879  1.1147  0.1857
 8811TIP3   OH250627   0.078   5.916  12.301  0.0785  0.1439 -0.3821
 8811TIP3    H150628   0.066   6.005  12.269  1.8688  1.4949  2.3194
 8811TIP3    H250629   0.171   5.899  12.291  0.3050 -0.2087  1.8705
 8812TIP3   OH250630   6.619   5.962   9.959 -0.1659  0.5361 -0.3736
 8812TIP3    H150631   6.560   5.891   9.933 -0.6677  0.6376  0.4557
 8812TIP3    H250632   6.695   5.917   9.995 -0.9502  0.3972  1.1765
 8813TIP3   OH250633   5.594   1.116  10.678  0.6045  0.0393 -0.3789
 8813TIP3    H150634   5.631   1.116  10.766  0.4889 -0.5390 -0.3262
 8813TIP3    H250635   5.504   1.084  10.690  0.4339  0.4055 -0.6467
 8814TIP3   OH250636   6.432   3.946  10.777  0.2925  0.4691  0.0232
 8814TIP3    H150637   6.487   4.024  10.782  1.0543 -0.1049  1.2957
 8814TIP3    H250638   6.493   3.875  10.759 -0.4052  0.1602 -1.2324
 8815TIP3   OH250639   1.740   1.528  12.150 -0.1885 -0.0066  0.0720
 8815TIP3    H150640   1.725   1.606  12.203 -1.6506 -0.3550  0.2416
 8815TIP3    H250641   1.756   1.458  12.214 -1.2074 -0.2806  0.0472
 8816TIP3   OH250642   6.741   0.240  11.165 -0.2789  0.3780 -0.0852
 8816TIP3    H150643   6.669   0.267  11.222 -0.5100 -0.2569 -0.0655
 8816TIP3    H250644   6.770   0.321  11.124 -0.6095  0.7326  0.3602
 8817TIP3   OH250645   6.873   1.802  12.323  0.1144  0.1649 -0.1976
 8817TIP3    H150646   6.841   1.833  12.408 -0.6339  1.7366 -1.0244
 8817TIP3    H250647   6.863   1.706  12.328 -3.0239  0.4058  0.3201
 8818TIP3   OH250648   1.890   2.029  10.230  0.2062 -0.1962  0.2875
 8818TIP3    H150649   1.922   1.939  10.223 -0.1159 -0.2732 -0.2289
 8818TIP3    H250650   1.795   2.020  10.237  0.0009  0.1681 -1.5673
 8819TIP3   OH250651   4.796   6.361  11.777 -0.4546 -0.0569 -0.9806
 8819TIP3    H150652   4.728   6.341  11.842 -0.0741  2.1428  0.1685
 8819TIP3    H250653   4.870   6.392  11.829  0.3936  0.3502 -2.3995
 8820TIP3   OH250654   5.009   1.472  11.593  0.4968 -0.2547 -0.1452
 8820TIP3    H150655   4.978   1.424  11.516  0.1892  0.6748 -0.6299
 8820TIP3    H250656   4.960   1.554  11.590 -1.2634 -1.1274  2.3740
 8821TIP3   OH250657   2.814   4.806  11.972  0.0368  0.1079 -0.0046
 8821TIP3    H150658   2.726   4.773  11.950  0.1283 -0.1577  0.0263
 8821TIP3    H250659   2.804   4.901  11.971 -0.6170  0.0858  1.4833
 8822TIP3   OH250660   6.509   1.653  10.087  0.2351  0.4421  0.6073
 8822TIP3    H150661   6.433   1.607  10.122  0.3817  0.4090  0.8833
 8822TIP3    H250662   6.573   1.584  10.069  0.6915  0.5837  1.6098
 8823TIP3   OH250663   3.107   0.377  11.961  0.4234  0.0474  0.1012
 8823TIP3    H150664   3.077   0.445  12.021  2.4669 -0.1501  1.4282
 8823TIP3    H250665   3.084   0.295  12.004 -0.8036 -0.1401 -0.8532
 8824TIP3   OH250666   0.597   0.850  12.405 -0.3443 -0.2443 -0.0061
 8824TIP3    H150667   0.683   0.862  12.444 -0.5294 -1.7267  0.9266
 8824TIP3    H250668   0.582   0.756  12.408 -2.3697  0.0501  0.6666
 8825TIP3   OH250669   7.072   4.887  11.253  0.2978  0.2631 -0.5413
 8825TIP3    H150670   7.085   4.939  11.333 -0.4439  1.5934 -1.2661
 8825TIP3    H250671   7.139   4.818  11.259  0.1028  0.1806  1.3365
 8826TIP3   OH250672   3.785   5.280  11.467  0.2746 -0.6603  0.1559
 8826TIP3    H150673   3.864   5.256  11.517 -1.0757 -1.5505  1.9751
 8826TIP3    H250674   3.713   5.267  11.529 -1.2393  1.1395 -1.1149
 8827TIP3   OH250675   4.382   0.374  11.162  0.3027 -0.3051 -0.1453
 8827TIP3    H150676   4.380   0.371  11.066 -2.0825 -0.7425 -0.1562
 8827TIP3    H250677   4.372   0.283  11.189 -1.3543  0.0171  0.4510
 8828TIP3   OH250678   5.934   7.019  12.879  0.1683  0.1033  0.0189
 8828TIP3    H150679   6.011   6.979  12.920  0.5080 -0.7607 -1.3986
 8828TIP3    H250680   5.860   6.976  12.922  0.4998 -0.2430  0.2553
 8829TIP3   OH250681   4.023   4.448  10.618 -0.1048  0.1787 -0.1359
 8829TIP3    H150682   4.117   4.459  10.627  0.6915 -0.3211 -5.0543
 8829TIP3    H250683   4.007   4.355  10.634  1.0560 -0.6118 -2.9763
 8830TIP3   OH250684   5.524   0.318  11.744  0.0342  0.2720  0.2820
 8830TIP3    H150685   5.492   0.404  11.717 -0.2823  0.7820  2.1873
 8830TIP3    H250686   5.447   0.273  11.778  0.5862  0.0355  1.2474
 8831TIP3   OH250687   5.333   3.004  11.659  0.6055 -0.5858 -0.1439
 8831TIP3    H150688   5.338   3.000  11.755  0.9429 -0.8956 -0.1705
 8831TIP3    H250689   5.344   3.096  11.638  2.3328 -0.7119  0.0264
 8832TIP3   OH250690   0.319   5.455  10.647  0.3238  0.2126 -0.5387
 8832TIP3    H150691   0.345   5.474  10.556  0.9823 -0.2014 -0.4466
 8832TIP3    H250692   0.253   5.386  10.639  0.2083  0.3432 -0.7166
 8833TIP3   OH250693   5.922   3.519  10.753  0.5689 -0.3957  1.0257
 8833TIP3    H150694   6.007   3.479  10.735  0.3998 -0.1178 -0.5626
 8833TIP3    H250695   5.868   3.447  10.786  0.9380 -0.9653  0.4253
 8834TIP3   OH250696   2.727   1.560  11.784  0.1732 -0.4339  0.4414
 8834TIP3    H150697   2.761   1.471  11.794 -1.0311 -0.7755  1.8990
 8834TIP3    H250698   2.660   1.567  11.851  0.0420  1.4950  0.1547
 8835TIP3   OH250699   5.559   5.993  10.227 -0.1792 -0.3727 -0.3285
 8835TIP3    H150700   5.651   5.970  10.238  0.3185  2.3768  2.7640
 8835TIP3    H250701   5.560   6.064  10.162 -0.1717 -0.6815 -0.6643
 8836TIP3   OH250702   4.679   0.983  11.396  0.0705  0.0617  0.3312
 8836TIP3    H150703   4.612   0.990  11.463  1.2714  1.5797  1.4547
 8836TIP3    H250704   4.650   1.043  11.327 -1.3087 -1.7120 -0.7277
 8837TIP3   OH250705   2.795   5.309  11.978 -0.1513 -0.0754  0.2490
 8837TIP3    H150706   2.741   5.279  12.050 -0.8744 -0.2314 -0.3479
 8837TIP3    H250707   2.824   5.396  12.004 -2.4630  0.9399 -0.3234
 8838TIP3   OH250708   2.831   4.743  11.582  0.0230  0.1883  0.8737
 8838TIP3    H150709   2.826   4.656  11.622 -0.2475 -0.1124  0.2112
 8838TIP3    H250710   2.907   4.738  11.524 -0.4595  0.1328  0.2387
 8839TIP3   OH250711   2.094   3.452  10.904  0.1706  0.1367 -0.4958
 8839TIP3    H150712   2.081   3.547  10.900  1.2457  0.4183  1.3083
 8839TIP3    H250713   2.188   3.441  10.918 -0.3942 -0.8690  4.0733
 8840TIP3   OH250714   3.979   2.179  10.333  0.2056  0.1834 -0.5180
 8840TIP3    H150715   3.919   2.251  10.314  0.1486 -0.1149 -1.5502
 8840TIP3    H250716   3.934   2.126  10.399  0.0766  0.8719 -0.0457
 8841TIP3   OH250717   4.657   5.531  11.122  0.0617  0.1917 -0.1549
 8841TIP3    H150718   4.682   5.617  11.089  1.5597 -0.1136  0.0745
 8841TIP3    H250719   4.616   5.487  11.048 -0.2218  0.9184 -0.4281
 8842TIP3   OH250720   1.925   4.294  10.202 -0.3479  0.3779 -0.3450
 8842TIP3    H150721   1.998   4.232  10.198 -0.4857  0.2710 -1.6065
 8842TIP3    H250722   1.869   4.261  10.271  1.7882  1.6141  2.1475
 8843TIP3   OH250723   5.241   7.098  10.536 -0.2488  0.4357  0.1248
 8843TIP3    H150724   5.194   7.062  10.460  0.7762 -0.5492 -0.0527
 8843TIP3    H250725   5.174   7.149  10.583 -1.5686 -1.1326  0.0157
 8844TIP3   OH250726   3.029   1.755  11.436  0.2165 -0.0270 -0.1594
 8844TIP3    H150727   3.069   1.834  11.473 -2.5868  1.2589  0.4359
 8844TIP3    H250728   3.072   1.744  11.351  0.1198  2.7222 -0.6689
 8845TIP3   OH250729   2.445   6.613  10.805 -0.5786  0.0709  0.0135
 8845TIP3    H150730   2.507   6.567  10.861 -0.1848  0.5246 -0.0470
 8845TIP3    H250731   2.472   6.704  10.809 -1.8410  0.4261  0.7757
 8846TIP3   OH250732   3.932   5.003  12.487 -0.0747  0.2320 -0.7322
 8846TIP3    H150733   3.873   5.036  12.420  0.5869 -0.3426 -1.6220
 8846TIP3    H250734   4.020   5.025  12.454  0.2225  1.0893  0.5647
 8847TIP3   OH250735   0.825   1.227  11.443  0.1114  0.5656 -0.1391
 8847TIP3    H150736   0.873   1.201  11.365  1.7426  0.2614  0.9191
 8847TIP3    H250737   0.866   1.310  11.470  0.3020  0.1237  0.9883
 8848TIP3   OH250738   4.085   6.914  10.502 -0.3517 -0.0665 -0.4033
 8848TIP3    H150739   4.077   6.996  10.452 -0.9385  1.7153  2.3758
 8848TIP3    H250740   4.072   6.940  10.593 -0.5837 -3.3046  0.6238
 8849TIP3   OH250741   0.057   2.845  10.145 -0.1449 -0.3798 -0.5309
 8849TIP3    H150742   0.129   2.869  10.204 -1.2537 -0.6856  1.0177
 8849TIP3    H250743   0.063   2.907  10.073  0.9510  0.3613  0.1686
 8850TIP3   OH250744   2.418   4.902  12.111 -0.1727 -0.0415  0.3028
 8850TIP3    H150745   2.504   4.939  12.130 -0.1952  1.3438 -1.9419
 8850TIP3    H250746   2.356   4.961  12.156 -0.0348  0.0940  0.3154
 8851TIP3   OH250747   4.711   6.802   9.968  0.1869 -0.1057 -0.5948
 8851TIP3    H150748   4.672   6.833   9.886  0.6271 -0.0211 -0.7759
 8851TIP3    H250749   4.645   6.744  10.006 -0.2070  0.2143 -0.7826
 8852TIP3   OH250750   3.847   4.903  10.610 -0.1946 -0.1255  0.1950
 8852TIP3    H150751   3.821   4.836  10.546  0.8157  0.2837 -0.6751
 8852TIP3    H250752   3.927   4.940  10.573 -1.0235  1.9516  0.3804
 8853TIP3   OH250753   2.330   2.670  10.916 -0.6031 -0.0729  0.3291
 8853TIP3    H150754   2.348   2.709  10.830  1.9928 -0.6549  0.5146
 8853TIP3    H250755   2.326   2.576  10.899 -0.6030 -0.1516  0.7543
 8854TIP3   OH250756   5.444   4.647  11.352  0.0308 -0.3555  0.1656
 8854TIP3    H150757   5.361   4.613  11.318 -0.3681 -1.4526  2.0590
 8854TIP3    H250758   5.473   4.710  11.286 -2.1071 -0.2157 -0.7355
 8855TIP3   OH250759   5.169   4.547  10.795 -0.0726 -0.4957  0.5748
 8855TIP3    H150760   5.132   4.494  10.865  0.0195 -0.4436  0.6629
 8855TIP3    H250761   5.216   4.617  10.840  0.1911 -0.6014  0.4614
 8856TIP3   OH250762   7.243   1.458  11.885  0.5358 -0.4872 -0.3921
 8856TIP3    H150763   7.245   1.553  11.869  0.2651 -0.5940 -1.1042
 8856TIP3    H250764   7.182   1.424  11.820  1.6731 -1.3200 -1.0514
 8857TIP3   OH250765   6.963   1.989  10.573 -0.0599  0.1414 -0.6220
 8857TIP3    H150766   7.011   1.909  10.595 -1.3787 -1.1135 -2.0000
 8857TIP3    H250767   6.911   2.008  10.650  0.1374 -0.4469 -0.3362
 8858TIP3   OH250768   1.162   4.366  10.882 -0.5981 -0.5757  0.3678
 8858TIP3    H150769   1.257   4.375  10.874 -0.5969  0.2287  1.1496
 8858TIP3    H250770   1.126   4.422  10.813 -0.5089 -0.9881 -0.0179
 8859TIP3   OH250771   3.442   0.891   9.572  0.7916 -0.1671  0.4570
 8859TIP3    H150772   3.505   0.951   9.612  0.5530  1.9063 -2.0140
 8859TIP3    H250773   3.362   0.943   9.563  0.0427 -1.3958 -0.2495
 8860TIP3   OH250774   5.326   3.322  10.576  0.4526  0.8915 -0.6185
 8860TIP3    H150775   5.242   3.323  10.530 -0.0607  0.1732  0.2719
 8860TIP3    H250776   5.372   3.246  10.540 -0.5155 -0.5093  0.9905
 8861TIP3   OH250777   6.672   1.104  11.906 -0.0784  0.4158  0.0066
 8861TIP3    H150778   6.752   1.102  11.958 -0.0939  0.9797  0.0669
 8861TIP3    H250779   6.603   1.124  11.970 -0.6135 -2.1352  0.3360
 8862TIP3   OH250780   2.285   3.148  11.617  0.1002  0.1060  0.2965
 8862TIP3    H150781   2.313   3.058  11.598 -2.1746 -0.3791 -1.1522
 8862TIP3    H250782   2.313   3.163  11.708  2.3451 -1.2718 -0.0781
 8863TIP3   OH250783   1.603   0.576  11.243 -0.2925  0.2952  0.5331
 8863TIP3    H150784   1.511   0.554  11.225 -0.5386  2.2232 -0.9124
 8863TIP3    H250785   1.601   0.669  11.266  1.3886  0.6630 -0.6294
 8864TIP3   OH250786   2.560   6.255  11.104  0.2120 -0.1232 -0.0254
 8864TIP3    H150787   2.466   6.274  11.100  0.0777 -0.7033  0.3070
 8864TIP3    H250788   2.566   6.162  11.083  0.4336 -0.8034  2.6682
 8865TIP3   OH250789   2.194   5.405  10.905 -0.0623  0.0210 -0.1498
 8865TIP3    H150790   2.163   5.399  10.996  0.2814  2.2075  0.1634
 8865TIP3    H250791   2.280   5.365  10.907  0.0170  0.2090  0.5466
 8866TIP3   OH250792   2.975   7.271  10.018  0.3004 -0.0514 -0.4270
 8866TIP3    H150793   2.932   7.186  10.014 -0.2890  0.2263 -0.0952
 8866TIP3    H250794   3.063   7.253  10.051 -0.2696 -0.3730  0.9725
 8867TIP3   OH250795   3.936   6.427  11.430 -0.5676 -0.2101  0.1492
 8867TIP3    H150796   3.960   6.336  11.416 -0.8315 -0.0671 -1.4577
 8867TIP3    H250797   3.917   6.461  11.342 -1.0838  1.2214  0.7736
 8868TIP3   OH250798   0.122   2.952  10.546 -0.1270  0.8408  0.0862
 8868TIP3    H150799   0.190   3.020  10.555 -0.5270  1.4148 -1.0983
 8868TIP3    H250800   0.154   2.895  10.476  0.7558 -0.9029  1.8226
 8869TIP3   OH250801   0.183   4.086  10.635 -0.4755 -0.5440  0.0302
 8869TIP3    H150802   0.152   3.996  10.629 -0.8533 -0.6173  2.1993
 8869TIP3    H250803   0.182   4.118  10.545  0.6620 -3.0075 -0.9460
 8870TIP3   OH250804   1.937   7.041  10.914 -1.0698 -0.3007  0.6305
 8870TIP3    H150805   1.978   6.965  10.956 -0.1135 -1.2663 -1.8623
 8870TIP3    H250806   2.009   7.104  10.905 -1.0491 -0.4421 -0.2620
 8871TIP3   OH250807   3.437   5.322  11.904 -0.2842 -0.2248 -0.1029
 8871TIP3    H150808   3.465   5.346  11.993 -0.8184 -0.7989  0.2322
 8871TIP3    H250809   3.442   5.227  11.903  1.5642 -0.1595 -1.3328
 8872TIP3   OH250810   6.662   0.251  12.040 -0.4694  0.1988 -0.2832
 8872TIP3    H150811   6.746   0.248  12.085 -0.3412 -0.6531 -0.5692
 8872TIP3    H250812   6.684   0.263  11.948 -0.7247  1.7158 -0.1690
 8873TIP3   OH250813   0.070   2.659  11.527 -0.2167  0.3878  0.0100
 8873TIP3    H150814   0.132   2.599  11.567 -1.6576  0.5673  2.7977
 8873TIP3    H250815   0.075   2.739  11.581 -2.4789  0.5464  0.1007
 8874TIP3   OH250816   6.011   1.697  10.297 -0.5793 -0.2139  0.5980
 8874TIP3    H150817   6.009   1.614  10.345  0.3073  0.3319  1.6299
 8874TIP3    H250818   6.028   1.672  10.206 -1.9731 -1.2526  0.5866
 8875TIP3   OH250819   0.114   4.521  10.598 -0.1508 -0.3759  0.0364
 8875TIP3    H150820   0.020   4.516  10.582 -0.2222  1.2780 -0.2699
 8875TIP3    H250821   0.148   4.566  10.520  0.6576  0.4443  0.8450
 8876TIP3   OH250822   3.530   6.001  10.076  0.1577 -0.3934  0.0268
 8876TIP3    H150823   3.456   5.984  10.018 -0.9562  1.7795  0.6802
 8876TIP3    H250824   3.502   5.967  10.161 -0.3668  0.8753  0.3916
 8877TIP3   OH250825   3.370   2.076  10.022  0.5279 -0.3658  0.8312
 8877TIP3    H150826   3.444   2.043   9.970  0.5286 -0.3855  0.8439
 8877TIP3    H250827   3.379   2.171  10.019  0.8156 -0.3787  1.2136
 8878TIP3   OH250828   0.454   5.050  10.087  0.3138 -0.3115  0.0878
 8878TIP3    H150829   0.429   4.959  10.072  1.2784 -0.8232  1.4192
 8878TIP3    H250830   0.505   5.049  10.168  0.3060  1.4262  0.1724
 8879TIP3   OH250831   3.507   4.032  10.801 -0.1002  0.7286  0.2352
 8879TIP3    H150832   3.564   4.032  10.878 -0.4530 -0.4333  0.5198
 8879TIP3    H250833   3.419   4.017  10.835  0.0142 -2.2661 -0.5054
 8880TIP3   OH250834   2.708   2.163  10.885 -0.2229  0.5344  0.0671
 8880TIP3    H150835   2.654   2.242  10.897  2.2985  2.2905  0.6301
 8880TIP3    H250836   2.727   2.161  10.792  0.3450  1.0635  0.1668
 8881TIP3   OH250837   0.879   5.981   9.783  0.2370  0.4624  0.3444
 8881TIP3    H150838   0.921   5.996   9.868  0.8017  1.1367 -0.0575
 8881TIP3    H250839   0.785   5.989   9.802  0.3143 -0.1909  1.0635
 8882TIP3   OH250840   0.879   2.050  10.781  0.4020  0.6386 -0.0579
 8882TIP3    H150841   0.906   2.100  10.858 -0.7543 -0.4954  1.1362
 8882TIP3    H250842   0.783   2.052  10.783  0.3473 -0.1368 -0.9790
 8883TIP3   OH250843   1.256   1.503  10.449 -0.1152 -0.7668 -0.1089
 8883TIP3    H150844   1.329   1.558  10.420 -0.5131 -0.0457  0.1980
 8883TIP3    H250845   1.208   1.559  10.511 -1.0921 -1.1192 -0.5312
 8884TIP3   OH250846   5.738   5.730   9.906  0.2164  0.0629 -0.1129
 8884TIP3    H150847   5.802   5.794   9.874  2.1870 -1.5786  0.2721
 8884TIP3    H250848   5.667   5.732   9.842  0.2889  2.4843 -0.1817
 8885TIP3   OH250849   6.284   4.404   9.681 -0.2444 -0.5106 -0.3046
 8885TIP3    H150850   6.247   4.425   9.595 -1.4541 -1.8596 -0.1433
 8885TIP3    H250851   6.375   4.432   9.674 -0.8229  1.3147 -1.3069
 8886TIP3   OH250852   1.236   4.487  11.332 -0.2907  0.6770 -0.1253
 8886TIP3    H150853   1.218   4.490  11.238  2.3287  2.3095 -0.6706
 8886TIP3    H250854   1.205   4.401  11.360 -1.1538  0.1581 -2.4549
 8887TIP3   OH250855   3.356   6.289  10.503 -0.1116 -0.5388 -0.6761
 8887TIP3    H150856   3.398   6.289  10.589  1.0118  1.1731 -1.1639
 8887TIP3    H250857   3.265   6.266  10.520 -0.3102  1.3789  1.2118
 8888TIP3   OH250858   3.987   1.653  11.369  0.2773  0.1842 -0.0981
 8888TIP3    H150859   3.914   1.670  11.429 -0.4687 -0.2485 -0.8531
 8888TIP3    H250860   4.064   1.688  11.414 -0.4485  0.9917  0.5568
 8889TIP3   OH250861   6.143   4.444  12.030 -0.3442 -0.4418  0.0840
 8889TIP3    H150862   6.088   4.426  11.954  0.4258 -0.7637 -0.4108
 8889TIP3    H250863   6.212   4.378  12.026  2.3032  2.1293 -1.5182
 8890TIP3   OH250864   7.362   5.406  11.650 -0.1712  0.0248 -0.2827
 8890TIP3    H150865   7.338   5.498  11.641 -1.2565 -0.2481 -0.2503
 8890TIP3    H250866   7.280   5.358  11.641  0.3324 -0.9240  0.0225
 8891TIP3   OH250867   2.792   4.099  10.399 -0.0929 -0.9138  0.3592
 8891TIP3    H150868   2.817   4.181  10.442  0.1152 -1.1842  0.7542
 8891TIP3    H250869   2.868   4.042  10.408 -0.6490 -1.5594  1.1206
 8892TIP3   OH250870   1.707   4.016  11.253  0.4276 -0.0943  0.2576
 8892TIP3    H150871   1.756   4.097  11.235  1.7419 -0.5810  1.4603
 8892TIP3    H250872   1.753   3.976  11.327 -0.1901 -1.9614 -0.3154
 8893TIP3   OH250873   2.204   7.165  10.934  0.0448 -0.5679  0.0245
 8893TIP3    H150874   2.234   7.177  11.025 -0.3536  1.1747 -0.0566
 8893TIP3    H250875   2.272   7.207  10.881  0.4063 -1.8003 -0.5397
 8894TIP3   OH250876   5.623   4.574  11.640  0.3008  0.6583 -0.3676
 8894TIP3    H150877   5.683   4.501  11.654 -0.8206 -0.4775 -1.2320
 8894TIP3    H250878   5.590   4.595  11.728  0.4052 -0.0905 -0.1410
 8895TIP3   OH250879   1.395   0.702  12.016  0.2908 -0.1287 -0.1846
 8895TIP3    H150880   1.389   0.679  12.108  0.5112  1.1043  0.1502
 8895TIP3    H250881   1.415   0.619  11.972  0.5974 -0.6489  0.9080
 8896TIP3   OH250882   2.937   6.676  10.743  0.4574 -0.3362 -0.3713
 8896TIP3    H150883   3.017   6.646  10.701  0.7379 -0.6035  0.3463
 8896TIP3    H250884   2.889   6.596  10.764  1.1705 -0.3266  1.4788
 8897TIP3   OH250885   6.603   6.796   9.982  0.2776  0.1989  0.3064
 8897TIP3    H150886   6.642   6.710   9.999 -0.6557 -0.4151 -0.5626
 8897TIP3    H250887   6.618   6.811   9.888 -1.6213 -0.0971 -0.0775
 8898TIP3   OH250888   3.869   5.811  11.148 -0.1336  0.4357  0.2420
 8898TIP3    H150889   3.954   5.847  11.120  0.2240  0.6593  1.5425
 8898TIP3    H250890   3.814   5.888  11.159 -0.0332  0.4186  0.8920
 8899TIP3   OH250891   0.516   1.292  10.132  0.5351 -0.4921 -0.2498
 8899TIP3    H150892   0.581   1.257  10.193  0.6609  1.7017  0.9727
 8899TIP3    H250893   0.474   1.363  10.180 -2.3293 -1.3525 -1.2703
 8900TIP3   OH250894   0.261   1.577  12.080 -0.3001 -0.5251  0.9739
 8900TIP3    H150895   0.250   1.672  12.077  1.9182 -0.2218 -1.4289
 8900TIP3    H250896   0.191   1.542  12.026 -0.9689 -0.2708  1.6581
 8901TIP3   OH250897   1.148   2.726  10.657  0.3838 -0.4467 -0.5535
 8901TIP3    H150898   1.239   2.703  10.677  0.2384  0.6204  1.6881
 8901TIP3    H250899   1.154   2.807  10.608  0.6475 -0.0687  0.0904
 8902TIP3   OH250900   5.516   1.850  12.060  0.0250  0.3144 -0.4413
 8902TIP3    H150901   5.442   1.901  12.094 -0.2159  0.4144 -1.0988
 8902TIP3    H250902   5.479   1.800  11.987  0.1346 -1.2056  0.5017
 8903TIP3   OH250903   1.199   5.415  10.632 -0.0648 -0.3743 -0.6598
 8903TIP3    H150904   1.122   5.373  10.593  0.1957 -0.5125 -1.0361
 8903TIP3    H250905   1.249   5.342  10.669 -1.3645 -0.0661  1.9086
 8904TIP3   OH250906   7.268   2.351  11.748 -0.6133  0.2996  0.5897
 8904TIP3    H150907   7.263   2.431  11.696  0.5775  0.1876  0.2516
 8904TIP3    H250908   7.212   2.367  11.824 -0.0561  1.6322  0.7518
 8905TIP3   OH250909   1.099   0.479  10.654  0.2941  0.3820 -0.5981
 8905TIP3    H150910   1.013   0.495  10.693  1.9038  1.8491  2.7679
 8905TIP3    H250911   1.162   0.503  10.723  3.4415 -0.4788 -2.9160
 8906TIP3   OH250912   6.798   4.191  11.480  0.2507 -0.4841 -0.1871
 8906TIP3    H150913   6.797   4.106  11.437  1.0355 -0.0205 -1.1767
 8906TIP3    H250914   6.711   4.227  11.465 -0.5222 -1.6083  1.3411
 8907TIP3   OH250915   1.433   5.089  11.357  0.3193 -0.0400 -0.1917
 8907TIP3    H150916   1.389   5.113  11.438  1.4513 -1.4542  0.9146
 8907TIP3    H250917   1.517   5.135  11.361 -0.6801  2.1169 -1.9621
 8908TIP3   OH250918   2.301   4.981  11.730 -0.1925  0.0054 -0.1991
 8908TIP3    H150919   2.326   5.063  11.686 -1.8924  0.7854  0.2146
 8908TIP3    H250920   2.212   4.963  11.699 -1.0745  0.0501  2.1196
 8909TIP3   OH250921   5.365   4.139  12.168 -0.5056 -0.1848 -0.4256
 8909TIP3    H150922   5.338   4.049  12.187 -0.2469  0.1704  1.8868
 8909TIP3    H250923   5.289   4.178  12.125 -1.1300 -1.1049 -0.1944
 8910TIP3   OH250924   4.251   6.442  10.068  0.3950  0.0993 -0.4873
 8910TIP3    H150925   4.249   6.535  10.045 -1.5130  0.4500  0.9040
 8910TIP3    H250926   4.304   6.438  10.148 -1.4629  0.3719  0.8038
 8911TIP3   OH250927   1.092   6.566  12.370 -0.4650 -0.1267 -0.2487
 8911TIP3    H150928   1.090   6.660  12.356 -2.9336  0.0975  1.0632
 8911TIP3    H250929   1.077   6.555  12.464  1.2003 -1.8302 -0.1116
 8912TIP3   OH250930   6.653   4.279  11.077 -0.5940 -0.4739  0.1028
 8912TIP3    H150931   6.714   4.208  11.057  0.9416  0.6740  0.4142
 8912TIP3    H250932   6.689   4.319  11.157 -1.8045  0.2173  0.3229
 8913TIP3   OH250933   2.834   3.053  11.214  0.2938 -0.1322  0.2021
 8913TIP3    H150934   2.786   2.973  11.191  0.4798  0.3652 -2.2410
 8913TIP3    H250935   2.906   3.057  11.151  0.9040  1.4379  0.9359
 8914TIP3   OH250936   3.913   0.073   9.693  0.3488  0.1730  0.0648
 8914TIP3    H150937   4.008   0.086   9.688  0.2483  0.3809 -2.2134
 8914TIP3    H250938   3.877   0.161   9.704  0.3126  0.5550 -2.4869
 8915TIP3   OH250939   5.886   4.080  11.250 -0.0369  0.0779 -0.3196
 8915TIP3    H150940   5.838   4.006  11.286  2.5928 -2.1221 -0.9651
 8915TIP3    H250941   5.883   4.146  11.319 -0.0015 -1.7908  1.5886
 8916TIP3   OH250942   6.344   4.900   9.489 -0.7077  0.2055  0.4366
 8916TIP3    H150943   6.346   4.837   9.561 -1.7104  0.3189  0.5788
 8916TIP3    H250944   6.276   4.867   9.430 -0.1482  0.3110 -0.2728
 8917TIP3   OH250945   2.075   2.411  10.120 -0.4002 -0.2135 -0.0265
 8917TIP3    H150946   1.988   2.435  10.088 -0.2955 -0.8845 -0.8857
 8917TIP3    H250947   2.058   2.348  10.190 -0.6198 -1.1306 -0.8691
 8918TIP3   OH250948   1.084   2.821  11.339 -0.0679 -0.0825  0.0063
 8918TIP3    H150949   1.079   2.915  11.351 -0.3990 -0.1330  0.2825
 8918TIP3    H250950   0.993   2.792  11.335  0.0303 -0.3793 -0.1764
 8919TIP3   OH250951   5.483   0.549  11.622 -0.2676  0.3762 -0.2263
 8919TIP3    H150952   5.571   0.583  11.636 -0.6856  1.3542  0.1228
 8919TIP3    H250953   5.441   0.614  11.565 -1.2619  0.7757  0.9194
 8920TIP3   OH250954   4.823   0.602  11.775  0.3579  0.0459 -0.2072
 8920TIP3    H150955   4.872   0.654  11.840  1.6414 -1.8313  0.4167
 8920TIP3    H250956   4.788   0.528  11.825 -0.4045 -0.3367 -1.2804
 8921TIP3   OH250957   4.110   2.741  10.423 -0.6723 -0.2014  0.5112
 8921TIP3    H150958   4.081   2.831  10.440 -0.7415 -0.0396 -0.3835
 8921TIP3    H250959   4.044   2.686  10.464 -1.8739  0.1663 -0.8642
 8922TIP3   OH250960   5.661   7.176  10.379 -0.4622 -0.0784  0.0294
 8922TIP3    H150961   5.610   7.196  10.301 -1.1656 -1.7380  0.0253
 8922TIP3    H250962   5.601   7.191  10.452 -0.7317 -1.2772  0.0695
 8923TIP3   OH250963   1.826   3.648  10.740  0.3874 -0.4038  0.2546
 8923TIP3    H150964   1.813   3.738  10.711 -0.1240 -0.4724  0.2635
 8923TIP3    H250965   1.830   3.654  10.836 -0.7018 -0.5128  0.3176
 8924TIP3   OH250966   1.188   1.093  10.989  0.0964 -0.1375 -0.5645
 8924TIP3    H150967   1.170   1.005  11.024  0.1830 -0.0327 -0.2563
 8924TIP3    H250968   1.196   1.148  11.067 -0.7458  0.3002 -0.7722
 8925TIP3   OH250969   0.047   6.381  11.294  1.0759  0.7548 -0.8757
 8925TIP3    H150970   0.107   6.416  11.228  0.6338  1.0708 -1.1149
 8925TIP3    H250971  -0.037   6.376  11.250  1.1219 -0.6108 -0.8394
 8926TIP3   OH250972   2.834   6.428  10.759  0.4521 -0.3807 -0.1494
 8926TIP3    H150973   2.770   6.457  10.825  1.6251  2.3805 -0.0527
 8926TIP3    H250974   2.802   6.343  10.731 -2.3269  0.1025  1.0932
 8927TIP3   OH250975   1.416   6.578  10.651 -0.1816 -0.6136  0.0626
 8927TIP3    H150976   1.350   6.511  10.669 -2.7863  1.8626  0.4495
 8927TIP3    H250977   1.408   6.639  10.724  1.3509  0.6944 -0.7995
 8928TIP3   OH250978   3.355   0.331  10.934 -0.2806 -0.6032 -0.0743
 8928TIP3    H150979   3.379   0.423  10.944 -0.4651 -0.4539 -0.9448
 8928TIP3    H250980   3.387   0.289  11.014  1.3411 -0.1028 -0.4163
 8929TIP3   OH250981   1.548   6.184  11.463 -0.0784  0.1988  0.5127
 8929TIP3    H150982   1.611   6.154  11.399 -0.0815  1.2876 -0.0257
 8929TIP3    H250983   1.483   6.233  11.412 -0.1863  0.9140  1.3034
 8930TIP3   OH250984   4.084   5.311  11.293 -0.0943 -0.1074 -0.1062
 8930TIP3    H150985   4.081   5.256  11.371  1.2300 -1.7771 -1.1581
 8930TIP3    H250986   3.992   5.322  11.268 -0.5802  0.9465  1.9702
 8931TIP3   OH250987   4.977   7.271  11.033  0.1421 -0.7568  0.2764
 8931TIP3    H150988   4.887   7.258  11.064 -0.1837  1.2575  0.3145
 8931TIP3    H250989   5.028   7.285  11.113  0.4147 -1.4707  0.2302
 8932TIP3   OH250990   3.541   4.610  10.802 -0.1759 -0.3845 -0.4485
 8932TIP3    H150991   3.628   4.611  10.761 -0.0825 -0.7164 -0.2638
 8932TIP3    H250992   3.521   4.517  10.812 -1.1373 -0.3360 -1.7084
 8933TIP3   OH250993   1.738   5.665  11.436 -0.2597  0.3366 -0.4376
 8933TIP3    H150994   1.821   5.626  11.411  1.4975  1.6334  2.7221
 8933TIP3    H250995   1.689   5.594  11.477  0.8962  0.2850  0.9438
 8934TIP3   OH250996   6.284   5.297  11.195  0.4545 -0.2056 -0.5931
 8934TIP3    H150997   6.282   5.341  11.110  0.6273  0.3134 -0.3322
 8934TIP3    H250998   6.262   5.206  11.175 -2.2157  0.4098 -0.8699
 8935TIP3   OH250999   4.680   2.077   9.924 -0.3263 -0.0260  0.2579
 8935TIP3    H151000   4.687   1.983   9.908  0.8670  0.1296 -0.2358
 8935TIP3    H251001   4.738   2.093   9.999 -0.2924  0.3636  0.1533
 8936TIP3   OH251002   3.865   4.922  10.881 -0.7888  0.4027  0.8271
 8936TIP3    H151003   3.880   4.917  10.787  1.7623  1.3481  1.0864
 8936TIP3    H251004   3.772   4.944  10.890 -1.2855 -0.5473 -1.3989
 8937TIP3   OH251005   3.737   1.342  11.784  0.1136  0.6739 -0.1757
 8937TIP3    H151006   3.725   1.260  11.831 -0.3823  0.0791 -1.3090
 8937TIP3    H251007   3.710   1.409  11.846  0.8555  0.0183  0.8821
 8938TIP3   OH251008   3.412   3.664  10.415  0.3886  0.5974 -0.1565
 8938TIP3    H151009   3.391   3.572  10.431  0.8900  0.5997  0.5730
 8938TIP3    H251010   3.409   3.704  10.501 -3.3009  2.0534 -0.7922
 8939TIP3   OH251011   0.824   1.696  10.229 -0.0222  0.7390 -0.4252
 8939TIP3    H151012   0.818   1.670  10.137  0.1878  1.1504 -0.5613
 8939TIP3    H251013   0.780   1.781  10.233 -1.2553  0.0983  0.1353
 8940TIP3   OH251014   3.063   2.312  11.431  0.2638 -0.1154 -0.0563
 8940TIP3    H151015   3.120   2.353  11.366  1.1922  1.1903  1.5151
 8940TIP3    H251016   3.121   2.257  11.483 -0.3523 -0.6595  0.0669
 8941TIP3   OH251017   5.552   1.539  11.470 -0.1010  0.2358 -0.0559
 8941TIP3    H151018   5.547   1.510  11.561  1.9156  1.0225  0.3605
 8941TIP3    H251019   5.518   1.465  11.420 -0.4017 -0.5790  1.2799
 8942TIP3   OH251020   0.853   1.395  10.826 -0.6207  0.4587 -0.1822
 8942TIP3    H151021   0.906   1.319  10.803 -1.7456 -0.4225  0.0574
 8942TIP3    H251022   0.793   1.405  10.752  0.8674  2.4595 -1.2440
 8943TIP3   OH251023   2.391   5.180  10.748 -0.3130 -0.4801  0.3637
 8943TIP3    H151024   2.434   5.111  10.697  1.1650 -0.1784  1.1721
 8943TIP3    H251025   2.376   5.141  10.834  0.5928  0.2013  0.8467
 8944TIP3   OH251026   3.773   2.267  12.289  0.4284 -0.1155  0.4461
 8944TIP3    H151027   3.706   2.330  12.260 -0.7501 -0.8593  1.4476
 8944TIP3    H251028   3.856   2.308  12.264 -0.3517  1.2352 -0.0809
 8945TIP3   OH251029   6.601   2.569  11.748 -0.3565 -0.6771  0.3966
 8945TIP3    H151030   6.656   2.534  11.818  0.9449 -0.9357 -0.7113
 8945TIP3    H251031   6.615   2.509  11.675  0.1817  0.8774 -0.8320
 8946TIP3   OH251032   4.191   7.210  11.574  0.2068 -0.4458 -0.8082
 8946TIP3    H151033   4.248   7.161  11.633 -0.1594 -0.0322 -0.0971
 8946TIP3    H251034   4.244   7.283  11.544  0.2652 -0.4377 -0.6831
 8947TIP3   OH251035   6.587   6.539  10.285 -0.3686 -0.8152 -0.6651
 8947TIP3    H151036   6.590   6.506  10.374 -0.4438 -0.5177 -0.5495
 8947TIP3    H251037   6.655   6.490  10.238  2.5501  1.7910  0.5081
 8948TIP3   OH251038   2.428   1.350  10.134 -0.0135  0.2319 -0.2311
 8948TIP3    H151039   2.448   1.301  10.054  0.3548 -1.3943  0.8082
 8948TIP3    H251040   2.362   1.413  10.108 -1.3384 -1.5604 -1.4397
 8949TIP3   OH251041   3.798   2.897  11.677 -0.2334 -0.3733  0.4563
 8949TIP3    H151042   3.703   2.900  11.691 -0.8769 -2.8393 -2.4380
 8949TIP3    H251043   3.828   2.823  11.730 -0.2585 -0.7282 -0.0176
 8950TIP3   OH251044   1.605   1.732  11.184  0.0914 -0.3512  0.8103
 8950TIP3    H151045   1.524   1.737  11.133  0.4205 -1.1862  0.1807
 8950TIP3    H251046   1.642   1.820  11.179 -1.4608  0.4308  2.2741
 8951TIP3   OH251047   1.579   3.857  11.520  0.0642  0.1538 -0.1165
 8951TIP3    H151048   1.671   3.879  11.506  0.1489 -0.2149 -0.1368
 8951TIP3    H251049   1.531   3.933  11.485  0.2429 -0.9365 -2.9771
 8952TIP3   OH251050   6.196   5.990  11.879 -0.0181  0.3935  0.2592
 8952TIP3    H151051   6.183   5.933  11.955  0.2826  1.1364  0.8821
 8952TIP3    H251052   6.215   5.930  11.807 -2.1454 -0.4512  0.3279
 8953TIP3   OH251053   4.346   2.614  10.342 -0.1769 -0.3674 -0.5154
 8953TIP3    H151054   4.298   2.693  10.364 -1.4794 -1.0007 -1.0126
 8953TIP3    H251055   4.294   2.542  10.378  0.9863 -1.0206 -0.0556
 8954TIP3   OH251056   3.902   2.253  10.683  0.0589 -0.2488 -0.6978
 8954TIP3    H151057   3.965   2.195  10.726 -1.3153 -0.8897  0.5463
 8954TIP3    H251058   3.941   2.340  10.689  0.3192 -0.4564  1.1069
 8955TIP3   OH251059   0.135   0.958  10.519 -0.4479  0.6092 -0.5867
 8955TIP3    H151060   0.087   1.005  10.587  1.3537  0.7100  0.6606
 8955TIP3    H251061   0.153   1.024  10.452  1.6241  1.6826  0.9209
 8956TIP3   OH251062   5.479   3.775  11.711  0.3065  0.4355  0.0967
 8956TIP3    H151063   5.413   3.767  11.643  0.9253  1.9080 -0.7147
 8956TIP3    H251064   5.495   3.869  11.718  0.4288  0.3049  2.1282
 8957TIP3   OH251065   4.380   1.572   9.350  0.7468  0.3968 -0.2878
 8957TIP3    H151066   4.424   1.618   9.279  1.3353  0.1042 -0.1300
 8957TIP3    H251067   4.421   1.607   9.430  0.7606  0.0531 -0.1421
 8958TIP3   OH251068   3.727   6.144  10.597  0.1916 -0.4787  0.0306
 8958TIP3    H151069   3.713   6.225  10.548 -2.2103 -0.7484  0.1303
 8958TIP3    H251070   3.652   6.139  10.657  2.1826 -0.9553  2.6623
 8959TIP3   OH251071   1.930   0.475   9.770 -0.1968 -0.5733 -0.3862
 8959TIP3    H151072   1.938   0.385   9.802 -1.1374 -0.4835  0.1447
 8959TIP3    H251073   1.956   0.471   9.678  0.7980 -1.1799 -0.0936
 8960TIP3   OH251074   3.492   0.612   9.623 -0.0546  0.6463 -0.1552
 8960TIP3    H151075   3.501   0.705   9.604  3.9329  0.8988  1.8608
 8960TIP3    H251076   3.580   0.583   9.646 -0.7168 -4.1047 -2.2713
 8961TIP3   OH251077   6.543   6.218  10.001  0.1267 -0.2600 -0.3543
 8961TIP3    H151078   6.534   6.263   9.917  0.8792 -0.0169 -0.3070
 8961TIP3    H251079   6.565   6.128   9.979 -1.1811 -0.5785 -0.4437
 8962TIP3   OH251080   4.023   7.134  10.353 -0.2161 -0.0341 -0.6631
 8962TIP3    H151081   3.989   7.207  10.300 -0.5150 -0.0253 -0.4616
 8962TIP3    H251082   4.118   7.147  10.352 -0.2583  0.2923 -0.7245
 8963TIP3   OH251083   1.259   3.685  11.881  0.0311 -0.3567 -0.1900
 8963TIP3    H151084   1.231   3.633  11.956  0.5288  0.4282  0.5584
 8963TIP3    H251085   1.193   3.668  11.814 -1.1561 -0.0517  0.8676
 8964TIP3   OH251086   6.210   4.909  11.660  0.0424 -0.4813 -1.0875
 8964TIP3    H151087   6.118   4.884  11.657 -0.0372 -0.2344 -0.7505
 8964TIP3    H251088   6.210   5.005  11.655  0.1572 -0.3339  0.9624
 8965TIP3   OH251089   3.872   2.557  10.449 -0.2295 -0.2025  0.2701
 8965TIP3    H151090   3.819   2.481  10.425  0.2941 -0.3649 -0.3915
 8965TIP3    H251091   3.932   2.569  10.376  0.9241 -0.2708  1.1651
 8966TIP3   OH251092   5.995   0.598  11.778 -0.1770 -0.2065 -0.0402
 8966TIP3    H151093   6.069   0.614  11.836  0.9182 -1.4921 -1.0171
 8966TIP3    H251094   5.975   0.504  11.790 -0.4150 -0.3155 -1.1760
 8967TIP3   OH251095   7.448   7.423   9.906 -0.0680 -0.2185 -0.3550
 8967TIP3    H151096   7.541   7.442   9.902  0.4388 -2.5929 -1.6544
 8967TIP3    H251097   7.440   7.355   9.973 -0.4471 -1.8165 -1.9472
 8968TIP3   OH251098   0.180   4.988   9.764  0.6243  0.0759  0.4419
 8968TIP3    H151099   0.153   4.963   9.676  3.0826  3.2393 -1.4372
 8968TIP3    H251100   0.114   5.052   9.792  0.6354  0.1712  0.2517
 8969TIP3   OH251101   6.204   0.869  10.914 -0.3504  0.5005 -1.0065
 8969TIP3    H151102   6.189   0.815  10.836 -0.1986 -1.2895  0.1345
 8969TIP3    H251103   6.121   0.867  10.961  0.3914 -1.0672  0.3655
 8970TIP3   OH251104   3.632   0.199  12.593 -0.2726 -0.8382 -0.6853
 8970TIP3    H151105   3.600   0.109  12.600  0.0112 -1.1068 -2.3223
 8970TIP3    H251106   3.673   0.217  12.677 -3.1113 -1.0816  0.9045
 8971TIP3   OH251107   1.318   3.557  11.212  0.3483  0.0650 -0.1354
 8971TIP3    H151108   1.340   3.492  11.145  0.9288  2.7378 -2.7361
 8971TIP3    H251109   1.399   3.606  11.225  0.1749 -0.1983  2.4536
 8972TIP3   OH251110   3.501   6.906  11.765 -0.2794 -0.0767 -0.4239
 8972TIP3    H151111   3.565   6.887  11.833  0.0510 -0.3702 -0.8150
 8972TIP3    H251112   3.416   6.899  11.810 -0.0147  2.4822  0.6611
 8973TIP3   OH251113   2.388   2.762   9.881 -0.2569  0.2641  0.0922
 8973TIP3    H151114   2.461   2.720   9.835 -0.5296  1.6579 -1.7389
 8973TIP3    H251115   2.310   2.713   9.851 -0.1572 -1.0699  1.8619
 8974TIP3   OH251116   2.432   6.354  11.879 -0.3160  0.2115 -0.4142
 8974TIP3    H151117   2.394   6.309  11.954 -0.4909 -0.4217 -0.8838
 8974TIP3    H251118   2.418   6.296  11.805  0.8514  0.3238 -0.7503
 8975TIP3   OH251119   2.736   3.737  10.862 -0.0055  0.1467  0.4121
 8975TIP3    H151120   2.647   3.733  10.829  0.4288 -0.0825 -0.8036
 8975TIP3    H251121   2.756   3.646  10.887  0.3458 -0.0902 -0.6586
 8976TIP3   OH251122   3.226   3.396  10.077  0.7111 -0.3258 -0.0216
 8976TIP3    H151123   3.274   3.352  10.147  0.1268 -0.3447  0.3710
 8976TIP3    H251124   3.212   3.484  10.109  1.0148 -0.1350 -0.3981
 8977TIP3   OH251125   2.964   0.667  11.518  0.9067 -0.0839  0.2363
 8977TIP3    H151126   3.027   0.699  11.453 -0.4255 -3.2018 -2.9770
 8977TIP3    H251127   2.886   0.720  11.502  0.9107 -0.1480 -0.0119
 8978TIP3   OH251128   5.673   5.551  12.291  0.3590 -0.2613 -0.7263
 8978TIP3    H151129   5.709   5.462  12.287 -2.8424 -1.7078 -0.2115
 8978TIP3    H251130   5.693   5.581  12.380 -0.9823 -1.6546  0.0818
 8979TIP3   OH251131   5.190   4.758  10.364  0.1020  0.0677  0.7120
 8979TIP3    H151132   5.212   4.841  10.407 -0.9180 -0.6515  2.7380
 8979TIP3    H251133   5.158   4.702  10.434 -2.0617 -1.0705 -1.0570
 8980TIP3   OH251134   0.138   3.799  10.729  0.1461 -0.7457  0.0820
 8980TIP3    H151135   0.057   3.807  10.780 -0.4145 -0.2609 -0.8317
 8980TIP3    H251136   0.199   3.753  10.786 -1.0656 -1.9368  0.4849
 8981TIP3   OH251137   6.536   1.839  10.285 -0.2020 -0.0659  0.2761
 8981TIP3    H151138   6.448   1.838  10.323 -0.7666  0.1321 -0.9724
 8981TIP3    H251139   6.528   1.789  10.204  0.8560 -0.0809  0.1683
 8982TIP3   OH251140   2.531   4.977  10.652 -0.3199  0.9752  0.2913
 8982TIP3    H151141   2.512   4.950  10.562  1.5215 -0.6376  0.3037
 8982TIP3    H251142   2.496   4.906  10.706 -1.0953  1.7618  0.8436
 8983TIP3   OH251143   6.666   5.703  10.744 -0.1484 -0.2027 -0.2883
 8983TIP3    H151144   6.666   5.614  10.709 -1.7336 -0.2983 -0.1236
 8983TIP3    H251145   6.685   5.759  10.669 -0.7021 -0.5962 -0.7314
 8984TIP3   OH251146   6.868   3.119  10.404  0.1502  0.4205 -0.0355
 8984TIP3    H151147   6.818   3.044  10.371 -0.0535  0.9653 -0.9968
 8984TIP3    H251148   6.816   3.195  10.379  0.4388  0.9007  0.7924
 8985TIP3   OH251149   4.735   6.558  12.744  0.0683  0.1724  0.2835
 8985TIP3    H151150   4.774   6.599  12.822 -0.0477  1.2453 -0.1956
 8985TIP3    H251151   4.808   6.543  12.685  0.0457  0.1546  0.2601
 8986TIP3   OH251152   3.519   6.643  11.066  0.2952  0.2939 -0.5199
 8986TIP3    H151153   3.612   6.638  11.046  0.4032  0.1298  0.0043
 8986TIP3    H251154   3.505   6.734  11.093  0.7373 -0.1615  1.4060
 8987TIP3   OH251155   6.499   6.670  12.813  0.0577  0.6732 -0.4881
 8987TIP3    H151156   6.537   6.583  12.798 -0.7733 -0.2321  2.0781
 8987TIP3    H251157   6.439   6.657  12.887 -0.1153  3.4439 -0.0478
 8988TIP3   OH251158   2.344   0.658  11.424  0.2353  0.3099 -0.1015
 8988TIP3    H151159   2.341   0.615  11.509  0.6686 -1.0807 -0.7656
 8988TIP3    H251160   2.263   0.631  11.380 -0.1909  1.3552 -0.0008
 8989TIP3   OH251161   1.520   4.213  10.573 -0.3221 -0.3020  0.1632
 8989TIP3    H151162   1.472   4.289  10.605  0.1596 -0.4599  1.3359
 8989TIP3    H251163   1.473   4.138  10.611  0.5922 -0.4721  0.9834
 8990TIP3   OH251164   3.568   1.314  10.005  0.2721 -0.0069 -0.3530
 8990TIP3    H151165   3.514   1.338  10.081 -1.8848 -1.9399 -1.1484
 8990TIP3    H251166   3.575   1.219  10.011  2.1887  0.0471 -1.2556
 8991TIP3   OH251167   0.976   0.097  10.463  0.2394 -0.0929  0.2162
 8991TIP3    H151168   1.025   0.021  10.497 -0.1785  0.5747  2.4635
 8991TIP3    H251169   1.040   0.168  10.464  0.7152 -0.3843 -2.1704
 8992TIP3   OH251170   0.847   5.983  11.653 -0.7247 -0.3474  0.1490
 8992TIP3    H151171   0.932   5.962  11.614 -0.9804  0.0943 -0.6692
 8992TIP3    H251172   0.796   5.903  11.646  0.0069 -1.0125  1.7718
 8993TIP3   OH251173   3.363   0.271  10.401  0.2133  0.1076  0.5356
 8993TIP3    H151174   3.348   0.188  10.446 -1.2987 -0.1990 -0.4483
 8993TIP3    H251175   3.428   0.316  10.454  0.3154 -1.2784  1.6414
 8994TIP3   OH251176   7.314   6.197  11.527  0.4125 -0.7551  0.2761
 8994TIP3    H151177   7.387   6.143  11.495  0.2206 -0.7186 -0.2346
 8994TIP3    H251178   7.348   6.238  11.606  2.7515  3.0963 -2.4037
 8995TIP3   OH251179   2.304   6.515  10.107 -0.2788  0.0858 -0.3427
 8995TIP3    H151180   2.211   6.537  10.104 -0.3333 -0.0989 -0.0775
 8995TIP3    H251181   2.321   6.500  10.200  0.1061  0.5108 -0.3410
 8996TIP3   OH251182   3.478   2.106  10.882 -0.0682  0.3135  0.0371
 8996TIP3    H151183   3.526   2.145  10.809  0.5357 -1.6717 -0.6698
 8996TIP3    H251184   3.494   2.012  10.875 -1.1987 -0.0735  1.8751
 8997TIP3   OH251185   3.473   1.136  12.452  0.2783  0.1636 -0.3563
 8997TIP3    H151186   3.498   1.140  12.544 -0.0313 -1.9542 -0.1278
 8997TIP3    H251187   3.381   1.108  12.454  0.4249 -0.4412 -1.2908
 8998TIP3   OH251188   0.028   6.031  10.759  0.2604 -0.3686  0.1250
 8998TIP3    H151189  -0.061   6.052  10.788 -0.5699 -1.8203 -1.2133
 8998TIP3    H251190   0.025   5.937  10.739  1.3174  0.0928 -2.5613
 8999TIP3   OH251191   2.293   4.610  11.564  0.2102  0.1555  0.1568
 8999TIP3    H151192   2.342   4.666  11.623 -0.9410  0.3690  0.9329
 8999TIP3    H251193   2.260   4.669  11.496  1.6494 -0.1098 -0.8408
 9000TIP3   OH251194   5.199   1.568  11.368 -0.2799  0.1696 -0.0360
 9000TIP3    H151195   5.208   1.493  11.309  0.5704  1.3511 -1.4892
 9000TIP3    H251196   5.108   1.596  11.357 -0.4198 -0.2533  0.0242
 9001TIP3   OH251197   2.039   4.383  10.772 -0.6588 -0.0991 -0.6181
 9001TIP3    H151198   2.052   4.303  10.721 -0.3094  0.2694 -1.1111
 9001TIP3    H251199   2.014   4.352  10.860  0.1817 -0.7494 -0.6043
 9002TIP3   OH251200   4.697   5.525  12.494 -0.1342  0.3559  0.1500
 9002TIP3    H151201   4.676   5.618  12.490 -1.3598  0.1124  0.2010
 9002TIP3    H251202   4.682   5.501  12.586 -0.6949 -0.0586 -0.0409
 9003TIP3   OH251203   0.644   3.970   9.715  0.0640  0.8119  0.3394
 9003TIP3    H151204   0.723   4.018   9.741  2.0158 -0.5685 -2.4959
 9003TIP3    H251205   0.677   3.886   9.683 -2.2719  0.9064 -2.7881
 9004TIP3   OH251206   2.232   2.141  11.608  0.2368  0.6050 -0.3156
 9004TIP3    H151207   2.280   2.224  11.610  0.1393  0.6622 -0.3412
 9004TIP3    H251208   2.153   2.158  11.658 -0.6637  1.0877 -1.8236
 9005TIP3   OH251209   2.415   3.816  11.166  0.0860 -0.4445  0.2031
 9005TIP3    H151210   2.407   3.721  11.156 -0.1075 -0.3256 -0.8996
 9005TIP3    H251211   2.344   3.851  11.113 -0.2242  0.3118  1.0901
 9006TIP3   OH251212   4.562   5.927   9.966  0.1262 -0.1068  0.2736
 9006TIP3    H151213   4.627   5.871   9.924 -1.5583 -1.2711 -0.9342
 9006TIP3    H251214   4.481   5.876   9.964 -0.9959  1.5332  1.0948
 9007TIP3   OH251215   0.520   5.423  12.202 -0.2326 -0.6453  0.4920
 9007TIP3    H151216   0.453   5.490  12.191  0.2369 -0.2137  0.2335
 9007TIP3    H251217   0.505   5.363  12.128  0.6008  0.2657 -0.4519
 9008TIP3   OH251218   1.614   7.364  11.145 -0.2286 -0.5217  0.3030
 9008TIP3    H151219   1.634   7.309  11.069 -1.0078 -2.6883  1.5946
 9008TIP3    H251220   1.527   7.398  11.126  0.6320  1.1486 -0.9390
 9009TIP3   OH251221   5.783   5.524  11.966 -0.1238 -0.5195  0.0793
 9009TIP3    H151222   5.754   5.447  12.014  2.0229  0.0824  2.6558
 9009TIP3    H251223   5.808   5.587  12.035 -1.8020  2.5444 -1.8619
 9010TIP3   OH251224   6.240   2.840  12.004  0.2688  0.2313  0.3547
 9010TIP3    H151225   6.162   2.895  12.000  0.4849  0.6607  1.4773
 9010TIP3    H251226   6.216   2.761  11.956 -0.3560  0.9344 -0.5294
 9011TIP3   OH251227   7.396   3.346  10.542 -0.2110 -0.0081 -0.1859
 9011TIP3    H151228   7.418   3.293  10.465  0.1369 -0.3963  0.1745
 9011TIP3    H251229   7.447   3.427  10.530 -1.2739  0.5535 -1.0839
 9012TIP3   OH251230   2.388   0.878  10.789 -0.4239  0.0699 -0.2726
 9012TIP3    H151231   2.363   0.811  10.852  0.1067 -0.1953 -0.3425
 9012TIP3    H251232   2.405   0.956  10.842  0.4046 -0.2589 -0.0455
 9013TIP3   OH251233   7.189   3.375   9.667 -0.2822  0.0909  0.1621
 9013TIP3    H151234   7.214   3.400   9.756  1.6930  1.4978 -0.7070
 9013TIP3    H251235   7.181   3.459   9.620 -0.7975 -0.6412 -1.1003
 9014TIP3   OH251236   5.440   1.178  11.911  0.7373  0.1710  0.1078
 9014TIP3    H151237   5.420   1.183  12.004  2.5259  0.5210  0.5010
 9014TIP3    H251238   5.510   1.113  11.904 -0.6840 -1.3141 -1.2595
 9015TIP3   OH251239   4.975   5.031   9.964  0.0603  0.1056  0.0716
 9015TIP3    H151240   4.944   5.051   9.876  0.3410  0.1898 -0.0099
 9015TIP3    H251241   4.903   4.983  10.005 -0.9158  1.8762  0.5157
 9016TIP3   OH251242   5.719   5.572  11.336 -0.1583 -0.1452 -0.0870
 9016TIP3    H151243   5.682   5.567  11.248 -2.5877  0.0032  0.8504
 9016TIP3    H251244   5.806   5.610  11.324 -0.2706 -0.5283 -2.4451
 9017TIP3   OH251245   3.894   4.843  10.010 -0.4944  0.0959  0.0181
 9017TIP3    H151246   3.966   4.800  10.055 -0.6728  0.2153  0.4257
 9017TIP3    H251247   3.908   4.825   9.917  0.1248  0.2183  0.0880
 9018TIP3   OH251248   3.590   1.931  11.630  0.3007  0.2245 -0.0174
 9018TIP3    H151249   3.575   1.921  11.536  0.7972  1.3568 -0.2269
 9018TIP3    H251250   3.644   1.854  11.654  1.0780  0.4868 -0.8769
 9019TIP3   OH251251   6.717   5.709  11.024  0.1501 -0.0696  0.6672
 9019TIP3    H151252   6.771   5.630  11.024  2.7730  1.5847 -0.6327
 9019TIP3    H251253   6.683   5.714  10.934  0.2560  0.4278  0.6527
 9020TIP3   OH251254   0.091   2.853  11.741 -0.0063  0.2090 -0.0968
 9020TIP3    H151255   0.075   2.947  11.744  1.2068  0.4321  0.2388
 9020TIP3    H251256   0.187   2.846  11.735 -0.0803 -0.9975 -0.0672
 9021TIP3   OH251257   2.387   5.677  12.393  0.2549 -0.1895  0.3670
 9021TIP3    H151258   2.300   5.699  12.361  1.0016  1.3646 -0.7460
 9021TIP3    H251259   2.416   5.604  12.337  0.3047  0.3981 -0.3853
 9022TIP3   OH251260   2.153   5.415   9.325  0.2420  0.0973 -0.3973
 9022TIP3    H151261   2.218   5.484   9.328  1.4515 -1.0151 -0.2035
 9022TIP3    H251262   2.173   5.366   9.245 -0.2980 -0.3199 -0.2862
 9023TIP3   OH251263   5.982   6.110  10.528  0.2880  0.7599 -0.3843
 9023TIP3    H151264   6.072   6.081  10.512  0.2333 -0.6962  1.6722
 9023TIP3    H251265   5.989   6.169  10.603 -0.3837  1.3554 -0.7775
 9024TIP3   OH251266   2.139   6.194  10.440  0.3499 -0.1747 -0.6267
 9024TIP3    H151267   2.204   6.144  10.491  0.5509  0.1522 -0.5532
 9024TIP3    H251268   2.084   6.235  10.507  0.3268 -0.1177 -0.6811
 9025TIP3   OH251269   1.853   6.666  12.790  0.2624 -0.1101  0.1104
 9025TIP3    H151270   1.788   6.737  12.795  1.5494  1.1414 -0.3698
 9025TIP3    H251271   1.845   6.621  12.874  0.3946  1.5209  1.0473
 9026TIP3   OH251272   6.412   1.169  10.010  0.0602 -0.4640  0.0918
 9026TIP3    H151273   6.393   1.077   9.993  0.3787 -0.3627 -0.9092
 9026TIP3    H251274   6.354   1.193  10.082 -0.0363 -1.4413  0.3539
 9027TIP3   OH251275   2.392   7.366  10.790  0.3659 -0.5938  0.0492
 9027TIP3    H151276   2.434   7.367  10.876  0.0946  3.3852  0.2970
 9027TIP3    H251277   2.304   7.400  10.806  1.0119  2.4145 -1.9639
 9028TIP3   OH251278   2.558   4.626  10.116 -0.3557 -0.2947  0.4178
 9028TIP3    H151279   2.598   4.554  10.067 -1.4218 -1.3626  1.0808
 9028TIP3    H251280   2.473   4.639  10.074 -0.1458  0.6432  0.2578
 9029TIP3   OH251281   2.106   4.657  12.588 -0.4989 -0.2406 -0.4719
 9029TIP3    H151282   2.018   4.676  12.557 -1.1937 -1.7037  0.4752
 9029TIP3    H251283   2.139   4.741  12.620 -2.3784 -0.0211  1.0893
 9030TIP3   OH251284   5.786   4.732  10.558  0.3042 -0.2834  0.3131
 9030TIP3    H151285   5.847   4.799  10.525  0.0158 -0.1243  0.1050
 9030TIP3    H251286   5.800   4.657  10.500 -1.6228  0.6518 -1.4924
 9031TIP3   OH251287   1.134   0.432  11.895 -0.0114 -0.1345  0.2481
 9031TIP3    H151288   1.226   0.416  11.874 -0.4191 -2.2126 -0.1792
 9031TIP3    H251289   1.086   0.391  11.823 -1.2916  1.9441 -0.1553
 9032TIP3   OH251290   4.098   6.115  10.893  0.6950  0.3272 -0.1611
 9032TIP3    H151291   4.178   6.167  10.886  0.4110  0.8652  0.4237
 9032TIP3    H251292   4.031   6.167  10.849  0.7777 -0.4120 -1.2086
 9033TIP3   OH251293   5.286   3.996  11.786  0.0300  0.1664  0.1416
 9033TIP3    H151294   5.198   4.022  11.762  0.1493 -1.0393 -1.8062
 9033TIP3    H251295   5.276   3.909  11.824  0.2250  0.7619  1.6555
 9034TIP3   OH251296   5.138   5.499  11.675  0.2295  0.4467 -0.2487
 9034TIP3    H151297   5.094   5.529  11.755 -1.8281 -0.5944 -0.9190
 9034TIP3    H251298   5.117   5.406  11.670 -1.0825  0.7995 -2.8048
 9035TIP3   OH251299   0.996   4.677  11.915  0.0578  0.3594  0.2471
 9035TIP3    H151300   0.904   4.655  11.903  0.1269  0.3844 -0.3952
 9035TIP3    H251301   1.027   4.617  11.983  0.0876 -1.1342 -1.0085
 9036TIP3   OH251302   0.080   1.776  10.585  0.3112 -0.1754  0.3647
 9036TIP3    H151303  -0.013   1.798  10.586  0.3819  0.2394  2.0536
 9036TIP3    H251304   0.108   1.791  10.495 -1.6360 -2.0870 -0.6602
 9037TIP3   OH251305   2.946   6.331  12.429 -0.2245  0.1851 -0.3588
 9037TIP3    H151306   2.951   6.422  12.400  1.9740  0.1333 -0.2511
 9037TIP3    H251307   2.926   6.338  12.523 -0.9646  0.4975 -0.5250
 9038TIP3   OH251308   3.522   7.176  11.920 -0.0503  0.2687  0.1773
 9038TIP3    H151309   3.614   7.166  11.896 -0.2134  1.5666 -1.0866
 9038TIP3    H251310   3.503   7.269  11.905 -1.3919  0.1742  1.1000
 9039TIP3   OH251311   7.221   7.283   9.630 -0.0160  0.9278 -0.8793
 9039TIP3    H151312   7.151   7.225   9.600 -1.3645  1.4266  1.1299
 9039TIP3    H251313   7.288   7.225   9.665 -0.4878  0.5145 -0.6550
 9040TIP3   OH251314   6.297   6.032   9.832  0.1105  0.0655  0.0155
 9040TIP3    H151315   6.371   6.092   9.824  0.5869 -0.5686 -0.4733
 9040TIP3    H251316   6.303   5.998   9.922  0.1305  0.3656  0.1299
 9041TIP3   OH251317   1.828   7.033  11.760  0.2653  0.6013  0.3584
 9041TIP3    H151318   1.826   6.937  11.757 -1.0995  0.6205 -0.1565
 9041TIP3    H251319   1.820   7.054  11.853 -1.4351  0.1939  0.3457
 9042TIP3   OH251320   3.175   2.581  10.022 -0.2320 -0.1108  0.5451
 9042TIP3    H151321   3.100   2.575  10.081 -2.0343  0.0900 -1.6014
 9042TIP3    H251322   3.144   2.542   9.940  2.3707 -0.9701 -0.1019
 9043TIP3   OH251323   5.372   1.339  10.459 -0.2512 -0.0958  0.5028
 9043TIP3    H151324   5.303   1.276  10.480 -0.5842  0.1412  0.1148
 9043TIP3    H251325   5.333   1.396  10.393  0.1450  0.3473  0.6525
 9044TIP3   OH251326   1.093   5.167  10.286 -0.3522 -0.5385  0.0039
 9044TIP3    H151327   1.170   5.194  10.236 -0.0187 -0.0518  0.7675
 9044TIP3    H251328   1.061   5.090  10.240  0.8331 -0.9949 -0.0879
 9045TIP3   OH251329   5.936   4.198  10.429  0.2367 -0.3271 -0.3664
 9045TIP3    H151330   5.851   4.155  10.436 -0.0036 -0.4554 -2.9538
 9045TIP3    H251331   5.929   4.251  10.350  2.0287  1.0051  0.3014
 9046TIP3   OH251332   2.499   0.100  10.628 -0.2074 -0.0829 -0.0287
 9046TIP3    H151333   2.571   0.050  10.669  0.2568  0.1500 -0.5516
 9046TIP3    H251334   2.437   0.033  10.600  1.4266 -0.6225 -2.7509
 9047TIP3   OH251335   4.563   1.682  11.483  0.1122  0.0509 -0.3120
 9047TIP3    H151336   4.516   1.666  11.564  0.7767 -0.3988 -0.0043
 9047TIP3    H251337   4.513   1.637  11.415  0.2727 -0.6867  0.0595
 9048TIP3   OH251338   2.444   2.189  11.954 -0.1769 -0.4782 -0.3729
 9048TIP3    H151339   2.407   2.179  12.041 -0.7130 -0.7367 -0.6231
 9048TIP3    H251340   2.383   2.248  11.909 -0.5489 -1.2701 -0.9308
 9049TIP3   OH251341   0.857   5.340  12.058  0.2886 -0.0392  0.6763
 9049TIP3    H151342   0.869   5.327  12.152 -2.8794  1.4713  1.4475
 9049TIP3    H251343   0.882   5.431  12.043 -0.9208  0.2790  0.4794
 9050TIP3   OH251344   1.665   6.964  10.612  0.3187 -0.0410 -0.2165
 9050TIP3    H151345   1.613   7.012  10.676  0.8880 -0.0293  0.2455
 9050TIP3    H251346   1.605   6.946  10.540 -0.6894 -1.1580  0.8648
 9051TIP3   OH251347   0.154   4.938  11.344  0.0059 -0.2088  0.0003
 9051TIP3    H151348   0.223   4.891  11.297  0.4059 -1.8341  2.0981
 9051TIP3    H251349   0.200   4.999  11.400 -0.4483  1.2034 -1.0974
 9052TIP3   OH251350   1.846   3.602  10.397 -0.6738 -0.1023  0.4592
 9052TIP3    H151351   1.855   3.569  10.308 -0.0370  0.4806  0.3051
 9052TIP3    H251352   1.789   3.678  10.389  1.0739  1.2249  0.2272
 9053TIP3   OH251353   6.723   3.534  11.666  0.2629  0.1075  0.0288
 9053TIP3    H151354   6.698   3.477  11.594 -0.7793 -0.4696  0.8340
 9053TIP3    H251355   6.736   3.476  11.741  0.3876  0.7987  0.5594
 9054TIP3   OH251356   3.208   6.823  11.214  0.0779 -0.1868  0.3959
 9054TIP3    H151357   3.275   6.892  11.221  1.6945 -1.7423  1.2841
 9054TIP3    H251358   3.230   6.776  11.134 -0.2198 -0.4559  0.4697
 9055TIP3   OH251359   4.906   3.995  10.791 -0.2739 -0.1067 -0.3861
 9055TIP3    H151360   4.852   4.043  10.854 -0.4758  0.7585 -1.1940
 9055TIP3    H251361   4.943   3.922  10.842 -0.0090  0.8581  0.8600
 9056TIP3   OH251362   0.026   3.174  12.156 -0.0955  0.9322 -0.3458
 9056TIP3    H151363  -0.059   3.180  12.113 -0.6542  1.6215  0.7868
 9056TIP3    H251364   0.017   3.230  12.234  0.7928 -0.4249  0.7780
 9057TIP3   OH251365   2.467   5.947  10.128  0.5646  0.1228 -0.3782
 9057TIP3    H151366   2.421   5.866  10.105  2.3740 -0.9458 -0.4256
 9057TIP3    H251367   2.399   6.003  10.165 -0.9309 -1.0377 -1.2293
 9058TIP3   OH251368   4.007   4.820   9.749 -0.1345  0.5179  0.0786
 9058TIP3    H151369   3.968   4.734   9.732  0.5946  0.3393 -0.7722
 9058TIP3    H251370   4.099   4.801   9.769  0.3038  1.1705 -1.2428
 9059TIP3   OH251371   4.428   7.195  12.451  0.1863  0.1895  0.3212
 9059TIP3    H151372   4.414   7.212  12.358  0.9028  0.5930  0.2791
 9059TIP3    H251373   4.508   7.142  12.454  0.5081  0.6917  0.7376
 9060TIP3   OH251374   6.978   1.401  10.209 -0.0472 -0.0025  0.0257
 9060TIP3    H151375   6.976   1.329  10.146  1.3550  1.2525 -1.5521
 9060TIP3    H251376   7.065   1.396  10.248 -0.7525 -0.4960  1.5919
 9061TIP3   OH251377   2.438   2.470  10.622 -0.2812  0.1328  0.3141
 9061TIP3    H151378   2.470   2.449  10.533 -2.7958 -1.0906 -0.3966
 9061TIP3    H251379   2.435   2.565  10.625  1.2507  0.2305 -0.3485
 9062TIP3   OH251380   5.473   0.035   9.645 -0.2307  0.4503 -0.6716
 9062TIP3    H151381   5.415   0.058   9.717 -0.1336  0.2517 -0.5276
 9062TIP3    H251382   5.531   0.111   9.636 -0.4621  0.6140 -0.7629
 9063TIP3   OH251383   1.260   0.914  10.063 -0.2786  0.7214  0.2719
 9063TIP3    H151384   1.193   0.981  10.052  0.8570  1.7557 -0.6447
 9063TIP3    H251385   1.327   0.954  10.117  1.1566  0.9437 -1.5845
 9064TIP3   OH251386   5.229   7.410   9.551 -0.8522 -0.1036 -0.1268
 9064TIP3    H151387   5.319   7.420   9.581 -0.7085 -2.6017  0.5459
 9064TIP3    H251388   5.217   7.478   9.485  1.5274  0.2658 -0.2527
 9065TIP3   OH251389   0.742   2.018  11.046 -0.0151 -0.3903  0.5307
 9065TIP3    H151390   0.657   1.978  11.063 -0.0688 -0.5587 -0.1320
 9065TIP3    H251391   0.804   1.945  11.054 -0.1054 -0.5980 -0.6074
 9066TIP3   OH251392   0.249   0.503   9.667 -0.0471  0.0852 -0.2804
 9066TIP3    H151393   0.176   0.472   9.613  1.1980 -0.9792 -1.4339
 9066TIP3    H251394   0.256   0.440   9.738 -0.6992  0.6139  0.2706
 9067TIP3   OH251395   0.732   4.969  11.681  0.2560  0.1704  0.1263
 9067TIP3    H151396   0.792   5.027  11.728  1.8713 -0.0962 -1.5333
 9067TIP3    H251397   0.783   4.889  11.664 -0.8938 -0.4742 -0.4444
 9068TIP3   OH251398   1.452   5.018  12.799 -0.0376 -0.3064  0.3969
 9068TIP3    H151399   1.503   5.008  12.719 -0.5756 -0.2418  0.0443
 9068TIP3    H251400   1.380   5.077  12.775 -0.2939 -0.4143  0.8821
 9069TIP3   OH251401   3.053   5.492  12.637 -0.2615  0.1052  0.4770
 9069TIP3    H151402   2.980   5.461  12.691 -0.3871  0.1067  0.3086
 9069TIP3    H251403   3.051   5.587  12.646 -1.7029  0.2939 -1.3290
 9070TIP3   OH251404   2.039   5.662  11.793  0.3833  0.1496  0.0738
 9070TIP3    H151405   1.966   5.667  11.854 -1.0637  0.6578 -1.6314
 9070TIP3    H251406   2.099   5.731  11.822 -0.6898  0.9658  0.4208
 9071TIP3   OH251407   3.810   3.483  11.208 -0.1081 -0.0564  0.1420
 9071TIP3    H151408   3.754   3.500  11.284 -0.5139  0.7752 -0.3197
 9071TIP3    H251409   3.750   3.484  11.133  0.6171  1.8577 -0.4834
 9072TIP3   OH251410   7.184   0.701  11.289 -0.3080 -0.2898 -0.0241
 9072TIP3    H151411   7.277   0.700  11.266 -0.5954 -0.4378 -1.2375
 9072TIP3    H251412   7.158   0.609  11.289 -0.9130 -0.1531 -1.7289
 9073TIP3   OH251413   4.752   6.023  11.434  0.5082 -0.0248  0.1324
 9073TIP3    H151414   4.781   5.932  11.425 -1.1295 -0.5881  0.3522
 9073TIP3    H251415   4.709   6.027  11.519  1.6643  1.2923  0.6926
 9074TIP3   OH251416   5.035   5.769  11.248 -0.5989  0.0265  0.0410
 9074TIP3    H151417   4.986   5.851  11.235 -0.3217  0.1544 -0.2102
 9074TIP3    H251418   5.048   5.764  11.342  2.0686  1.8755 -0.0933
 9075TIP3   OH251419   6.706   3.937  11.381 -0.3877  0.2537 -0.0843
 9075TIP3    H151420   6.641   3.885  11.428 -0.1870  0.4133  0.3714
 9075TIP3    H251421   6.670   3.945  11.292  0.6276 -2.5986 -0.8852
 9076TIP3   OH251422   3.354   6.008   9.829  0.0665  0.0136 -0.2766
 9076TIP3    H151423   3.354   6.058   9.748  0.3725  2.1507  0.9844
 9076TIP3    H251424   3.262   6.010   9.858 -0.0954 -0.9838 -0.6731
 9077TIP3   OH251425   1.251   1.834  11.304  0.6605 -0.2302  0.6222
 9077TIP3    H151426   1.335   1.880  11.301  1.9639 -2.4892 -2.0279
 9077TIP3    H251427   1.196   1.882  11.243  1.7448 -1.4968 -1.4841
 9078TIP3   OH251428   0.340   5.712  11.203  0.1136  0.2314  0.0289
 9078TIP3    H151429   0.259   5.674  11.237  0.9929 -1.2944  0.5007
 9078TIP3    H251430   0.313   5.798  11.169 -1.5983 -0.0290  0.6046
 9079TIP3   OH251431   3.603   3.108  10.751 -0.4150  0.1158 -0.6307
 9079TIP3    H151432   3.547   3.107  10.829 -0.4378 -0.0262 -0.6492
 9079TIP3    H251433   3.566   3.041  10.693 -1.1157  1.0415 -1.2791
 9080TIP3   OH251434   1.493   6.135   9.502 -0.1047  0.5290 -0.4696
 9080TIP3    H151435   1.437   6.058   9.509  1.0377 -0.2603  0.4087
 9080TIP3    H251436   1.434   6.209   9.512 -0.8994 -0.2833  1.2658
 9081TIP3   OH251437   3.651   0.612  11.876 -0.3101 -0.2282  0.1274
 9081TIP3    H151438   3.703   0.616  11.956  1.4444 -0.8783 -0.9088
 9081TIP3    H251439   3.565   0.581  11.904  0.2951 -0.5418  1.7436
 9082TIP3   OH251440   0.275   3.970  11.573 -0.4848 -0.0344  0.5618
 9082TIP3    H151441   0.180   3.979  11.565 -0.3748  0.3318 -0.3811
 9082TIP3    H251442   0.294   4.000  11.662 -1.1310  0.9436  0.3875
 9083TIP3   OH251443   6.568   0.399  10.266  0.0261  0.4599 -0.4985
 9083TIP3    H151444   6.627   0.407  10.341 -0.7287  1.2004  0.0404
 9083TIP3    H251445   6.508   0.329  10.290 -1.5460  2.0886  0.5665
 9084TIP3   OH251446   3.371   3.832   9.822 -0.3526 -0.1486 -0.0528
 9084TIP3    H151447   3.460   3.809   9.849 -0.6132 -1.4833 -0.2282
 9084TIP3    H251448   3.339   3.753   9.776 -0.6137  1.2979 -2.5683
 9085TIP3   OH251449   6.981   5.599  10.198  0.5429  0.9333  0.0569
 9085TIP3    H151450   7.038   5.578  10.272  0.8467  2.4901  0.3047
 9085TIP3    H251451   7.040   5.601  10.122  0.6097  1.3811  0.1190
 9086TIP3   OH251452   0.634   4.483  12.042 -0.6464  0.2964 -0.8005
 9086TIP3    H151453   0.614   4.414  12.106 -1.4100  0.2044 -1.1354
 9086TIP3    H251454   0.564   4.548  12.053 -0.2279  0.7674 -0.8561
 9087TIP3   OH251455   1.653   5.258  10.001 -0.0922 -0.3850  0.3193
 9087TIP3    H151456   1.705   5.182   9.978 -1.2193 -1.3591  0.8752
 9087TIP3    H251457   1.692   5.291  10.082 -0.6716 -1.4699  1.0642
 9088TIP3   OH251458   0.844   3.546  11.323  0.3618 -0.2545  0.0288
 9088TIP3    H151459   0.795   3.584  11.250  0.5776 -0.5024 -0.2461
 9088TIP3    H251460   0.928   3.592  11.321  0.4798 -0.4760 -0.0651
 9089TIP3   OH251461   4.625   0.429  11.356  0.9536 -0.8766  0.3390
 9089TIP3    H151462   4.702   0.457  11.308  1.7015 -1.1003  1.3810
 9089TIP3    H251463   4.617   0.493  11.427 -0.6126 -0.0627 -0.5077
 9090TIP3   OH251464   5.369   6.068  10.699  0.5144 -0.0655 -0.1209
 9090TIP3    H151465   5.449   6.022  10.673 -0.7095 -1.5891 -1.4091
 9090TIP3    H251466   5.340   6.112  10.620 -0.4140 -0.3290  0.0640
 9091TIP3   OH251467   2.975   3.206  12.101  0.2017  0.3790 -0.1242
 9091TIP3    H151468   3.035   3.149  12.054  0.4093  1.7628 -1.6559
 9091TIP3    H251469   2.994   3.191  12.194 -0.3787 -2.6375 -0.3965
 9092TIP3   OH251470   1.494   7.077  10.069  0.3333 -0.6381  0.2579
 9092TIP3    H151471   1.571   7.130  10.090 -0.9862  1.1426  0.8514
 9092TIP3    H251472   1.530   6.996  10.035  2.4988 -0.4998  1.9631
 9093TIP3   OH251473   5.208   7.087  11.908  0.0456 -0.0934  0.4029
 9093TIP3    H151474   5.259   7.134  11.974  1.4263 -1.2538  0.2183
 9093TIP3    H251475   5.149   7.031  11.958  1.3244 -1.2247  0.7241
 9094TIP3   OH251476   6.503   0.897  11.031  0.0440  0.0330 -0.0807
 9094TIP3    H151477   6.496   0.858  10.943 -0.4429  0.8590 -0.4194
 9094TIP3    H251478   6.538   0.985  11.015  0.0044  0.1684  0.5664
 9095TIP3   OH251479   7.425   2.245  10.388  0.0858  0.5233 -0.2447
 9095TIP3    H151480   7.335   2.213  10.387  0.5881 -1.0648  0.6848
 9095TIP3    H251481   7.466   2.204  10.313  0.3812  0.0796  0.1514
 9096TIP3   OH251482   2.752   2.400   9.725  0.1868 -0.3031 -0.0630
 9096TIP3    H151483   2.720   2.458   9.794  0.3133  0.0678 -0.3118
 9096TIP3    H251484   2.676   2.388   9.667 -0.3478 -1.7669  0.8864
 9097TIP3   OH251485   3.004   5.096  10.817  0.2085 -0.1095 -0.0077
 9097TIP3    H151486   3.088   5.126  10.781 -0.0598 -0.1931 -0.7280
 9097TIP3    H251487   2.941   5.114  10.747 -0.3489 -0.1833  0.4721
 9098TIP3   OH251488   3.242   1.730  10.407 -0.0397 -0.3881 -0.1200
 9098TIP3    H151489   3.288   1.795  10.354 -1.2867 -0.3649 -1.2426
 9098TIP3    H251490   3.158   1.717  10.362 -0.7638 -1.0898  1.3435
 9099TIP3   OH251491   5.622   0.338  10.955 -0.4219  0.0522  0.2569
 9099TIP3    H151492   5.631   0.243  10.964 -0.8845 -0.0794 -0.6505
 9099TIP3    H251493   5.619   0.353  10.861  1.6305  1.1644  0.3275
 9100TIP3   OH251494   3.459   2.868  11.435 -0.0378 -0.3195 -0.2917
 9100TIP3    H151495   3.377   2.912  11.412 -0.8841  0.1990  3.1979
 9100TIP3    H251496   3.432   2.781  11.465  0.9863 -0.9845 -1.2040
 9101TIP3   OH251497   4.644   0.337  10.366 -0.2487  0.1420 -0.7169
 9101TIP3    H151498   4.714   0.398  10.341 -1.1740  2.2269  1.3622
 9101TIP3    H251499   4.689   0.254  10.382  2.4298  1.9921  3.1051
 9102TIP3   OH251500   6.005   2.426  11.250 -0.0140  0.3835  0.5251
 9102TIP3    H151501   6.093   2.458  11.234  0.6908 -1.5605  0.2165
 9102TIP3    H251502   5.977   2.388  11.167 -0.0408 -1.4028  1.2961
 9103TIP3   OH251503   4.442   1.288  10.420 -0.3480  0.4607  0.0268
 9103TIP3    H151504   4.391   1.246  10.489 -1.4003  0.8090 -0.4967
 9103TIP3    H251505   4.413   1.245  10.339 -0.9356  1.6652 -0.4391
 9104TIP3   OH251506   2.026   6.170   9.312  0.0428 -0.0306  0.1150
 9104TIP3    H151507   2.012   6.086   9.356  0.0062 -0.3262 -0.4513
 9104TIP3    H251508   1.940   6.213   9.316 -0.0279 -0.1683  0.1027
 9105TIP3   OH251509   6.975   5.833   9.684  0.2296  0.4995 -0.7709
 9105TIP3    H151510   6.912   5.764   9.705  0.8820 -0.4239 -1.7392
 9105TIP3    H251511   6.936   5.913   9.720 -0.8500 -0.2595 -0.1909
 9106TIP3   OH251512   5.504   1.421  11.781 -0.4094 -0.1377  0.6474
 9106TIP3    H151513   5.423   1.461  11.751 -0.4882 -0.4659  0.4145
 9106TIP3    H251514   5.477   1.340  11.824 -0.2771  0.2023  1.3878
 9107TIP3   OH251515   0.593   0.335  11.452  0.2156 -0.0778  0.4403
 9107TIP3    H151516   0.659   0.398  11.422 -0.2699 -0.2692 -1.1207
 9107TIP3    H251517   0.609   0.257  11.399 -2.6399  0.6128 -1.6329
 9108TIP3   OH251518   1.760   1.094   9.848 -0.2997  0.7597  0.2889
 9108TIP3    H151519   1.850   1.061   9.841 -1.1159 -1.5457 -0.5127
 9108TIP3    H251520   1.740   1.086   9.941 -0.3022 -0.7028  0.1938
 9109TIP3   OH251521   4.235   2.634  10.049  0.4350 -0.2390  0.2715
 9109TIP3    H151522   4.179   2.598   9.980 -1.1079 -0.8092  1.7597
 9109TIP3    H251523   4.238   2.566  10.116  2.1760  0.1689  0.6491
 9110TIP3   OH251524   6.071   0.849  10.105 -0.4084 -0.3304 -0.0752
 9110TIP3    H151525   6.000   0.793  10.138 -0.7077  0.6284  0.9891
 9110TIP3    H251526   6.127   0.864  10.181 -0.5581  1.1194 -0.2145
 9111TIP3   OH251527   4.017   7.163  12.552 -1.0503  0.1780  0.2147
 9111TIP3    H151528   4.061   7.129  12.474 -3.5180  1.3362 -1.8174
 9111TIP3    H251529   4.088   7.179  12.615  0.9489 -1.4486 -1.4910
 9112TIP3   OH251530   4.819   2.912  11.462 -0.2102  0.3012  0.1621
 9112TIP3    H151531   4.857   2.861  11.390 -1.6536 -0.7114  0.0739
 9112TIP3    H251532   4.888   2.917  11.527  0.5463 -0.2694 -0.5785
 9113TIP3   OH251533   0.723   5.763  11.588 -0.1772  0.3207  0.4865
 9113TIP3    H151534   0.764   5.677  11.584 -1.4118 -0.2806 -0.1286
 9113TIP3    H251535   0.651   5.757  11.525  0.2366  2.0993 -0.1987
 9114TIP3   OH251536   3.642   6.575   9.722  0.5992 -0.1883 -0.5049
 9114TIP3    H151537   3.679   6.647   9.773  0.2619 -1.1336  1.1231
 9114TIP3    H251538   3.572   6.616   9.671  0.3660  0.6322  0.4463
 9115TIP3   OH251539   0.549   5.675  12.634  0.1281  0.5137  0.0746
 9115TIP3    H151540   0.459   5.668  12.602  0.8030 -1.3524 -1.5356
 9115TIP3    H251541   0.572   5.767  12.620 -0.6980  0.4679 -1.8111
 9116TIP3   OH251542   0.868   6.450   9.862 -0.0772 -0.3481 -0.7136
 9116TIP3    H151543   0.905   6.518   9.918  0.0101 -0.0931 -1.0789
 9116TIP3    H251544   0.779   6.479   9.845  0.3536  0.3324 -1.9149
 9117TIP3   OH251545   0.368   1.117  10.769  0.4729 -0.2771 -0.0364
 9117TIP3    H151546   0.443   1.165  10.802 -0.1654 -0.7055  2.1659
 9117TIP3    H251547   0.384   1.026  10.796 -0.6435 -0.4404  0.1132
 9118TIP3   OH251548   7.190   4.873  12.357 -0.4081 -0.2340  0.1973
 9118TIP3    H151549   7.178   4.780  12.377  0.3840 -0.1007  1.4227
 9118TIP3    H251550   7.112   4.915  12.394 -2.0839 -0.6174 -2.5955
 9119TIP3   OH251551   7.050   3.773  10.130 -0.4154  0.7444  0.5525
 9119TIP3    H151552   7.004   3.845  10.088 -0.2157  0.2629 -0.5224
 9119TIP3    H251553   7.138   3.774  10.092 -0.0922  0.5564  1.2735
 9120TIP3   OH251554   6.382   0.782  11.950 -0.2408 -0.4273  0.5109
 9120TIP3    H151555   6.390   0.858  11.892 -0.7726  1.2077  2.4434
 9120TIP3    H251556   6.449   0.797  12.017  0.5765 -2.4235  0.1845
 9121TIP3   OH251557   2.418   4.718  10.777 -0.0894 -0.3116 -0.3069
 9121TIP3    H151558   2.426   4.624  10.758  2.6577 -0.5364  1.3686
 9121TIP3    H251559   2.337   4.726  10.826 -0.2622 -1.8603 -0.2907
 9122TIP3   OH251560   0.664   5.987   9.482 -0.2865 -0.1743 -0.0146
 9122TIP3    H151561   0.750   5.957   9.511 -0.5036  0.1191  0.9949
 9122TIP3    H251562   0.647   6.065   9.535 -0.2960  0.9732 -1.6483
 9123TIP3   OH251563   7.186   3.489   9.917 -0.4196 -0.4383 -0.2215
 9123TIP3    H151564   7.258   3.465   9.975  0.2893 -1.0498 -1.3043
 9123TIP3    H251565   7.108   3.454   9.959 -0.3056  1.4302  1.6786
 9124TIP3   OH251566   6.310   5.932  10.095  0.0772  0.1372 -0.1295
 9124TIP3    H151567   6.254   5.871  10.143 -1.3936  2.4757  1.3449
 9124TIP3    H251568   6.378   5.956  10.158  0.4120  0.3132 -0.5553
 9125TIP3   OH251569   5.103   6.212  11.916 -0.4194  0.3171 -0.2395
 9125TIP3    H151570   5.049   6.146  11.960 -2.5850  1.5986 -0.8271
 9125TIP3    H251571   5.053   6.293  11.924  0.2836  1.1085 -2.8776
 9126TIP3   OH251572   5.460   3.088  10.460 -0.2343  0.9170  0.0934
 9126TIP3    H151573   5.402   3.031  10.410 -1.8681  2.4001  0.2041
 9126TIP3    H251574   5.490   3.034  10.532  0.0317 -0.4464 -0.9975
 9127TIP3   OH251575   0.243   0.654  10.072 -0.2281  0.3463  0.3822
 9127TIP3    H151576   0.235   0.559  10.081  1.1125  0.1570 -0.1833
 9127TIP3    H251577   0.156   0.687  10.093 -2.0572 -1.3070 -3.4917
 9128TIP3   OH251578   2.959   0.826  10.925 -0.5421 -0.7308  0.6154
 9128TIP3    H151579   2.866   0.802  10.917 -0.7686  0.2007  0.3397
 9128TIP3    H251580   2.970   0.899  10.864  0.2689 -0.5311  0.9877
 9129TIP3   OH251581   0.024   5.269  10.854  0.3782  0.1562 -0.0788
 9129TIP3    H151582   0.098   5.219  10.821 -0.4171  0.1902 -2.0278
 9129TIP3    H251583  -0.050   5.208  10.849  0.1116  0.3540  1.1461
 9130TIP3   OH251584   5.901   6.883  10.749 -0.3723  0.2158 -0.7972
 9130TIP3    H151585   5.826   6.823  10.753  0.9489 -1.5018 -0.8025
 9130TIP3    H251586   5.911   6.902  10.655 -1.3531  1.2287 -0.7204
 9131TIP3   OH251587   3.742   0.908  10.620 -0.0144 -0.0103 -0.1141
 9131TIP3    H151588   3.749   0.915  10.525  0.4179 -1.4991 -0.2176
 9131TIP3    H251589   3.648   0.906  10.637 -0.1165  1.3764 -0.3873
 9132TIP3   OH251590   0.545   2.105  11.253  0.1411  0.2061  0.0740
 9132TIP3    H151591   0.496   2.114  11.172  0.1333 -0.4944 -0.0040
 9132TIP3    H251592   0.480   2.082  11.319  0.3040 -0.3722  0.0411
 9133TIP3   OH251593   2.280   4.960   9.755 -0.1989 -0.4064 -0.3802
 9133TIP3    H151594   2.362   4.930   9.793 -1.1741 -1.7400  0.7833
 9133TIP3    H251595   2.292   5.054   9.743  2.1131 -0.8435 -1.9330
 9134TIP3   OH251596   0.163   5.962   9.776 -0.0405  0.6042 -0.3443
 9134TIP3    H151597   0.123   5.924   9.698 -0.0557  1.3668 -0.7122
 9134TIP3    H251598   0.117   5.921   9.849 -0.8651  0.7860 -0.7492
 9135TIP3   OH251599   3.790   3.799   9.693 -0.7163  0.6156  0.4382
 9135TIP3    H151600   3.761   3.708   9.684 -0.4391  0.4075  1.5550
 9135TIP3    H251601   3.726   3.849   9.642 -2.5855  0.0876  2.1067
 9136TIP3   OH251602   4.636   3.264  11.604 -0.0539 -0.0384 -0.1927
 9136TIP3    H151603   4.658   3.357  11.597 -0.1054 -0.1016 -1.6466
 9136TIP3    H251604   4.703   3.227  11.661  0.4565  0.7524 -0.2753
 9137TIP3   OH251605   0.275   3.139  10.948  0.1447  0.5291  0.0572
 9137TIP3    H151606   0.187   3.154  10.984 -0.1554  0.5292 -0.6709
 9137TIP3    H251607   0.264   3.146  10.854  0.2350 -2.7757 -0.3397
 9138TIP3   OH251608   1.253   0.213  10.217  0.1434 -0.4469  0.9821
 9138TIP3    H151609   1.226   0.122  10.226  0.6962 -0.7840 -0.5223
 9138TIP3    H251610   1.171   0.262  10.214 -0.1996 -1.0466  0.3237
 9139TIP3   OH251611   1.641   6.047  10.864 -0.5309  0.2253 -0.1456
 9139TIP3    H151612   1.561   6.086  10.828 -0.2333  1.0249  0.0577
 9139TIP3    H251613   1.678   6.114  10.921  0.8549  0.2756 -1.0549
 9140TIP3   OH251614   0.679   0.265  10.186 -0.2308 -0.5719 -0.6861
 9140TIP3    H151615   0.749   0.260  10.121  0.8511  0.5145  0.3489
 9140TIP3    H251616   0.617   0.197  10.159  1.7240 -2.3270 -1.0246
 9141TIP3   OH251617   0.779   7.135   9.607  0.1663 -0.3624 -0.6934
 9141TIP3    H151618   0.684   7.129   9.613 -0.0852  0.2422 -3.1001
 9141TIP3    H251619   0.806   7.048   9.577  0.5597 -0.9271  1.1464
 9142TIP3   OH251620   4.698   3.347  10.984 -0.1249  0.0159  0.0182
 9142TIP3    H151621   4.703   3.331  11.078  0.0417  1.1536  0.2188
 9142TIP3    H251622   4.605   3.366  10.968 -0.1048  0.1026  0.0042
 9143TIP3   OH251623   6.200   1.308  10.482  0.0950  0.0013 -0.2112
 9143TIP3    H151624   6.234   1.278  10.398  1.8098 -0.2488  0.5324
 9143TIP3    H251625   6.272   1.293  10.544 -1.3893 -0.5513  1.4596
 9144TIP3   OH251626   3.149   5.499  10.819  0.0185 -0.2842  0.1554
 9144TIP3    H151627   3.131   5.511  10.726 -0.2245 -0.3488  0.1944
 9144TIP3    H251628   3.073   5.452  10.852 -0.1121  0.1441  0.4812
 9145TIP3   OH251629   1.753   6.459  11.863  0.0065 -0.2598 -0.1096
 9145TIP3    H151630   1.832   6.406  11.852  0.2632  0.1815 -0.3964
 9145TIP3    H251631   1.765   6.534  11.805 -0.8823 -0.4819 -0.5975
 9146TIP3   OH251632   5.849   5.949  10.252  0.5479  0.6104 -0.7741
 9146TIP3    H151633   5.845   6.027  10.197 -1.8825  1.9195  1.0802
 9146TIP3    H251634   5.889   5.980  10.334  0.0350 -0.2158 -0.1959
 9147TIP3   OH251635   0.761   5.646   9.438  0.0701 -0.2038 -0.0429
 9147TIP3    H151636   0.802   5.726   9.405 -1.1527  0.8944  0.9802
 9147TIP3    H251637   0.824   5.577   9.418  0.1844  0.6092 -3.0026
 9148TIP3   OH251638   0.521   3.509  10.937 -0.0473 -0.3889 -0.2314
 9148TIP3    H151639   0.584   3.577  10.916  0.6143 -0.2255  1.9773
 9148TIP3    H251640   0.546   3.435  10.882 -0.1182  0.7584 -1.8885
 9149TIP3   OH251641   3.817   2.480  11.023  0.3088  0.3394 -0.1780
 9149TIP3    H151642   3.785   2.489  10.933 -0.4532  0.3051  0.0832
 9149TIP3    H251643   3.845   2.568  11.048 -0.2297  0.5130 -0.1742
 9150TIP3   OH251644   2.939   4.039   9.597  0.4490  0.0376  0.0329
 9150TIP3    H151645   2.880   3.977   9.554  1.3140 -0.3461 -0.6341
 9150TIP3    H251646   3.023   3.995   9.597  1.3588  1.6331 -1.4889
 9151TIP3   OH251647   5.216   2.155  11.760 -0.5041 -0.4766  0.7609
 9151TIP3    H151648   5.163   2.174  11.838 -1.5769 -0.6062  0.0788
 9151TIP3    H251649   5.199   2.063  11.741  1.6039 -1.1337  1.7269
 9152TIP3   OH251650   1.790   5.749   9.585 -0.1291  0.2874 -0.5825
 9152TIP3    H151651   1.782   5.775   9.493  0.0544  1.3892 -0.3011
 9152TIP3    H251652   1.876   5.708   9.590 -0.4172 -0.3860 -1.0383
 9153TIP3   OH251653   5.041   0.762  10.283 -0.2203 -0.2236 -0.0657
 9153TIP3    H151654   5.118   0.796  10.330  0.3813 -1.1518 -0.3766
 9153TIP3    H251655   5.004   0.697  10.343  1.8683 -3.1396 -1.6964
 9154TIP3   OH251656   1.533   1.800  10.802 -0.2217  0.3765  0.4639
 9154TIP3    H151657   1.589   1.770  10.731 -0.7524 -1.1055  0.6428
 9154TIP3    H251658   1.574   1.882  10.832  0.1753  0.8639 -1.3083
 9155TIP3   OH251659   1.448   1.556  11.961 -0.3417 -0.0696  0.4073
 9155TIP3    H151660   1.447   1.505  12.042 -1.1546 -0.5784  0.0928
 9155TIP3    H251661   1.384   1.512  11.905 -0.1384  0.5643 -0.3316
 9156TIP3   OH251662   2.146   2.364  12.338  0.0273 -0.4587 -0.3190
 9156TIP3    H151663   2.107   2.301  12.399  1.4487 -2.3828 -1.3044
 9156TIP3    H251664   2.207   2.414  12.392 -1.7992  0.8386  0.6795
 9157TIP3   OH251665   7.018   0.505  12.302 -0.5708  0.2273 -0.5293
 9157TIP3    H151666   7.002   0.597  12.283  0.2158  0.2490 -1.1110
 9157TIP3    H251667   7.070   0.505  12.382 -0.3988  0.2943 -0.6421
 9158TIP3   OH251668   6.901   5.805  11.194  0.0937 -0.1925 -0.3362
 9158TIP3    H151669   6.831   5.816  11.129  1.0619 -0.1296 -1.4045
 9158TIP3    H251670   6.855   5.787  11.276 -1.2352  1.6622 -0.6211
 9159TIP3   OH251671   0.692   6.282  11.662 -0.3595  0.8173 -0.1813
 9159TIP3    H151672   0.679   6.304  11.569  0.4319 -1.3132 -0.8447
 9159TIP3    H251673   0.780   6.245  11.666 -0.3648  0.9237  1.4510
 9160TIP3   OH251674   6.624   4.650  10.026  0.5636  0.0335  0.7139
 9160TIP3    H151675   6.550   4.710  10.022 -1.7764 -2.6704 -0.6577
 9160TIP3    H251676   6.650   4.651  10.118 -1.9087  0.3414  1.5023
 9161TIP3   OH251677   1.955   4.213  12.050 -0.1311  0.0170  0.0360
 9161TIP3    H151678   1.869   4.171  12.056 -1.1223  1.8888 -0.1057
 9161TIP3    H251679   1.949   4.287  12.111  1.3808  0.1982 -0.0014
 9162TIP3   OH251680   0.304   6.362  12.028 -0.4240  0.0952 -0.2635
 9162TIP3    H151681   0.348   6.318  11.955  0.2079 -1.0950  0.7841
 9162TIP3    H251682   0.373   6.413  12.070 -0.6603  0.3398 -0.1687
 9163TIP3   OH251683   1.909   1.882  12.457 -0.5632 -0.4899  0.9917
 9163TIP3    H151684   1.841   1.820  12.483 -2.0918  1.1443  1.1103
 9163TIP3    H251685   1.872   1.929  12.382 -0.6783  2.1414  2.5763
 9164TIP3   OH251686   1.630   3.484   9.894 -0.2304  0.0323 -0.1701
 9164TIP3    H151687   1.675   3.490   9.978  0.3117  0.7001 -0.4946
 9164TIP3    H251688   1.568   3.413   9.905 -0.2590  0.1989  0.8378
 9165TIP3   OH251689   2.254   2.592  11.527  0.1127 -0.1022  0.4251
 9165TIP3    H151690   2.190   2.636  11.471  2.2023  1.7224 -0.6936
 9165TIP3    H251691   2.334   2.589  11.474  0.8358 -2.8860  1.5231
 9166TIP3   OH251692   3.626   2.598   9.733  0.5278 -0.3143  1.0265
 9166TIP3    H151693   3.699   2.568   9.787  2.0444  2.4064  0.7056
 9166TIP3    H251694   3.667   2.659   9.671 -1.9098  0.6300  0.2472
 9167TIP3   OH251695   0.263   7.435  10.193 -0.7446  0.2246 -0.0977
 9167TIP3    H151696   0.311   7.354  10.209  0.9833  0.8982 -1.6828
 9167TIP3    H251697   0.284   7.490  10.269  1.5247  0.7141 -1.0041
 9168TIP3   OH251698   0.730   6.846  11.880  0.0679  0.0241 -0.5223
 9168TIP3    H151699   0.741   6.807  11.793  0.9970  0.3317 -0.5579
 9168TIP3    H251700   0.785   6.924  11.878  1.2860 -0.7559  0.8065
 9169TIP3   OH251701   4.975   3.736  10.924 -0.0733 -0.8383  0.1529
 9169TIP3    H151702   4.905   3.671  10.935 -1.2771  0.0654 -1.5749
 9169TIP3    H251703   5.014   3.714  10.839 -0.1107  0.3218 -0.1737
 9170TIP3   OH251704   2.957   4.059  12.598 -0.1563 -0.1052 -0.2960
 9170TIP3    H151705   2.967   3.965  12.583  0.6003  0.0143 -0.5587
 9170TIP3    H251706   2.883   4.065  12.659 -0.0711 -0.8782 -0.0991
 9171TIP3   OH251707   3.331   5.956  11.512  0.3254 -0.2345 -0.2948
 9171TIP3    H151708   3.425   5.952  11.494  0.8321  0.7916  1.8377
 9171TIP3    H251709   3.320   5.904  11.592 -0.9907 -0.5996 -0.6854
 9172TIP3   OH251710   2.041   3.026  10.485  0.0329 -0.2838  0.2439
 9172TIP3    H151711   2.107   2.967  10.448  0.7707  0.0455  1.0165
 9172TIP3    H251712   2.069   3.041  10.575 -0.4445  0.8247  0.2270
 9173TIP3   OH251713   0.601   2.046  10.760  0.1443  0.2793  0.5342
 9173TIP3    H151714   0.574   2.078  10.847  0.8660  1.9026  0.1892
 9173TIP3    H251715   0.530   1.986  10.734 -1.1905  1.4539  1.3103
 9174TIP3   OH251716   2.167   5.925  11.321  0.0618  0.1173 -0.0336
 9174TIP3    H151717   2.094   5.932  11.259 -0.1825  0.6843  0.3015
 9174TIP3    H251718   2.141   5.856  11.381 -0.9968  1.4023  1.0781
 9175TIP3   OH251719   7.035   5.419   9.822 -0.7451 -0.2344 -0.2570
 9175TIP3    H151720   7.057   5.458   9.737  1.0789 -1.0677 -0.2064
 9175TIP3    H251721   6.941   5.406   9.818 -0.9943  1.4883 -1.3985
 9176TIP3   OH251722   2.436   5.789   9.759  0.2033  0.2766  0.1911
 9176TIP3    H151723   2.461   5.755   9.845 -0.6567 -1.0941 -0.0813
 9176TIP3    H251724   2.352   5.748   9.740  0.9556 -0.4503 -1.8494
 9177TIP3   OH251725   2.978   7.450   9.803 -0.0257  0.3353  0.4375
 9177TIP3    H151726   3.047   7.436   9.738 -0.3056 -1.9659  0.5580
 9177TIP3    H251727   3.005   7.399   9.879 -2.0008 -0.9735  0.3361
 9178TIP3   OH251728   7.118   4.906  10.825  0.0890 -0.0091  0.1751
 9178TIP3    H151729   7.036   4.863  10.847  0.3916 -0.1679  1.0337
 9178TIP3    H251730   7.182   4.870  10.887  0.5208  1.0886  0.4007
 9179TIP3   OH251731   6.628   6.714  10.623 -0.0126  0.0336 -0.0579
 9179TIP3    H151732   6.586   6.636  10.586  0.5814  0.1604 -1.0222
 9179TIP3    H251733   6.563   6.783  10.610  0.6500  0.3349 -2.0022
 9180TIP3   OH251734   3.826   1.973  10.861  0.7318  0.1694  0.4196
 9180TIP3    H151735   3.917   1.946  10.866  1.1259  1.5423  1.4294
 9180TIP3    H251736   3.824   2.058  10.905 -0.9053  0.5014 -0.2171
 9181TIP3   OH251737   6.641   0.506  11.511  0.6298  0.4760 -0.0252
 9181TIP3    H151738   6.582   0.522  11.585 -0.9696  1.2322 -1.3877
 9181TIP3    H251739   6.618   0.574  11.448  1.9330 -0.1748 -1.2448
 9182TIP3   OH251740   1.851   0.821  10.687  0.3942 -0.2344  0.1168
 9182TIP3    H151741   1.851   0.741  10.635  0.2567  0.2735 -0.6803
 9182TIP3    H251742   1.862   0.791  10.778 -1.3447 -1.2924  0.0269
 9183TIP3   OH251743   2.762   3.371  12.690 -0.1961  0.2291  0.0297
 9183TIP3    H151744   2.806   3.453  12.667 -1.1809  0.4664 -1.1120
 9183TIP3    H251745   2.673   3.396  12.712  0.1838 -0.2450  2.3511
 9184TIP3   OH251746   3.895   2.349  11.260  0.2007  0.0425 -0.1278
 9184TIP3    H151747   3.989   2.349  11.243  0.2182 -0.5340 -0.0539
 9184TIP3    H251748   3.858   2.400  11.187  0.3802 -1.4419 -1.3064
 9185TIP3   OH251749   3.003   4.550  10.388 -0.3341 -0.4248 -0.0689
 9185TIP3    H151750   3.024   4.577  10.298 -0.4511  3.1134  0.8008
 9185TIP3    H251751   3.079   4.577  10.439 -0.0685 -2.8147  0.9233
 9186TIP3   OH251752   7.308   3.838  10.068  0.1884  0.1431 -0.2166
 9186TIP3    H151753   7.322   3.929  10.093  1.4536  0.3056 -1.3822
 9186TIP3    H251754   7.365   3.788  10.126 -1.1571 -0.0143  1.0144
 9187TIP3   OH251755   5.666   4.704  10.075 -0.2002 -0.3506  0.5413
 9187TIP3    H151756   5.599   4.645  10.110  0.3830 -0.7921  0.9361
 9187TIP3    H251757   5.655   4.700   9.980 -0.0592 -1.2388  0.5532
 9188TIP3   OH251758   0.768   6.703  10.052  0.1131  0.1585  0.0297
 9188TIP3    H151759   0.796   6.732   9.965 -1.5344  1.3745 -0.1460
 9188TIP3    H251760   0.799   6.770  10.112 -0.9228  0.6611  0.0332
 9189TIP3   OH251761   2.446   0.021  10.337  0.0130 -0.5683  0.1024
 9189TIP3    H151762   2.460  -0.074  10.338 -0.7511 -0.7161 -1.2272
 9189TIP3    H251763   2.473   0.049  10.250 -1.5105  0.1353 -0.1766
 9190TIP3   OH251764   5.571   6.133  12.212 -0.2953 -0.2937  0.0572
 9190TIP3    H151765   5.491   6.170  12.175 -0.8057 -2.3346 -1.0352
 9190TIP3    H251766   5.605   6.202  12.268 -1.6793  1.4287 -1.0928
 9191TIP3   OH251767   4.348   1.131  11.136  0.3399  0.0916 -0.0383
 9191TIP3    H151768   4.332   1.145  11.229  3.3191 -0.5436  0.6956
 9191TIP3    H251769   4.312   1.208  11.092 -1.7015  0.0883  1.5150
 9192TIP3   OH251770   2.523   0.432  10.878 -0.5258  0.3546 -0.3364
 9192TIP3    H151771   2.606   0.432  10.831  0.3444  0.6913  1.1397
 9192TIP3    H251772   2.535   0.370  10.949 -1.9950 -0.5370 -0.8044
 9193TIP3   OH251773   2.786   7.464  10.095  0.1334  0.5408  0.2175
 9193TIP3    H151774   2.848   7.512  10.149 -0.5170 -0.6622  2.1258
 9193TIP3    H251775   2.838   7.392  10.059  0.2122  0.4390  0.5300
 9194TIP3   OH251776   3.812   1.997  11.184  0.2218  0.0704 -0.5153
 9194TIP3    H151777   3.827   1.908  11.151 -1.3876 -0.2407 -0.4721
 9194TIP3    H251778   3.898   2.038  11.179  0.8637 -1.2645 -1.2051
 9195TIP3   OH251779   3.134   3.552  11.367 -0.1321 -0.1032 -0.5271
 9195TIP3    H151780   3.190   3.535  11.443 -0.1210  0.4126 -0.4199
 9195TIP3    H251781   3.158   3.640  11.338  0.9412 -0.8335 -2.0546
 9196TIP3   OH251782   5.185   0.280  11.091 -0.4695 -0.5525  0.0307
 9196TIP3    H151783   5.194   0.368  11.055 -0.0987 -0.4685  0.3172
 9196TIP3    H251784   5.110   0.243  11.046 -0.6030 -0.1021 -0.1215
 9197TIP3   OH251785   6.815   5.813  10.042  0.3044  0.2270 -0.2343
 9197TIP3    H151786   6.882   5.787  10.106  0.3314  0.5847 -0.1148
 9197TIP3    H251787   6.837   5.764   9.963  0.8732  0.5445 -0.2781
 9198TIP3   OH251788   6.905   5.794  10.604  0.4691  0.0310 -0.1475
 9198TIP3    H151789   6.951   5.726  10.654 -1.1212 -0.3526  0.8624
 9198TIP3    H251790   6.893   5.866  10.666 -1.1044 -0.2572 -0.0719
 9199TIP3   OH251791   3.021   1.498   9.590  0.6449 -0.0575  0.6999
 9199TIP3    H151792   3.097   1.450   9.557  0.5437 -1.2408  2.0769
 9199TIP3    H251793   2.950   1.434   9.588  0.3543  0.1996  2.0036
 9200TIP3   OH251794   4.134   1.414  11.246 -0.4376 -0.1336 -0.2604
 9200TIP3    H151795   4.077   1.340  11.270 -0.3313  0.4247  1.9389
 9200TIP3    H251796   4.116   1.480  11.312  2.7824  0.0466  0.5956
 9201TIP3   OH251797   6.595   2.052  10.480  0.5574 -0.0392 -0.0565
 9201TIP3    H151798   6.506   2.043  10.516  1.2511 -0.5486  1.6197
 9201TIP3    H251799   6.595   1.997  10.401 -1.3352  1.9651 -1.5969
 9202TIP3   OH251800   2.081   0.231  11.508 -0.3826  0.2800 -0.3837
 9202TIP3    H151801   1.994   0.258  11.476  0.1097  0.8041 -1.3061
 9202TIP3    H251802   2.107   0.160  11.450 -0.2721 -0.0123  0.0190
 9203TIP3   OH251803   2.856   6.776  11.582  0.3718  0.0843 -0.1849
 9203TIP3    H151804   2.845   6.685  11.610  2.0898  0.0723  0.5847
 9203TIP3    H251805   2.845   6.774  11.487 -1.5712 -0.5563  0.0069
 9204TIP3   OH251806   6.488   2.639   9.951  0.4659 -0.2643  0.0385
 9204TIP3    H151807   6.481   2.691   9.872 -0.6998 -2.1826 -1.2253
 9204TIP3    H251808   6.398   2.609   9.968  0.7955 -0.4254  1.7190
 9205TIP3   OH251809   2.141   2.349   9.860 -0.2159 -0.3523  0.0641
 9205TIP3    H151810   2.120   2.362   9.952 -0.6710 -0.9490  0.0504
 9205TIP3    H251811   2.156   2.255   9.851 -0.6773 -0.3784 -0.5646
 9206TIP3   OH251812   6.856   1.041  12.180  0.2343  0.7213  0.0730
 9206TIP3    H151813   6.852   1.137  12.175 -0.0892  0.7456  0.6666
 9206TIP3    H251814   6.813   1.020  12.263  2.9248  0.2319  1.4489
 9207TIP3   OH251815   6.506   5.599  10.196  0.0035  0.3151 -0.3314
 9207TIP3    H151816   6.595   5.594  10.230 -0.0329 -0.5021 -0.3253
 9207TIP3    H251817   6.450   5.584  10.272 -0.1637  1.4769 -0.2171
 9208TIP3   OH251818   6.472   5.759   9.835 -0.7602 -0.0789 -0.2723
 9208TIP3    H151819   6.398   5.705   9.863 -0.7619 -0.5638 -1.1633
 9208TIP3    H251820   6.441   5.805   9.757 -0.1445 -0.2867 -0.6584
 9209TIP3   OH251821   1.003   2.884   9.667 -0.4524  0.0295 -0.2594
 9209TIP3    H151822   0.920   2.900   9.712  0.7961  2.3508  1.4467
 9209TIP3    H251823   0.992   2.799   9.624 -2.5820 -1.2607  2.5514
 9210TIP3   OH251824   5.610   6.851  10.548 -0.6818  0.8130  0.1510
 9210TIP3    H151825   5.668   6.918  10.586 -1.2927  0.5331  1.6223
 9210TIP3    H251826   5.635   6.849  10.456  0.0349  2.3727  0.2661
 9211TIP3   OH251827   5.212   4.112  10.220 -0.4867 -0.1245  0.2660
 9211TIP3    H151828   5.210   4.170  10.143  0.8026 -1.4180 -0.7977
 9211TIP3    H251829   5.121   4.085  10.231 -0.7215  0.2204 -0.6949
 9212TIP3   OH251830   2.475   7.187   9.728 -0.1353  0.9443  0.3661
 9212TIP3    H151831   2.546   7.249   9.716  1.3345 -0.4849  1.2951
 9212TIP3    H251832   2.455   7.155   9.640  0.2339  1.4981  0.0816
 9213TIP3   OH251833   4.887   1.659   9.990 -0.3401 -0.0979 -0.1504
 9213TIP3    H151834   4.872   1.608  10.070  0.3533 -0.1278 -0.0273
 9213TIP3    H251835   4.880   1.595   9.919 -1.9306  0.1069 -0.2114
 9214TIP3   OH251836   4.678   4.677  10.184  0.4138 -0.5560 -0.4666
 9214TIP3    H151837   4.751   4.616  10.195  0.8268  0.2715  1.8872
 9214TIP3    H251838   4.618   4.656  10.255 -0.2698  0.6689 -0.6574
 9215TIP3   OH251839   2.539   2.399  10.892 -0.5849 -0.1699  0.3429
 9215TIP3    H151840   2.452   2.369  10.866 -0.5281  0.1789 -0.2695
 9215TIP3    H251841   2.537   2.400  10.987 -1.5384  0.6478  0.3286
 9216TIP3   OH251842   1.629   1.190  12.264  0.0565 -0.1912 -0.1618
 9216TIP3    H151843   1.611   1.130  12.337  2.7570 -0.9875 -0.0441
 9216TIP3    H251844   1.722   1.179  12.246 -0.3073  0.6580 -3.1697
 9217TIP3   OH251845   3.475   1.356  11.405 -0.0620  0.0488 -0.0338
 9217TIP3    H151846   3.538   1.286  11.423  1.0899  0.6102 -1.6904
 9217TIP3    H251847   3.509   1.432  11.452  0.5082  0.3481 -0.9160
 9218TIP3   OH251848   2.156   2.463  12.065 -0.2203  0.0254 -0.2113
 9218TIP3    H151849   2.129   2.551  12.037  0.6743  0.1991 -0.5521
 9218TIP3    H251850   2.113   2.451  12.150 -0.1870  0.8744 -0.0676
 9219TIP3   OH251851   6.093   2.246  11.448 -0.0843  0.5409 -0.1988
 9219TIP3    H151852   6.073   2.312  11.382 -0.0020  1.1806  0.4116
 9219TIP3    H251853   6.085   2.291  11.532 -1.5132 -0.5881  0.3149
 9220TIP3   OH251854   7.039   7.082  11.147  0.3779  0.1965 -0.1579
 9220TIP3    H151855   7.011   7.104  11.236  0.0114  0.0807 -0.2412
 9220TIP3    H251856   7.108   7.144  11.127  1.0505 -0.3174  0.5197
 9221TIP3   OH251857   4.143   4.358  11.229  0.2688 -0.2796 -0.5329
 9221TIP3    H151858   4.071   4.298  11.214 -0.8541  0.3212  1.9598
 9221TIP3    H251859   4.171   4.341  11.319  0.4290  2.3078  0.0109
 9222TIP3   OH251860   5.267   1.537  11.686 -0.0537  0.5512 -0.0550
 9222TIP3    H151861   5.275   1.571  11.597 -0.9729  1.1273  0.0732
 9222TIP3    H251862   5.174   1.513  11.694 -0.1294  1.1330  0.9687
 9223TIP3   OH251863   1.831   2.654  11.094  0.3085 -0.1091  0.2831
 9223TIP3    H151864   1.803   2.588  11.029  0.9634 -1.0109  0.9000
 9223TIP3    H251865   1.925   2.661  11.082  0.2276  0.8459  0.1286
 9224TIP3   OH251866   0.236   1.066   9.788 -0.9529 -0.2542 -0.2907
 9224TIP3    H151867   0.261   0.979   9.757 -0.1398 -0.3233  0.5345
 9224TIP3    H251868   0.318   1.107   9.813 -1.6212 -0.7548  3.2397
 9225TIP3   OH251869   1.405   5.291   9.523 -0.4371  0.4661 -0.7190
 9225TIP3    H151870   1.448   5.291   9.608  0.2923  0.4643 -1.0773
 9225TIP3    H251871   1.424   5.205   9.486 -0.2769  0.6702 -1.1160
 9226TIP3   OH251872   4.597   0.339   9.576  0.3227  0.5416  0.3212
 9226TIP3    H151873   4.556   0.271   9.522 -2.3918  1.4827  1.0134
 9226TIP3    H251874   4.614   0.295   9.660  1.7731 -0.1279 -0.2927
 9227TIP3   OH251875   3.353   3.977  10.114  0.0218 -0.3333 -0.2472
 9227TIP3    H151876   3.358   3.965  10.019 -2.4097 -0.7218 -0.3961
 9227TIP3    H251877   3.343   4.071  10.126 -0.5361 -0.3649 -0.4433
 9228TIP3   OH251878   5.618   1.185  10.415  0.2179 -0.0704  0.0203
 9228TIP3    H151879   5.540   1.228  10.381  0.1714 -0.2803 -0.1425
 9228TIP3    H251880   5.592   1.154  10.502  0.0555 -0.3112 -0.1124
 9229TIP3   OH251881   1.275   2.960   9.809 -0.4139 -0.9780 -0.1513
 9229TIP3    H151882   1.190   2.971   9.766 -0.1417  2.3153 -0.1241
 9229TIP3    H251883   1.326   2.908   9.747 -1.3246  0.1924 -1.9805
 9230TIP3   OH251884   7.283   1.793  10.593 -0.1343  0.3722 -0.2862
 9230TIP3    H151885   7.291   1.882  10.627 -0.1549  0.0963  0.4609
 9230TIP3    H251886   7.260   1.804  10.501 -2.2285  1.1468  0.2840
 9231TIP3   OH251887   6.893   5.373  10.425  0.2797  0.7279  0.0524
 9231TIP3    H151888   6.986   5.397  10.422  0.2132  0.9043 -2.1788
 9231TIP3    H251889   6.886   5.316  10.501  2.8337 -1.6270 -1.2892
 9232TIP3   OH251890   2.233   6.787  10.829 -0.1274  0.1160 -0.3939
 9232TIP3    H151891   2.283   6.721  10.782 -1.1068 -0.4758 -0.6403
 9232TIP3    H251892   2.299   6.848  10.864  0.8437 -1.3008  0.3405
 9233TIP3   OH251893   6.693   3.691  10.457  0.6220 -0.3100  0.4507
 9233TIP3    H151894   6.644   3.768  10.427  2.2126  0.2199 -0.9048
 9233TIP3    H251895   6.743   3.663  10.381  2.4474 -0.8227  1.7620
 9234TIP3   OH251896   0.845   2.436  10.389  0.5404  0.3105 -0.0645
 9234TIP3    H151897   0.795   2.518  10.393  0.3712  0.2486 -0.7742
 9234TIP3    H251898   0.875   2.423  10.479 -1.3976 -0.0659  0.5835
 9235TIP3   OH251899   6.899   2.546  12.205 -0.0349  0.1352  0.0438
 9235TIP3    H151900   6.992   2.562  12.190 -0.5851  2.8808 -1.1894
 9235TIP3    H251901   6.872   2.616  12.266 -1.5458  0.3170 -0.7745
 9236TIP3   OH251902   0.413   1.451   9.815  0.3393  0.0251  0.5884
 9236TIP3    H151903   0.363   1.528   9.787  0.1910 -0.1012  0.5014
 9236TIP3    H251904   0.356   1.377   9.794  1.5064 -0.3003 -1.6807
 9237TIP3   OH251905   5.829   3.467  10.475  1.1055 -0.9388  0.2718
 9237TIP3    H151906   5.734   3.468  10.470  1.1797 -0.5019 -2.0384
 9237TIP3    H251907   5.848   3.499  10.563 -0.8755 -0.3689  0.5461
 9238TIP3   OH251908   5.033   0.496  11.416 -0.1143  0.5294 -0.0189
 9238TIP3    H151909   5.077   0.493  11.502 -1.0917  0.2485  0.4891
 9238TIP3    H251910   5.074   0.569  11.371 -0.7107  1.7735  1.3461
 9239TIP3   OH251911   2.345   1.621  10.400 -0.3164  0.2136  0.4340
 9239TIP3    H151912   2.319   1.529  10.399 -0.1381  0.1392 -1.2001
 9239TIP3    H251913   2.433   1.622  10.362 -0.9410  1.1782 -1.1051
 9240TIP3   OH251914   1.769   5.858   9.313  0.6460  0.1235  0.3633
 9240TIP3    H151915   1.805   5.911   9.243  0.1291 -0.3570 -0.2834
 9240TIP3    H251916   1.736   5.779   9.269  0.8555 -0.4589  1.2185
 9241TIP3   OH251917   0.338   2.696  10.110 -0.9471  0.2294  0.3948
 9241TIP3    H151918   0.335   2.644  10.190  0.5498 -0.7102 -0.1094
 9241TIP3    H251919   0.333   2.631  10.039 -1.3619  0.9728 -0.2673
 9242TIP3   OH251920   7.432   6.352  10.907  0.4504  0.0044  0.3646
 9242TIP3    H151921   7.516   6.323  10.941  0.5840 -1.3197 -0.9911
 9242TIP3    H251922   7.373   6.278  10.921  0.0047  0.1973 -0.4074
 9243TIP3   OH251923   4.375   1.318  11.647 -0.2857 -0.3383 -0.0150
 9243TIP3    H151924   4.339   1.406  11.662  1.8906  0.5793  0.2670
 9243TIP3    H251925   4.353   1.268  11.725  2.2188  1.3595  1.9554
 9244TIP3   OH251926   3.322   1.084  10.523 -0.2437  0.1793 -0.0395
 9244TIP3    H151927   3.304   1.146  10.593 -0.8465 -0.5763  0.4946
 9244TIP3    H251928   3.415   1.095  10.505  0.1783 -0.3401  1.6234
 9245TIP3   OH251929   5.442   1.392  10.136 -0.6134  0.1787  0.0381
 9245TIP3    H151930   5.503   1.458  10.102 -0.3975  0.0625  0.1950
 9245TIP3    H251931   5.443   1.322  10.071 -0.1796 -0.0561  0.2945
 9246TIP3   OH251932   5.244   0.909  10.375  0.1592  0.3743 -0.3672
 9246TIP3    H151933   5.226   0.987  10.426  0.3821  0.6841 -0.7532
 9246TIP3    H251934   5.313   0.936  10.314  0.1021 -0.0680 -0.6324
 9247TIP3   OH251935   6.231   4.470  11.331  0.0844  0.5346  0.0764
 9247TIP3    H151936   6.243   4.495  11.422  1.8990  1.2417 -0.3177
 9247TIP3    H251937   6.236   4.553  11.282 -0.8197  0.1659 -0.6828
 9248TIP3   OH251938   4.911   4.876  10.446  0.4267 -0.0905  0.4673
 9248TIP3    H151939   4.957   4.907  10.368 -0.8232 -1.2963 -0.8066
 9248TIP3    H251940   4.896   4.955  10.498  2.3760  0.5624  0.1295
 9249TIP3   OH251941   7.246   0.675  11.631 -0.2163 -0.2565  0.2318
 9249TIP3    H151942   7.278   0.758  11.596 -1.3933  0.2486  0.3139
 9249TIP3    H251943   7.291   0.608  11.579 -0.9918  0.4616 -1.4299
 9250TIP3   OH251944   7.293   4.382  11.186 -0.1168 -0.5436 -0.2650
 9250TIP3    H151945   7.363   4.327  11.219  0.6592  1.1766  1.0945
 9250TIP3    H251946   7.320   4.405  11.097 -0.1677 -1.8167 -0.6311
 9251TIP3   OH251947   2.681   5.487  10.436 -0.5814 -0.1603 -0.1520
 9251TIP3    H151948   2.618   5.475  10.507 -1.5705  2.7022 -0.4051
 9251TIP3    H251949   2.674   5.407  10.384 -2.5746 -0.7595  0.9314
 9252TIP3   OH251950   5.903   3.518  11.186 -0.5900  0.0041  0.4565
 9252TIP3    H151951   5.877   3.604  11.151  1.6464  0.4772 -0.1564
 9252TIP3    H251952   5.926   3.536  11.277  1.7587  0.5201 -0.1767
 9253TIP3   OH251953   2.940   5.906  10.408 -0.7106 -0.2607  0.1758
 9253TIP3    H151954   2.950   5.828  10.353 -0.1063 -1.0741  1.3949
 9253TIP3    H251955   2.960   5.876  10.497  0.6938  1.5133  0.5401
 9254TIP3   OH251956   4.136   4.986  10.966  0.1160 -0.1076 -0.4693
 9254TIP3    H151957   4.046   4.959  10.949 -0.1750  0.9664 -0.7112
 9254TIP3    H251958   4.185   4.904  10.971 -0.9804 -0.7434  0.3458
 9255TIP3   OH251959   2.611   5.482   9.329  0.1337  0.4806  0.4477
 9255TIP3    H151960   2.586   5.433   9.251  2.7795 -1.1588  0.5150
 9255TIP3    H251961   2.605   5.574   9.303  0.9071 -0.0280 -1.6986
 9256TIP3   OH251962   5.480   2.765  10.580  0.0221 -0.0675  0.6118
 9256TIP3    H151963   5.418   2.804  10.517 -1.2205 -0.7273  1.3969
 9256TIP3    H251964   5.429   2.698  10.626  1.3018 -0.5563  1.3622
 9257TIP3   OH251965   0.336   6.860   9.750  0.6373 -0.2969 -0.7673
 9257TIP3    H151966   0.366   6.857   9.841 -2.3212 -1.0941  0.3102
 9257TIP3    H251967   0.273   6.932   9.748 -0.3546 -1.1585 -1.7969
 9258TIP3   OH251968   4.683   3.335  11.262  0.5013 -0.2609  0.2991
 9258TIP3    H151969   4.608   3.276  11.268  0.7370 -0.6315 -0.2631
 9258TIP3    H251970   4.745   3.301  11.327 -0.2447  0.7061  1.5495
 9259TIP3   OH251971   0.107   4.286  10.433 -0.1970  0.0509  0.9386
 9259TIP3    H151972   0.034   4.323  10.383  1.6501  0.7854 -1.3534
 9259TIP3    H251973   0.118   4.347  10.507 -1.3946  0.3378  0.9075
 9260TIP3   OH251974   3.994   2.124  11.761  0.1739 -0.1298 -0.3654
 9260TIP3    H151975   3.942   2.200  11.786  0.1285 -0.1697 -0.3390
 9260TIP3    H251976   3.963   2.101  11.674 -0.0579 -0.3314 -0.2336
 9261TIP3   OH251977   3.165   0.800  11.378 -0.4563  0.6017 -0.1134
 9261TIP3    H151978   3.229   0.863  11.344  0.3614  0.6450  1.4393
 9261TIP3    H251979   3.128   0.759  11.299  0.9399  1.0974 -1.0630
 9262TIP3   OH251980   2.574   1.169   9.575 -0.1461 -0.8357 -0.4614
 9262TIP3    H151981   2.521   1.196   9.500 -1.5204 -0.1280  0.7013
 9262TIP3    H251982   2.527   1.094   9.612 -1.4756  0.8953  1.6504
 9263TIP3   OH251983   6.088   4.692  11.132 -0.3325  0.4634  0.0143
 9263TIP3    H151984   6.145   4.668  11.059 -1.2384 -0.1116 -0.5154
 9263TIP3    H251985   6.018   4.627  11.130 -1.8323  2.0270 -0.3002
 9264TIP3   OH251986   6.045   7.036  11.335  0.2147  0.0363 -0.7943
 9264TIP3    H151987   6.004   7.004  11.416  0.4344  1.0943 -0.2436
 9264TIP3    H251988   6.123   6.982  11.325  0.4866  0.2530  0.0202
 9265TIP3   OH251989   6.066   2.151  11.809  0.2292  0.0796 -0.0299
 9265TIP3    H151990   6.088   2.127  11.899  1.6688 -0.9809 -0.6227
 9265TIP3    H251991   6.076   2.246  11.806  0.9211  0.0399  0.7381
 9266TIP3   OH251992   6.210   1.957  11.292 -0.0859  0.0279  0.0288
 9266TIP3    H151993   6.295   1.937  11.331 -0.2173  0.6508  0.6556
 9266TIP3    H251994   6.171   2.022  11.351 -0.7147  0.2446 -0.6073
 9267TIP3   OH251995   4.901   5.788  10.284  0.3098 -0.2888  0.0797
 9267TIP3    H151996   4.968   5.788  10.215 -1.1366 -1.8630 -1.4255
 9267TIP3    H251997   4.859   5.874  10.277  2.6612  1.1189  1.6778
 9268TIP3   OH251998   5.966   7.202   9.697  0.0879 -0.2292  0.3241
 9268TIP3    H151999   6.021   7.278   9.717  0.9033 -0.9135  0.7617
 9268TIP3    H252000   6.029   7.130   9.684 -0.5671 -0.5182 -1.5936
 9269TIP3   OH252001   0.044   5.104  11.748 -0.5687 -0.5907 -0.3541
 9269TIP3    H152002   0.068   5.026  11.798  1.0104 -1.0695 -1.7675
 9269TIP3    H252003   0.127   5.137  11.714 -1.0654  2.2224  0.8629
 9270TIP3   OH252004   3.920   4.559   9.755 -0.3279 -0.3308  0.0395
 9270TIP3    H152005   3.859   4.528   9.688  0.8282 -0.7286 -0.8632
 9270TIP3    H252006   3.896   4.510   9.834 -2.3013  0.7950  0.2175
 9271TIP3   OH252007   1.884   5.193  12.035 -0.3704 -0.0431 -0.1839
 9271TIP3    H152008   1.893   5.131  11.963 -0.3503  0.7032 -0.8296
 9271TIP3    H252009   1.921   5.275  12.002 -1.3396  0.6008  0.2803
 9272TIP3   OH252010   4.525   7.065  10.778  0.1922  0.4076 -0.2741
 9272TIP3    H152011   4.497   7.136  10.720 -2.4104  0.8424  1.3553
 9272TIP3    H252012   4.453   7.002  10.775  1.0973 -0.7135  0.6300
 9273TIP3   OH252013   1.742   4.062  12.079 -0.1009  0.0738 -0.5987
 9273TIP3    H152014   1.723   4.034  11.989 -0.3223  2.0961 -1.2338
 9273TIP3    H252015   1.656   4.066  12.121 -0.3953  2.1416 -1.2824
 9274TIP3   OH252016   4.593   5.130  10.787 -0.0261  0.4425  0.4878
 9274TIP3    H152017   4.609   5.130  10.881  1.1571 -0.3052  0.3201
 9274TIP3    H252018   4.681   5.131  10.748 -0.4851  0.2796 -0.5935
 9275TIP3   OH252019   3.308   3.194  10.246 -0.4255 -0.7172 -0.4449
 9275TIP3    H152020   3.383   3.140  10.221 -0.2004 -1.5900  1.8722
 9275TIP3    H252021   3.291   3.170  10.337 -0.3441  3.0667  0.7381
 9276TIP3   OH252022   0.038   0.511  11.838  0.0135  0.7347 -0.1594
 9276TIP3    H152023  -0.003   0.461  11.909  0.2049 -0.1371 -0.6442
 9276TIP3    H252024   0.126   0.529  11.870  0.1452  0.2265 -0.2225
 9277TIP3   OH252025   0.957   6.830  10.448 -0.1357  0.2338 -0.3800
 9277TIP3    H152026   1.031   6.848  10.506  0.1420 -1.6130 -0.1151
 9277TIP3    H252027   0.976   6.743  10.412 -2.1527 -0.2455 -0.3612
 9278TIP3   OH252028   6.727   4.718  10.271 -0.3552 -0.4946  0.0574
 9278TIP3    H152029   6.810   4.766  10.273  0.2230 -1.4253 -0.7251
 9278TIP3    H252030   6.660   4.786  10.273  0.4085  0.2510  1.4005
 9279TIP3   OH252031   6.976   0.933  11.441 -0.1052  0.4390  0.4537
 9279TIP3    H152032   7.047   0.869  11.435  0.2665  0.8642  0.1984
 9279TIP3    H252033   6.906   0.896  11.388  0.3834  0.5877 -0.3180
 9280TIP3   OH252034   5.865   5.719  12.163  0.1089  0.1749  0.0502
 9280TIP3    H152035   5.957   5.742  12.146  0.0501  0.0236 -0.4866
 9280TIP3    H252036   5.838   5.779  12.233  0.7536 -0.0949  0.5447
 9281TIP3   OH252037   7.126   3.596  11.024 -0.0701  0.2466  0.0517
 9281TIP3    H152038   7.101   3.602  10.932 -0.4632  0.9841  0.1921
 9281TIP3    H252039   7.221   3.607  11.025  0.1583 -1.4596 -0.3986
 9282TIP3   OH252040   2.993   6.936  12.416 -0.4278  0.2900  0.3408
 9282TIP3    H152041   2.991   6.939  12.511 -1.8596 -0.3257  0.3562
 9282TIP3    H252042   2.904   6.957  12.389  0.5265  3.1382 -0.9948
 9283TIP3   OH252043   7.104   1.172  11.497  0.3525  0.1454 -0.2435
 9283TIP3    H152044   7.184   1.127  11.525 -0.2155 -0.8464 -0.1583
 9283TIP3    H252045   7.049   1.102  11.462 -0.9235  0.6205  0.7367
 9284TIP3   OH252046   6.133   1.739  10.802  0.1891  0.4029  0.0083
 9284TIP3    H152047   6.177   1.820  10.828 -0.8462  0.5831  1.2869
 9284TIP3    H252048   6.204   1.675  10.796  0.7102  0.7503  1.7904
 9285TIP3   OH252049   4.962   6.210  11.572  0.2638  0.1622  0.1780
 9285TIP3    H152050   4.997   6.132  11.615  1.7518  0.5344 -0.3013
 9285TIP3    H252051   4.879   6.228  11.617 -0.3476 -1.9490 -0.0097
 9286TIP3   OH252052   7.247   4.955   9.939  0.4582 -0.0026  0.4015
 9286TIP3    H152053   7.212   5.039   9.970  0.4750  1.2309 -2.5484
 9286TIP3    H252054   7.170   4.899   9.931 -0.0356  0.7640 -0.4683
 9287TIP3   OH252055   7.270   1.352  12.684  0.2791 -0.1503  0.0727
 9287TIP3    H152056   7.239   1.427  12.634  0.3448 -0.3296 -0.2375
 9287TIP3    H252057   7.202   1.338  12.751 -0.6935 -0.9956 -1.0506
 9288TIP3   OH252058   3.036   3.623  11.810 -0.5072  0.5183  0.4454
 9288TIP3    H152059   3.022   3.553  11.874 -1.0822 -0.2023 -0.4495
 9288TIP3    H252060   2.949   3.647  11.781 -0.2061 -0.0500 -0.9973
 9289TIP3   OH252061   5.013   7.105  11.715  0.3718  0.1284 -0.2906
 9289TIP3    H152062   5.025   7.196  11.687  0.8392  0.1382 -0.0768
 9289TIP3    H252063   5.079   7.092  11.784  0.6636 -0.5275 -0.6789
 9290TIP3   OH252064   5.482   4.937   9.775  0.2887 -0.2482 -0.4243
 9290TIP3    H152065   5.570   4.916   9.746  0.1674 -0.6726 -0.5048
 9290TIP3    H252066   5.436   4.852   9.776  0.2644 -0.2548  0.9231
 9291TIP3   OH252067   7.086   6.356   9.885  0.2698 -0.4008 -0.0093
 9291TIP3    H152068   7.139   6.298   9.831 -1.5963 -2.1114 -0.0991
 9291TIP3    H252069   7.121   6.346   9.973  1.1911 -0.1563 -0.3350
 9292TIP3   OH252070   5.646   6.455  10.052 -0.0801  0.3259  0.0988
 9292TIP3    H152071   5.663   6.549  10.044 -1.0676  0.5286  0.1922
 9292TIP3    H252072   5.665   6.420   9.964  2.3185  0.2280  0.5871
 9293TIP3   OH252073   1.278   3.042  11.453  0.2314 -0.1176  0.8301
 9293TIP3    H152074   1.362   3.000  11.469  0.0458  0.2762  3.0976
 9293TIP3    H252075   1.300   3.121  11.404  1.0495 -0.5753  0.4394
 9294TIP3   OH252076   2.199   2.950  11.222  0.8004  0.0679 -0.3424
 9294TIP3    H152077   2.262   2.917  11.287  0.8706  1.0384  0.0969
 9294TIP3    H252078   2.163   3.029  11.262  0.2074  0.2013 -1.1301
 9295TIP3   OH252079   5.524   6.949   9.634  0.0766  0.2871 -0.5360
 9295TIP3    H152080   5.443   6.980   9.593  0.9485  2.2479 -0.8946
 9295TIP3    H252081   5.510   6.855   9.645 -1.7060  0.3297 -1.8376
 9296TIP3   OH252082   3.142   2.289  10.302 -0.0966 -0.2352 -0.2266
 9296TIP3    H152083   3.071   2.267  10.242  0.1100  1.3559 -1.1208
 9296TIP3    H252084   3.138   2.385  10.310  0.6900 -0.2858  1.3098
 9297TIP3   OH252085   0.837   3.291  10.841 -0.2375  0.1902  0.9117
 9297TIP3    H152086   0.921   3.334  10.856 -0.1973 -0.3329  2.2708
 9297TIP3    H252087   0.828   3.290  10.745  1.1933  0.4535  0.7501
 9298TIP3   OH252088   5.633   7.457  10.807  0.3528  0.7182  0.3388
 9298TIP3    H152089   5.612   7.467  10.900 -0.8000  0.9954  0.0621
 9298TIP3    H252090   5.603   7.369  10.785  0.2703  0.7986  0.1333
 9299TIP3   OH252091   6.348   1.203  12.006  0.3184 -0.0214 -0.0532
 9299TIP3    H152092   6.381   1.283  12.047 -0.8648  0.0841  0.7399
 9299TIP3    H252093   6.284   1.234  11.942  0.4297 -0.3053 -0.3032
 9300TIP3   OH252094   3.469   2.545  11.181 -0.0640  0.0057 -0.2007
 9300TIP3    H152095   3.532   2.614  11.161 -0.3378  1.1019  2.3292
 9300TIP3    H252096   3.513   2.491  11.247 -1.6905  0.7681  1.5876
 9301TIP3   OH252097   2.667   6.663  12.606 -0.1083  0.2083 -0.0698
 9301TIP3    H152098   2.686   6.740  12.660  2.0207  0.3041 -0.8365
 9301TIP3    H252099   2.749   6.647  12.559 -0.9205 -1.7595 -0.9052
 9302TIP3   OH252100   4.070   5.608  10.771 -0.8745 -0.5593 -0.1765
 9302TIP3    H152101   4.047   5.594  10.679 -0.4713 -0.0504 -0.3632
 9302TIP3    H252102   4.100   5.699  10.774 -1.4156 -0.3963  0.5716
 9303TIP3   OH252103   2.258   5.543  12.649 -0.6481  0.1831  0.0877
 9303TIP3    H152104   2.247   5.455  12.613 -0.0766  0.6603 -1.3119
 9303TIP3    H252105   2.283   5.597  12.574 -0.9950  1.5495  0.9240
 9304TIP3   OH252106   7.303   1.756  12.380 -0.8931 -0.1811 -0.1461
 9304TIP3    H152107   7.373   1.819  12.397 -1.2053 -0.4496  2.5326
 9304TIP3    H252108   7.241   1.803  12.324 -0.6385  1.5348  0.9458
 9305TIP3   OH252109   5.161   4.609  11.188  0.1889  0.1390  0.1189
 9305TIP3    H152110   5.204   4.616  11.103 -1.0332  2.2871 -0.3753
 9305TIP3    H252111   5.118   4.523  11.186  1.0636 -0.3013 -0.9609
 9306TIP3   OH252112   6.178   5.211   9.713 -0.2849  0.2838 -0.0900
 9306TIP3    H152113   6.085   5.222   9.735 -1.0046  0.5314 -2.8264
 9306TIP3    H252114   6.224   5.270   9.773 -1.8793  0.1636  1.3326
 9307TIP3   OH252115   2.353   1.729  12.469 -0.1616  0.5412  0.3158
 9307TIP3    H152116   2.393   1.725  12.382 -1.3940 -0.0479 -0.2373
 9307TIP3    H252117   2.391   1.655  12.516 -1.3779 -0.6914 -0.5678
 9308TIP3   OH252118   6.157   7.011   9.779 -0.3710 -0.3234 -0.3968
 9308TIP3    H152119   6.235   7.011   9.835  0.4476 -2.0738 -1.4385
 9308TIP3    H252120   6.086   6.985   9.837  0.3454 -1.4577  0.0067
 9309TIP3   OH252121   2.521   4.315  11.305 -0.2347  0.1889  0.4303
 9309TIP3    H152122   2.432   4.348  11.289  0.2723  1.0280 -0.7974
 9309TIP3    H252123   2.572   4.348  11.231  0.4147 -3.0411 -0.6827
 9310TIP3   OH252124   6.683   0.133  12.699 -0.0214 -0.5932  0.1467
 9310TIP3    H152125   6.604   0.187  12.695  0.4922  0.1365 -0.1608
 9310TIP3    H252126   6.650   0.046  12.724 -0.8407 -0.1349  0.7187
 9311TIP3   OH252127   2.536   4.755  11.904  0.0951  0.6462  0.4186
 9311TIP3    H152128   2.521   4.668  11.868 -0.5580  1.3635 -1.1449
 9311TIP3    H252129   2.461   4.771  11.961  0.3031  0.1340  0.8444
 9312TIP3   OH252130   0.927   0.810  10.106 -0.1949  0.1524 -0.0675
 9312TIP3    H152131   0.954   0.763  10.028 -0.6582 -1.0079  0.4398
 9312TIP3    H252132   0.991   0.881  10.115  2.8873 -2.5035  1.1673
 9313TIP3   OH252133   7.274   5.092   9.310 -0.6384  0.4688 -0.1893
 9313TIP3    H152134   7.330   5.162   9.277 -0.6519 -0.0396 -1.3452
 9313TIP3    H252135   7.325   5.049   9.379 -0.0412  0.6839 -0.4979
 9314TIP3   OH252136   3.083   6.542  11.072 -0.2369 -0.3922 -0.4514
 9314TIP3    H152137   3.133   6.521  11.152  0.3286  0.5462 -0.5446
 9314TIP3    H252138   2.995   6.562  11.103  0.2972  1.2426  0.1151
 9315TIP3   OH252139   1.735   4.901  11.403  0.2257 -0.0371 -0.1274
 9315TIP3    H152140   1.786   4.922  11.324 -0.5639  0.8126 -0.4261
 9315TIP3    H252141   1.783   4.828  11.443  1.2980  0.2870 -0.7591
 9316TIP3   OH252142   3.120   5.867  11.764 -0.2676 -0.4338 -0.5811
 9316TIP3    H152143   3.062   5.818  11.822 -0.1218 -2.7377 -2.2251
 9316TIP3    H252144   3.095   5.839  11.676  1.7244  0.3256 -1.4476
 9317TIP3   OH252145   2.501   0.486  10.028  0.0809  0.1963 -0.3047
 9317TIP3    H152146   2.543   0.415   9.979 -0.3322 -0.1767 -0.1298
 9317TIP3    H252147   2.409   0.483  10.001 -0.0019  0.4514 -0.0552
 9318TIP3   OH252148   2.897   4.425  11.478 -0.0029 -0.6772 -0.8359
 9318TIP3    H152149   2.921   4.396  11.390  0.7574  0.7175 -1.1087
 9318TIP3    H252150   2.838   4.499  11.463 -3.5135 -3.0696 -0.1824
 9319TIP3   OH252151   1.840   2.056  11.617  0.4713  0.1735  0.0194
 9319TIP3    H152152   1.805   1.967  11.617  0.9941 -0.0387 -0.3753
 9319TIP3    H252153   1.774   2.107  11.570 -0.8017  0.4076  1.9635
 9320TIP3   OH252154   6.703   1.778  11.434  0.1775  0.1941  0.2947
 9320TIP3    H152155   6.733   1.826  11.357 -0.6876  0.8929  0.3859
 9320TIP3    H252156   6.613   1.807  11.448 -1.5859 -3.6611 -1.4879
 9321TIP3   OH252157   6.444   6.364   9.463  0.2019 -0.2594 -0.6183
 9321TIP3    H152158   6.504   6.297   9.430  0.8562 -0.0579  0.1386
 9321TIP3    H252159   6.481   6.446   9.430 -0.3046 -0.2194 -1.1033
 9322TIP3   OH252160   6.020   1.229   9.904 -1.0170  0.2757 -0.3620
 9322TIP3    H152161   6.065   1.145   9.910 -1.3053  0.1777  0.6602
 9322TIP3    H252162   5.935   1.208   9.865 -1.9410 -0.2922  1.7882
 9323TIP3   OH252163   1.821   2.388  10.463  0.0349 -0.9820 -0.0610
 9323TIP3    H152164   1.784   2.465  10.506 -0.3715 -0.5134 -1.2176
 9323TIP3    H252165   1.745   2.338  10.434  0.1795  0.3273 -3.0728
 9324TIP3   OH252166   1.867   2.982  10.891  0.0886 -0.2020  0.2447
 9324TIP3    H152167   1.877   3.037  10.968 -1.4976  1.1547 -0.4784
 9324TIP3    H252168   1.906   3.032  10.819 -1.1513 -0.0849 -0.3771
 9325TIP3   OH252169   1.377   2.827  12.591 -0.1957 -0.0121  0.1060
 9325TIP3    H152170   1.343   2.903  12.639 -0.2415  1.0509 -1.5119
 9325TIP3    H252171   1.401   2.863  12.506 -1.2758 -2.0265 -1.1144
 9326TIP3   OH252172   1.883   7.312  10.309 -0.1424  0.0904 -0.5219
 9326TIP3    H152173   1.879   7.254  10.386  0.7318  0.6315 -0.0480
 9326TIP3    H252174   1.792   7.331  10.288 -0.3993  1.2734  1.4323
 9327TIP3   OH252175   5.501   4.882  10.648  0.5328 -0.3871 -0.2924
 9327TIP3    H152176   5.555   4.828  10.706  0.2107  0.6912  1.0432
 9327TIP3    H252177   5.538   4.867  10.561  3.5965  0.9381  0.6334
 9328TIP3   OH252178   4.981   7.076   9.745  0.1771 -0.4378 -0.1553
 9328TIP3    H152179   4.891   7.108   9.743  0.5687  0.6516 -1.1314
 9328TIP3    H252180   5.033   7.150   9.775  0.8827 -0.7060 -0.6782
 9329TIP3   OH252181   2.909   1.977  11.710 -0.4056 -0.2402 -0.3835
 9329TIP3    H152182   2.825   1.959  11.752  0.2589 -0.1817  1.0349
 9329TIP3    H252183   2.954   1.892  11.709 -0.0332 -0.0494 -0.0820
 9330TIP3   OH252184   0.636   4.132  10.028  0.2626  0.3940  0.1852
 9330TIP3    H152185   0.698   4.107   9.959 -0.3820  0.9904 -0.6249
 9330TIP3    H252186   0.682   4.111  10.110  1.1124 -0.1500 -0.4153
 9331TIP3   OH252187   3.781   5.828  10.804 -0.0428  0.0773 -0.2837
 9331TIP3    H152188   3.741   5.884  10.871  1.0003  0.0444  0.3772
 9331TIP3    H252189   3.790   5.743  10.846  4.0642  0.9315  0.9492
 9332TIP3   OH252190   4.070   1.895  10.968  0.0053 -0.2267  0.1065
 9332TIP3    H152191   4.136   1.914  11.035  0.7433 -0.7720 -0.4483
 9332TIP3    H252192   4.018   1.823  11.006  0.1371 -0.2350  0.2741
 9333TIP3   OH252193   1.996   3.222  10.779  0.5259 -0.2241  0.5135
 9333TIP3    H152194   2.035   3.300  10.818  0.2968 -0.5119  1.3315
 9333TIP3    H252195   1.922   3.254  10.729  0.6295  0.1155  0.5761
 9334TIP3   OH252196   4.720   6.706  11.841 -0.1807 -0.0166 -0.3174
 9334TIP3    H152197   4.763   6.652  11.908  0.7052 -1.1378 -1.7283
 9334TIP3    H252198   4.686   6.781  11.889 -0.2835 -1.1719  1.5170
 9335TIP3   OH252199   2.480   1.560   9.648 -0.3460  0.1449  0.2387
 9335TIP3    H152200   2.433   1.485   9.686  0.4475  0.5921  2.2446
 9335TIP3    H252201   2.445   1.636   9.693 -0.0258  0.8330 -0.6477
 9336TIP3   OH252202   3.923   1.713  10.654 -0.0742  0.1968 -0.6052
 9336TIP3    H152203   3.949   1.735  10.744  2.3451  0.0576 -1.1897
 9336TIP3    H252204   3.898   1.620  10.659 -0.5512  0.3500  0.0220
 9337TIP3   OH252205   2.480   3.442  10.130 -0.2472  0.1373  0.0852
 9337TIP3    H152206   2.453   3.387  10.204  0.3756 -0.7286 -0.3113
 9337TIP3    H252207   2.539   3.507  10.168 -0.4350  0.0942  0.4528
 9338TIP3   OH252208   5.885   4.597  11.463  0.3989  0.1226 -0.3812
 9338TIP3    H152209   5.852   4.565  11.547 -2.3528 -0.9562 -1.7521
 9338TIP3    H252210   5.948   4.531  11.436  0.2184 -0.2979  0.1852
 9339TIP3   OH252211   6.286   1.335  11.194 -0.0291 -0.3504  0.0876
 9339TIP3    H152212   6.380   1.319  11.202 -0.1567 -1.7262 -0.7577
 9339TIP3    H252213   6.274   1.358  11.102 -0.6678 -1.5632 -0.1541
 9340TIP3   OH252214   1.474   6.641  11.075  0.1855 -0.4392 -0.1411
 9340TIP3    H152215   1.517   6.580  11.136  0.1557 -1.4991 -1.1380
 9340TIP3    H252216   1.528   6.720  11.078 -0.9232  0.3328  2.7325
 9341TIP3   OH252217   5.651   3.295  12.241  0.2779  0.6856 -0.1739
 9341TIP3    H152218   5.721   3.253  12.192 -0.2637  0.1104 -0.4600
 9341TIP3    H252219   5.697   3.349  12.307  0.9771  0.0465 -0.1254
 9342TIP3   OH252220   5.492   1.225  12.236  0.2853 -0.4942 -0.1364
 9342TIP3    H152221   5.501   1.315  12.269  1.2388 -0.2344 -1.0743
 9342TIP3    H252222   5.580   1.189  12.239  0.3888 -0.5203 -2.2135
 9343TIP3   OH252223   6.521   2.960   9.966 -0.5958 -0.2767  0.0858
 9343TIP3    H152224   6.608   2.931   9.938 -0.6074 -0.6808  0.4588
 9343TIP3    H252225   6.504   3.037   9.912 -0.0791 -0.2929 -0.1153
 9344TIP3   OH252226   6.771   1.245   9.688  0.2802 -0.0541 -0.0590
 9344TIP3    H152227   6.723   1.253   9.771  0.1834  1.6438 -0.2279
 9344TIP3    H252228   6.707   1.207   9.628 -0.1675  0.1619  0.2678
 9345TIP3   OH252229   1.302   1.604  10.780  0.0860 -0.3868 -0.4696
 9345TIP3    H152230   1.385   1.567  10.810 -0.4305 -0.6877  0.6473
 9345TIP3    H252231   1.327   1.685  10.735  0.8568  1.0327  2.2476
 9346TIP3   OH252232   5.447   4.059  10.332  0.3190  0.0194 -0.3416
 9346TIP3    H152233   5.367   4.089  10.290  0.0977 -1.1531 -0.7700
 9346TIP3    H252234   5.467   3.975  10.291  0.4604 -0.8548  1.3919
 9347TIP3   OH252235   4.719   6.167   9.904 -0.0280  0.8845  0.2155
 9347TIP3    H152236   4.648   6.231   9.895 -0.3379  0.6181  0.7687
 9347TIP3    H252237   4.675   6.085   9.925  0.3501  0.4138 -0.7598
 9348TIP3   OH252238   0.490   0.240   9.715 -0.0420  0.6632 -0.0932
 9348TIP3    H152239   0.572   0.196   9.737 -1.1175 -1.0819  0.6642
 9348TIP3    H252240   0.511   0.295   9.640  1.5949 -0.5032 -0.5385
 9349TIP3   OH252241   7.116   4.813  12.053 -0.1884  0.7472 -0.0261
 9349TIP3    H152242   7.129   4.782  12.142 -0.0265  0.0971 -0.2709
 9349TIP3    H252243   7.081   4.902  12.063 -1.7835  0.0825  0.7083
 9350TIP3   OH252244   2.245   1.995  10.202  0.2603 -0.4739  0.2644
 9350TIP3    H152245   2.245   1.952  10.287  0.7686 -0.3173  0.3451
 9350TIP3    H252246   2.279   1.929  10.141 -1.1652 -0.9798 -0.0317
 9351TIP3   OH252247   3.872   4.531  11.318  0.0895 -0.5299 -0.0551
 9351TIP3    H152248   3.875   4.438  11.295 -0.1984 -0.6071  0.2099
 9351TIP3    H252249   3.860   4.576  11.235 -0.9839 -0.8083 -0.0707
 9352TIP3   OH252250   0.120   0.624  10.919 -0.1036  0.0088 -0.1951
 9352TIP3    H152251   0.049   0.653  10.861  1.3884  2.3065 -0.9899
 9352TIP3    H252252   0.187   0.590  10.860  0.6764  0.6407  0.3174
 9353TIP3   OH252253   0.445   5.550  10.393  0.1084  0.4090  0.0884
 9353TIP3    H152254   0.531   5.509  10.396  0.8230  1.7333 -1.2141
 9353TIP3    H252255   0.461   5.638  10.358 -2.1956 -0.7138 -4.6585
 9354TIP3   OH252256   6.944   5.990  10.771 -0.3644 -0.2740 -0.8150
 9354TIP3    H152257   6.959   6.083  10.755  0.7740 -0.8010 -3.1928
 9354TIP3    H252258   7.025   5.960  10.813 -0.6909 -0.2446 -0.1431
 9355TIP3   OH252259   4.117   4.248  11.795  0.2407 -0.1776 -0.2495
 9355TIP3    H152260   4.141   4.209  11.879 -0.0667 -0.8985 -0.4942
 9355TIP3    H252261   4.176   4.209  11.732 -1.0099 -1.3968 -0.7313
 9356TIP3   OH252262   6.223   2.393  12.561 -0.8002  0.3538  0.2106
 9356TIP3    H152263   6.216   2.452  12.635 -0.8390 -0.0971  0.5720
 9356TIP3    H252264   6.135   2.389  12.524 -0.8753  0.2467  0.4022
 9357TIP3   OH252265   2.431   5.610  10.734  0.4089 -0.4253  0.0743
 9357TIP3    H152266   2.427   5.533  10.676  0.5610  0.0119 -0.5268
 9357TIP3    H252267   2.518   5.606  10.773  0.0890 -1.0510  0.7351
 9358TIP3   OH252268   0.846   2.637  11.073  0.2714  0.8740 -0.2830
 9358TIP3    H152269   0.785   2.629  10.999 -0.4961 -1.4903  0.5234
 9358TIP3    H252270   0.920   2.582  11.048  0.3234  0.6306  0.3869
 9359TIP3   OH252271   3.818   2.021  10.551 -0.2000 -0.4641  0.0932
 9359TIP3    H152272   3.835   2.111  10.581 -0.6068 -0.5373  0.5631
 9359TIP3    H252273   3.826   1.968  10.630  2.7086 -1.2479 -0.6207
 9360TIP3   OH252274   6.746   6.338  10.171 -0.1544 -0.1050  0.0713
 9360TIP3    H152275   6.696   6.263  10.138 -1.4009 -1.1131  3.7935
 9360TIP3    H252276   6.837   6.311  10.165 -0.6050 -2.2827  1.9319
 9361TIP3   OH252277   0.610   2.222  10.547 -0.0849  0.1663  0.4589
 9361TIP3    H152278   0.613   2.164  10.623 -1.7006 -2.7704 -1.5006
 9361TIP3    H252279   0.551   2.292  10.572  0.2954 -0.0938  2.2490
 9362TIP3   OH252280   2.056   2.773  10.730 -0.0024  0.0126  0.4229
 9362TIP3    H152281   2.091   2.861  10.716 -0.6587  0.2625  0.2917
 9362TIP3    H252282   2.032   2.771  10.823  0.5630 -0.2431  0.5729
 9363TIP3   OH252283   6.070   0.548  12.229  0.3936 -0.2068 -0.2677
 9363TIP3    H152284   6.069   0.474  12.290  0.6361  1.0252  1.2930
 9363TIP3    H252285   5.982   0.549  12.191  0.8799 -2.2854 -1.6237
 9364TIP3   OH252286   5.900   1.904  11.960 -0.3387 -0.0851  0.2008
 9364TIP3    H152287   5.921   1.880  12.051  0.9119  0.4170  0.0624
 9364TIP3    H252288   5.941   1.990  11.948 -0.8694  0.0503 -0.7119
 9365TIP3   OH252289   6.856   2.962  12.676  0.8338  0.1484 -0.3558
 9365TIP3    H152290   6.951   2.951  12.672  0.5464 -3.8966 -0.2918
 9365TIP3    H252291   6.825   2.943  12.588  0.0057 -0.0594 -0.0334
 9366TIP3   OH252292   6.101   7.246  12.359 -0.2194  0.5275  0.1160
 9366TIP3    H152293   6.124   7.198  12.439  0.3848 -0.5089 -0.6481
 9366TIP3    H252294   6.168   7.220  12.296 -1.5343  0.1346 -1.1708
 9367TIP3   OH252295   1.028   5.428  12.541  0.2495  0.0320 -0.3401
 9367TIP3    H152296   1.006   5.429  12.634  0.5084  1.4058 -0.2789
 9367TIP3    H252297   1.120   5.451  12.537  0.0893  0.5978 -0.9661
 9368TIP3   OH252298   5.439   0.979  10.151 -0.4653 -0.2448 -0.2774
 9368TIP3    H152299   5.445   1.035  10.074  1.0762  0.5643  0.3855
 9368TIP3    H252300   5.481   0.897  10.124 -3.5750 -1.5690 -1.5597
 9369TIP3   OH252301   6.857   6.994  10.217  0.1064  0.0003  0.2368
 9369TIP3    H152302   6.908   7.068  10.183  1.5134 -1.5174 -1.1578
 9369TIP3    H252303   6.780   6.991  10.160  0.5011 -0.1486 -0.3010
 9370TIP3   OH252304   4.722   6.365  10.668  0.2360 -0.5921  0.2009
 9370TIP3    H152305   4.757   6.306  10.735  0.1597 -1.1198 -0.2218
 9370TIP3    H252306   4.730   6.316  10.586  0.1287 -0.0341 -0.1482
 9371TIP3   OH252307   6.068   5.445  11.332  0.4489  0.3671  0.0887
 9371TIP3    H152308   6.008   5.372  11.320  0.6655  0.1336  0.4011
 9371TIP3    H252309   6.149   5.417  11.289  0.1507  0.9297 -0.8660
 9372TIP3   OH252310   3.735   3.777  10.548 -0.0644 -1.0743 -0.6242
 9372TIP3    H152311   3.647   3.785  10.584 -0.2718 -1.6751 -0.9745
 9372TIP3    H252312   3.748   3.683  10.537  0.5375 -0.9803 -0.7888
 9373TIP3   OH252313   5.839   1.626  10.756 -0.1140 -0.0995 -0.1313
 9373TIP3    H152314   5.791   1.547  10.779  1.6434 -1.7127 -1.7029
 9373TIP3    H252315   5.802   1.653  10.671  0.7788 -0.5822 -0.6947
 9374TIP3   OH252316   1.645   6.872  11.108  0.0864  0.4371 -0.2267
 9374TIP3    H152317   1.570   6.922  11.138 -0.1062  0.2319 -0.3609
 9374TIP3    H252318   1.719   6.904  11.160 -0.0173  0.9231 -0.3753
 9375TIP3   OH252319   4.267   1.136  10.561  0.1768  0.0363 -0.2646
 9375TIP3    H152320   4.248   1.076  10.489 -0.1909 -2.3540  1.6886
 9375TIP3    H252321   4.298   1.079  10.632 -0.0945  2.1794  1.6966
 9376TIP3   OH252322   3.552   4.675  10.131 -0.0081 -0.3386  0.4395
 9376TIP3    H152323   3.516   4.761  10.108  1.7083  0.1581 -0.5513
 9376TIP3    H252324   3.488   4.638  10.192  0.0837  2.4226  2.4110
 9377TIP3   OH252325   7.336   6.524  11.903 -0.0877 -0.1538 -0.2499
 9377TIP3    H152326   7.270   6.510  11.835 -1.0275  1.4133  0.3165
 9377TIP3    H252327   7.364   6.615  11.892  0.8101 -0.3109  0.5690
 9378TIP3   OH252328   4.641   3.248  12.172  0.0982 -0.3140 -0.1943
 9378TIP3    H152329   4.732   3.250  12.144 -0.0567  0.8238 -0.6788
 9378TIP3    H252330   4.622   3.155  12.188  0.0378 -1.2474 -4.4584
 9379TIP3   OH252331   3.212   7.192  11.307  0.1119 -0.1266 -0.1042
 9379TIP3    H152332   3.268   7.134  11.255  1.2685  2.2981 -1.7669
 9379TIP3    H252333   3.153   7.231  11.242 -1.0246  0.1142  1.0507
 9380TIP3   OH252334   0.875   1.662  12.002  0.7652  0.3693  0.2706
 9380TIP3    H152335   0.848   1.702  11.919  1.0847 -0.5642 -0.2931
 9380TIP3    H252336   0.966   1.689  12.013  1.1867 -0.6996 -0.4384
 9381TIP3   OH252337   1.728   1.579  10.991 -0.0331 -0.2036 -0.0585
 9381TIP3    H152338   1.805   1.635  10.983  0.2237 -0.4949  0.3862
 9381TIP3    H252339   1.684   1.610  11.070  0.5310 -1.1414  0.6339
 9382TIP3   OH252340   1.478   4.823  12.300  0.1776  0.2483 -0.2079
 9382TIP3    H152341   1.571   4.802  12.304 -0.3007 -1.8815  1.0214
 9382TIP3    H252342   1.476   4.917  12.282  2.5567  0.5096  0.5269
 9383TIP3   OH252343   2.065   3.326  12.201  0.2750  0.2269 -0.2762
 9383TIP3    H152344   1.992   3.387  12.218  0.6585  0.3461  1.0754
 9383TIP3    H252345   2.138   3.383  12.179  0.6388  0.3005  1.0066
 9384TIP3   OH252346   2.582   0.577  10.611 -0.0964 -0.2128  0.4497
 9384TIP3    H152347   2.624   0.606  10.692  1.8712 -0.1600 -0.5372
 9384TIP3    H252348   2.604   0.484  10.604 -0.1409 -0.1836 -0.1022
 9385TIP3   OH252349   3.385   0.570  11.903  0.2363  0.1212  0.0093
 9385TIP3    H152350   3.317   0.634  11.888  0.1268 -0.1465 -0.6397
 9385TIP3    H252351   3.355   0.491  11.858  0.2921 -0.4439  0.9225
 9386TIP3   OH252352   5.780   6.667  11.735 -0.5891  0.5272 -0.1473
 9386TIP3    H152353   5.857   6.708  11.773  0.3614  0.2511 -1.6858
 9386TIP3    H252354   5.707   6.698  11.788  0.3790  2.1630  0.2929
 9387TIP3   OH252355   2.703   6.040   9.679  0.0032  0.4049  0.2521
 9387TIP3    H152356   2.720   6.001   9.765  0.6192  1.0394  0.4356
 9387TIP3    H252357   2.734   5.975   9.616 -2.5148 -1.0693  0.3926
 9388TIP3   OH252358   4.540   2.808  11.487 -0.5222  0.4629 -0.7373
 9388TIP3    H152359   4.542   2.724  11.441 -1.2451  0.8233 -1.4515
 9388TIP3    H252360   4.628   2.845  11.472  0.8391 -1.3363  1.9432
 9389TIP3   OH252361   3.562   0.708  11.593  0.6859  0.1697 -0.1377
 9389TIP3    H152362   3.559   0.659  11.511  0.7637  0.1476 -0.1270
 9389TIP3    H252363   3.587   0.643  11.659  2.9748  0.6471 -0.4594
 9390TIP3   OH252364   2.063   4.922   9.901  0.6111  0.2206  0.2762
 9390TIP3    H152365   2.133   4.943   9.840  0.6939  2.2581  0.9999
 9390TIP3    H252366   2.026   4.840   9.868  1.7362  0.3751 -1.5045
 9391TIP3   OH252367   7.214   5.915   9.552  0.0038  0.1807 -0.0883
 9391TIP3    H152368   7.129   5.892   9.590 -0.6506  1.5883 -0.6726
 9391TIP3    H252369   7.194   5.959   9.470  1.2029  2.1566  0.5985
 9392TIP3   OH252370   7.430   4.894  10.407 -0.0753 -0.1972 -0.2501
 9392TIP3    H152371   7.437   4.961  10.339 -0.5599  1.4156  1.1989
 9392TIP3    H252372   7.352   4.844  10.383 -1.6842  1.8849  0.3138
 9393TIP3   OH252373   7.203   3.501  12.746  0.3574  0.1632  0.7947
 9393TIP3    H152374   7.291   3.486  12.780  1.7763  1.4856 -1.9777
 9393TIP3    H252375   7.213   3.574  12.684 -2.4511 -0.4609 -0.5600
 9394TIP3   OH252376   5.482   1.366  10.732 -0.6421 -0.3466  0.6784
 9394TIP3    H152377   5.540   1.290  10.744  0.2051 -0.0046 -0.9510
 9394TIP3    H252378   5.440   1.351  10.648 -1.3526  0.4525  0.8763
 9395TIP3   OH252379   1.066   7.087   9.950 -0.3875  0.6141 -0.0228
 9395TIP3    H152380   1.012   7.164   9.971  1.4396  1.7215  0.8530
 9395TIP3    H252381   1.087   7.049  10.035 -1.2489 -0.8982 -0.4494
 9396TIP3   OH252382   0.352   1.893  10.762  0.3450  0.6200 -0.2876
 9396TIP3    H152383   0.306   1.849  10.691  0.0675 -0.3169  0.4498
 9396TIP3    H252384   0.383   1.822  10.819  2.0224  1.2656 -0.3371
 9397TIP3   OH252385   6.766   4.251  10.179 -0.2414  0.1769 -0.2629
 9397TIP3    H152386   6.682   4.247  10.133 -0.4947 -0.0044  0.2117
 9397TIP3    H252387   6.801   4.337  10.157 -0.7456  0.4207 -0.1353
 9398TIP3   OH252388   5.218   5.312  10.017  0.1350 -0.0420 -0.0031
 9398TIP3    H152389   5.209   5.217  10.004 -0.1964  0.0333 -0.3216
 9398TIP3    H252390   5.128   5.344  10.025  0.2552  0.2184  0.3169
 9399TIP3   OH252391   0.771   5.051  12.434  0.3812 -0.6788  0.0608
 9399TIP3    H152392   0.816   5.029  12.353 -2.7437 -1.0898 -1.7013
 9399TIP3    H252393   0.742   5.142  12.423 -0.4510 -0.8743  0.5014
 9400TIP3   OH252394   6.190   2.625  10.005  0.1851 -0.0549 -0.1572
 9400TIP3    H152395   6.205   2.532   9.990  0.5778 -0.4208  2.2119
 9400TIP3    H252396   6.102   2.630  10.043  0.1679  0.5658 -0.2599
 9401TIP3   OH252397   5.919   2.665  11.184 -0.0979 -0.6113  0.0800
 9401TIP3    H152398   5.857   2.662  11.111  1.6059 -1.4172 -1.4118
 9401TIP3    H252399   5.931   2.574  11.210  0.2114 -0.4402  0.5470
 9402TIP3   OH252400   3.914   1.332   9.552  0.1084  0.0700 -0.1162
 9402TIP3    H152401   3.994   1.328   9.605  0.4718 -2.5493 -0.7078
 9402TIP3    H252402   3.930   1.402   9.489  1.9229 -0.3168 -0.1515
 9403TIP3   OH252403   2.230   6.000  11.609  0.5461 -0.0652 -0.2443
 9403TIP3    H152404   2.186   5.939  11.550  0.3662  0.4872 -0.6912
 9403TIP3    H252405   2.234   5.954  11.693  1.9761 -1.3984 -0.9901
 9404TIP3   OH252406   6.736   5.908  11.417 -0.0654  0.0902 -0.2603
 9404TIP3    H152407   6.679   5.914  11.341 -0.8555  0.6673  0.3550
 9404TIP3    H252408   6.724   5.818  11.449  0.1194 -0.0905 -0.6981
 9405TIP3   OH252409   2.956   6.005  11.152  0.1586 -0.2008 -0.0819
 9405TIP3    H152410   2.928   6.096  11.141 -0.1217 -0.5159 -2.5506
 9405TIP3    H252411   2.898   5.970  11.219  0.1756  1.3673  0.8153
 9406TIP3   OH252412   3.005   1.510   9.877  0.4920 -0.5310  0.0586
 9406TIP3    H152413   2.992   1.491   9.784  1.5269 -1.5563  0.1011
 9406TIP3    H252414   2.917   1.510   9.914  0.0514  0.0665 -0.9454
 9407TIP3   OH252415   5.901   6.840  10.463  0.1258  0.0280 -0.0772
 9407TIP3    H152416   5.981   6.792  10.484  1.4269  2.6850  1.6698
 9407TIP3    H252417   5.920   6.884  10.381  0.2297  0.1887  0.0324
 9408TIP3   OH252418   6.605   7.139  10.739  0.5515  0.2707  0.7806
 9408TIP3    H152419   6.628   7.227  10.711  0.3332  0.4522  1.1672
 9408TIP3    H252420   6.542   7.151  10.810  1.9734 -0.1236  2.1867
 9409TIP3   OH252421   3.169   3.927  11.506 -0.9320 -0.0373  0.1673
 9409TIP3    H152422   3.109   3.884  11.567 -0.9704 -3.0708 -1.8193
 9409TIP3    H252423   3.117   3.939  11.426  0.0821  0.7103 -0.4095
 9410TIP3   OH252424   5.412   4.606  11.037  0.2023 -0.5417  0.1546
 9410TIP3    H152425   5.471   4.536  11.009  0.8196  0.7710 -2.0094
 9410TIP3    H252426   5.470   4.681  11.052 -0.6681  0.0779  0.4504
 9411TIP3   OH252427   2.845   6.633  12.399  0.1828 -0.9140  0.2238
 9411TIP3    H152428   2.826   6.709  12.345 -1.3304 -0.5890  1.1595
 9411TIP3    H252429   2.932   6.604  12.370  0.2786  0.4433 -0.9521
 9412TIP3   OH252430   6.112   5.787  10.212  0.1025  0.2315 -0.0065
 9412TIP3    H152431   6.036   5.832  10.176 -0.1082  1.7273  2.1044
 9412TIP3    H252432   6.076   5.726  10.277  0.6517  1.1616  1.2229
 9413TIP3   OH252433   0.592   5.268  11.987 -0.1359 -0.3865  0.5173
 9413TIP3    H152434   0.667   5.323  12.011 -0.5128  0.8145 -0.9088
 9413TIP3    H252435   0.615   5.230  11.902 -0.5756 -1.1223  0.7151
 9414TIP3   OH252436   3.408   2.075   9.652 -0.4003 -0.2847  0.0635
 9414TIP3    H152437   3.443   2.164   9.659  0.2712 -0.5210 -0.2005
 9414TIP3    H252438   3.471   2.021   9.701 -0.4879 -0.6987 -0.2775
 9415TIP3   OH252439   4.984   4.212  10.638 -0.0403  0.2178 -0.2095
 9415TIP3    H152440   4.996   4.128  10.681 -1.2365  0.5815  0.9074
 9415TIP3    H252441   4.971   4.190  10.546 -0.3035 -0.8166  0.0620
 9416TIP3   OH252442   1.318   2.389  10.236  0.1717  0.8034  0.2680
 9416TIP3    H152443   1.248   2.340  10.280  0.1347  1.4487  0.9639
 9416TIP3    H252444   1.399   2.352  10.270  0.1436  1.2300  0.8167
 9417TIP3   OH252445   2.008   3.134   9.894  0.6124  0.4636 -0.2331
 9417TIP3    H152446   2.007   3.172   9.982  0.1159 -1.0705  0.4506
 9417TIP3    H252447   2.089   3.166   9.855  0.3371  2.0226  0.3730
 9418TIP3   OH252448   2.882   6.068  11.783 -0.2694  0.2942  0.5917
 9418TIP3    H152449   2.806   6.116  11.748  0.0276  0.9591  0.8488
 9418TIP3    H252450   2.939   6.056  11.707 -0.4967  0.0598  0.4584
 9419TIP3   OH252451   1.171   2.027  11.079 -0.0968 -0.5209 -0.4320
 9419TIP3    H152452   1.162   1.959  11.012  0.2647  0.1475 -1.1694
 9419TIP3    H252453   1.265   2.042  11.086 -0.1800 -0.0415 -0.3237
 9420TIP3   OH252454   7.045   0.031  10.746 -0.5357  0.0642 -0.2995
 9420TIP3    H152455   6.953   0.053  10.757 -0.5229 -0.0195 -0.0237
 9420TIP3    H252456   7.047  -0.065  10.739 -0.4459  0.0467 -0.0557
 9421TIP3   OH252457   3.550   4.305  11.945 -0.1335  0.4760 -0.2475
 9421TIP3    H152458   3.567   4.230  11.887 -2.0575  0.0163 -0.2624
 9421TIP3    H252459   3.587   4.380  11.898  0.8439 -0.2887 -0.7402
 9422TIP3   OH252460   5.739   2.796  10.557 -0.0760 -0.3796  0.9794
 9422TIP3    H152461   5.645   2.791  10.574 -0.2052  0.4857  0.5630
 9422TIP3    H252462   5.754   2.886  10.530  0.6239 -0.9174 -0.5069
 9423TIP3   OH252463   7.325   2.946  10.579 -0.8779 -0.7134  0.1330
 9423TIP3    H152464   7.299   2.900  10.659 -1.0967 -1.6722 -0.4613
 9423TIP3    H252465   7.420   2.954  10.586 -0.9676 -0.2028  0.7874
 9424TIP3   OH252466   2.002   5.564   9.536 -0.3222  0.0452  0.3006
 9424TIP3    H152467   2.094   5.592   9.531 -0.1739  0.1829  2.6806
 9424TIP3    H252468   1.992   5.504   9.462  1.8527 -0.4428  0.3122
 9425TIP3   OH252469   6.416   6.878  11.881 -0.0881 -0.3857  0.3817
 9425TIP3    H152470   6.344   6.814  11.885 -0.2318 -0.3450 -1.1363
 9425TIP3    H252471   6.411   6.914  11.793  1.5563 -0.0936  0.3859
 9426TIP3   OH252472   1.367   5.538  11.527 -0.3782 -0.2918 -0.1553
 9426TIP3    H152473   1.373   5.633  11.541  0.5081 -0.4489  0.6378
 9426TIP3    H252474   1.373   5.528  11.432 -1.3726  0.4936 -0.3224
 9427TIP3   OH252475   7.345   1.308  12.370  0.0870  1.0153  0.4527
 9427TIP3    H152476   7.386   1.382  12.326  1.2870  0.9324  1.3971
 9427TIP3    H252477   7.286   1.348  12.435 -0.1973  1.1300  0.1289
 9428TIP3   OH252478   3.882   1.718  11.130  0.0936  0.0892 -0.8863
 9428TIP3    H152479   3.907   1.669  11.208  1.3163  0.0440 -1.2806
 9428TIP3    H252480   3.796   1.683  11.106  0.0973 -0.5120 -0.0756
 9429TIP3   OH252481   6.626   1.221  10.372  0.8409  0.2152 -0.6501
 9429TIP3    H152482   6.540   1.256  10.348 -0.5612 -1.9732  0.8704
 9429TIP3    H252483   6.673   1.295  10.409 -1.1704  1.0170  0.4037
 9430TIP3   OH252484   0.471   0.400  10.686 -0.2484 -0.3490 -0.4048
 9430TIP3    H152485   0.421   0.389  10.606  0.1561 -0.2375 -0.6741
 9430TIP3    H252486   0.526   0.477  10.670  1.2038 -1.4273 -0.7256
 9431TIP3   OH252487   1.472   5.666  12.093  0.3746  0.0764 -0.0191
 9431TIP3    H152488   1.409   5.695  12.159  0.9880 -0.0197  0.6285
 9431TIP3    H252489   1.459   5.571  12.086  2.0671 -0.3960  1.9587
 9432TIP3   OH252490   2.913   5.150  12.671  0.0166 -0.4278  0.2029
 9432TIP3    H152491   2.843   5.093  12.704 -1.3569  1.3314  0.5229
 9432TIP3    H252492   2.926   5.214  12.741 -0.7347  1.5019 -1.3132
 9433TIP3   OH252493   6.745   0.449  10.475 -0.6869 -0.6901 -0.0866
 9433TIP3    H152494   6.704   0.366  10.498 -1.0121 -0.8553 -1.1884
 9433TIP3    H252495   6.827   0.450  10.524 -0.8135 -1.5328  0.1561
 9434TIP3   OH252496   6.943   6.547  11.377  0.0128 -0.0073 -0.1115
 9434TIP3    H152497   6.961   6.463  11.334 -2.1715 -1.2071  1.1168
 9434TIP3    H252498   6.923   6.607  11.305  2.1839 -0.3216 -1.0481
 9435TIP3   OH252499   2.309   2.179  10.429  0.2980 -0.3920 -0.1116
 9435TIP3    H152500   2.232   2.196  10.374 -0.3555  0.5076  1.0242
 9435TIP3    H252501   2.369   2.251  10.410  0.4378 -0.5480 -0.2655
 9436TIP3   OH252502   1.667   5.263  11.808  0.0673 -0.2967 -0.4357
 9436TIP3    H152503   1.691   5.314  11.885 -1.4098  1.9514 -1.3789
 9436TIP3    H252504   1.579   5.230  11.827 -1.1302  1.8581 -1.7800
 9437TIP3   OH252505   6.730   0.864  11.316  0.1508 -0.4798 -0.5537
 9437TIP3    H152506   6.694   0.840  11.230  0.7676 -0.7250 -0.7528
 9437TIP3    H252507   6.654   0.867  11.374 -0.0723 -2.1302 -0.7092
 9438TIP3   OH252508   6.978   2.742  11.278 -0.2818 -0.0268 -0.2636
 9438TIP3    H152509   6.966   2.664  11.223  0.1099 -0.1821 -0.1302
 9438TIP3    H252510   6.912   2.732  11.347 -0.0867 -0.3529 -0.1227
 9439TIP3   OH252511   3.142   4.936   9.593  0.4663 -0.2918  0.8854
 9439TIP3    H152512   3.068   4.878   9.609  0.2716 -0.6231 -0.9668
 9439TIP3    H252513   3.129   5.009   9.653  0.1741 -1.6552  2.5497
 9440TIP3   OH252514   0.321   2.234   9.948  0.1539  0.6403 -0.2583
 9440TIP3    H152515   0.404   2.281   9.952  0.3800  0.1987  0.4947
 9440TIP3    H252516   0.268   2.282   9.884  0.6208  1.5167  0.0061
 9441TIP3   OH252517   3.492   4.493  11.260  0.0893 -0.2124  0.3345
 9441TIP3    H152518   3.462   4.428  11.198  0.5466  0.3742 -0.5135
 9441TIP3    H252519   3.438   4.571  11.241 -1.1172 -0.5907  1.9549
 9442TIP3   OH252520   5.250   2.796  11.180  0.1293 -0.6258 -0.3156
 9442TIP3    H152521   5.249   2.808  11.275  1.0967 -1.1434 -0.2292
 9442TIP3    H252522   5.305   2.719  11.166 -0.8130 -1.1627 -1.2377
 9443TIP3   OH252523   3.879   2.749  11.052 -0.0972 -0.0520  0.4981
 9443TIP3    H152524   3.851   2.781  10.965  1.2254  0.1016  0.1137
 9443TIP3    H252525   3.943   2.813  11.081  1.6734 -1.6539  0.2774
 9444TIP3   OH252526   6.710   6.118  10.919 -0.5866 -0.9226  0.1872
 9444TIP3    H152527   6.722   6.208  10.890 -0.2906 -0.8079  0.6545
 9444TIP3    H252528   6.771   6.067  10.866  0.8365 -0.5569  1.3999
 9445TIP3   OH252529   3.113   1.188  11.285  0.3997 -0.1153  0.0618
 9445TIP3    H152530   3.207   1.203  11.273  0.1375  0.1654 -2.0472
 9445TIP3    H252531   3.072   1.257  11.233 -1.0462  0.9761  2.4873
 9446TIP3   OH252532   6.368   7.105  10.563  0.2637 -0.4709 -0.3919
 9446TIP3    H152533   6.391   7.106  10.656  0.4806 -2.6650 -0.3672
 9446TIP3    H252534   6.446   7.067  10.520  0.0808  0.3089 -1.4406
 9447TIP3   OH252535   0.317   3.078   9.952 -0.1031  0.8270 -0.5321
 9447TIP3    H152536   0.226   3.049   9.940 -0.3015  0.7541  0.9489
 9447TIP3    H252537   0.369   3.009   9.911 -0.6170 -1.0305  1.7005
 9448TIP3   OH252538   4.410   5.175  10.594 -0.6751  0.6530 -0.4265
 9448TIP3    H152539   4.474   5.163  10.665 -1.8902 -2.3999  0.2996
 9448TIP3    H252540   4.339   5.224  10.635 -2.1094 -2.4697  1.1365
 9449TIP3   OH252541   6.737   3.121  12.160 -0.0515  0.7895 -0.3790
 9449TIP3    H152542   6.665   3.117  12.096  0.7467 -0.3633 -1.2605
 9449TIP3    H252543   6.793   3.192  12.129  0.4225  0.1226 -1.0930
 9450TIP3   OH252544   6.610   4.610  11.067 -0.1842  0.1079  0.1752
 9450TIP3    H152545   6.546   4.576  11.004  0.7236  0.1082 -0.7697
 9450TIP3    H252546   6.606   4.705  11.056 -1.8533  0.3055  1.9630
 9451TIP3   OH252547   0.114   6.478  11.803  0.1752  0.1225 -1.0506
 9451TIP3    H152548   0.203   6.445  11.819  0.0859 -0.0201 -0.8381
 9451TIP3    H252549   0.125   6.573  11.794  0.2389  0.2082 -0.1616
 9452TIP3   OH252550   2.509   6.421  12.537  0.2944  0.1164  0.8467
 9452TIP3    H152551   2.564   6.493  12.566  0.0860  0.1459  1.1739
 9452TIP3    H252552   2.555   6.342  12.566  1.9561 -0.0652 -1.8649
 9453TIP3   OH252553   0.994   6.906  11.274  0.4317 -0.1544 -0.2553
 9453TIP3    H152554   1.050   6.893  11.198 -1.3567 -0.7136 -1.5429
 9453TIP3    H252555   0.906   6.885  11.243 -0.5560  0.9557  1.6080
 9454TIP3   OH252556   4.478   4.589  11.024  0.1998 -0.8564  0.2122
 9454TIP3    H152557   4.509   4.678  11.009  0.2292 -0.8328  0.4087
 9454TIP3    H252558   4.442   4.561  10.939 -1.2488 -0.0978  0.5415
 9455TIP3   OH252559   4.159   3.429  11.664  0.0630 -0.0223 -0.1352
 9455TIP3    H152560   4.247   3.418  11.630  0.1193 -1.4996  0.4098
 9455TIP3    H252561   4.171   3.441  11.758 -0.2730  0.4225 -0.1498
 9456TIP3   OH252562   2.275   5.379  10.178  0.0038  0.2990 -0.0816
 9456TIP3    H152563   2.190   5.340  10.199 -0.0991  0.3637 -0.3766
 9456TIP3    H252564   2.320   5.386  10.262 -0.7359  1.3486  0.2397
 9457TIP3   OH252565   4.590   2.037  10.510  0.2308 -0.0446 -0.5610
 9457TIP3    H152566   4.506   2.043  10.556  0.6378 -0.7666  0.3133
 9457TIP3    H252567   4.570   1.987  10.431 -0.4143  0.9262 -1.0307
 9458TIP3   OH252568   3.364   1.900  10.232 -0.1264  0.0567  0.4721
 9458TIP3    H152569   3.373   1.831  10.167  0.4476 -1.7772  2.3845
 9458TIP3    H252570   3.339   1.977  10.182  1.8421 -0.8329 -2.1118
 9459TIP3   OH252571   6.047   4.882  10.446  0.1715 -0.6739 -0.0384
 9459TIP3    H152572   6.057   4.940  10.370 -0.1304 -0.7229 -0.1173
 9459TIP3    H252573   6.009   4.938  10.514  1.5554 -0.3207  0.4706
 9460TIP3   OH252574   2.463   0.920  11.426  0.3273  0.1994 -0.1988
 9460TIP3    H152575   2.432   0.829  11.424  1.6543 -0.2676 -2.0501
 9460TIP3    H252576   2.558   0.913  11.419  0.3539  1.7445 -2.4086
 9461TIP3   OH252577   4.767   1.832  11.982  0.5045  0.2381 -0.8383
 9461TIP3    H152578   4.719   1.851  11.901 -1.3245 -0.7781 -0.0451
 9461TIP3    H252579   4.719   1.760  12.022  1.5405  0.5356  1.0383
 9462TIP3   OH252580   2.154   1.179  11.375  0.0859 -0.5089 -0.3289
 9462TIP3    H152581   2.059   1.181  11.386  0.2086  1.0172  1.0465
 9462TIP3    H252582   2.169   1.123  11.299 -1.8616 -1.2957 -0.2018
 9463TIP3   OH252583   3.494   2.930  10.563  0.1948 -0.5219 -0.4975
 9463TIP3    H152584   3.527   2.888  10.483 -0.3932  0.2605 -1.1722
 9463TIP3    H252585   3.403   2.951  10.542 -0.1197 -0.7550  0.5718
 9464TIP3   OH252586   1.445   1.361  12.149  0.2253 -0.1971 -0.5889
 9464TIP3    H152587   1.514   1.308  12.188  0.9310 -0.9189 -2.6548
 9464TIP3    H252588   1.366   1.338  12.199  1.4656  0.9394  2.0697
 9465TIP3   OH252589   2.794   6.967  10.902  0.9760 -0.3992  0.1212
 9465TIP3    H152590   2.871   6.991  10.952  0.0482 -1.5119  2.2110
 9465TIP3    H252591   2.747   7.049  10.888  1.7142  0.0492  0.2672
 9466TIP3   OH252592   4.376   0.998  10.081 -0.1895 -0.1666 -0.2952
 9466TIP3    H152593   4.437   0.983  10.153  0.4682 -1.3339 -1.0659
 9466TIP3    H252594   4.294   0.958  10.110 -0.7093  1.6091  0.8391
 9467TIP3   OH252595   6.842   0.738  10.669  0.2661  0.1963 -1.0819
 9467TIP3    H152596   6.898   0.662  10.683  2.0793  1.6674  0.0716
 9467TIP3    H252597   6.847   0.754  10.575 -0.0657 -1.0236 -1.3256
 9468TIP3   OH252598   3.690   6.808  10.167  0.2736  0.5400  0.1500
 9468TIP3    H152599   3.730   6.865  10.233  1.1286  0.2826 -0.1441
 9468TIP3    H252600   3.681   6.723  10.210 -0.3848  0.7074  0.3622
 9469TIP3   OH252601   0.322   0.358  11.425 -0.2085  0.4638 -0.7201
 9469TIP3    H152602   0.412   0.326  11.424 -0.6833 -0.9251 -1.0511
 9469TIP3    H252603   0.271   0.288  11.465 -1.2653  0.8695 -1.2931
 9470TIP3   OH252604   4.505   6.243  11.803  0.3501  0.1418 -0.3449
 9470TIP3    H152605   4.577   6.181  11.795  0.2211  0.1219 -1.5794
 9470TIP3    H252606   4.537   6.310  11.863  0.9226 -0.5126  0.0944
 9471TIP3   OH252607   0.079   7.004  10.523 -0.3653 -0.2466  0.1038
 9471TIP3    H152608   0.140   6.939  10.557  1.0075  0.4113 -0.9979
 9471TIP3    H252609   0.026   6.957  10.458 -0.0648 -0.4885  0.0372
 9472TIP3   OH252610   0.357   5.113  11.453  0.0372  0.6608 -0.0156
 9472TIP3    H152611   0.421   5.120  11.382 -0.8769 -1.1986 -1.1010
 9472TIP3    H252612   0.317   5.199  11.458 -1.2790  0.3683 -3.2118
 9473TIP3   OH252613   1.651   4.994   9.738  0.4645 -0.3223  0.6598
 9473TIP3    H152614   1.692   5.031   9.817  0.5627 -1.7201  1.2921
 9473TIP3    H252615   1.721   4.943   9.697  0.3509  0.2165 -0.2462
 9474TIP3   OH252616   3.244   0.781  10.903 -0.1424  0.3002  0.4365
 9474TIP3    H152617   3.274   0.870  10.884 -0.0444  0.1530 -0.1226
 9474TIP3    H252618   3.149   0.789  10.912 -0.5100  0.0571 -2.3014
 9475TIP3   OH252619   5.590   0.339  10.676  0.3730 -0.5614  0.0627
 9475TIP3    H152620   5.550   0.273  10.619 -2.4183  1.3401 -0.3976
 9475TIP3    H252621   5.623   0.405  10.616 -0.1431  0.1687  0.5670
 9476TIP3   OH252622   1.875   1.843   9.871  0.3032  0.6134 -0.2950
 9476TIP3    H152623   1.789   1.879   9.849  0.2232  0.4880 -0.1859
 9476TIP3    H252624   1.859   1.783   9.944  0.1416 -1.1247 -1.7113
 9477TIP3   OH252625   4.002   4.968  11.434 -0.3654 -0.5444  0.0778
 9477TIP3    H152626   4.001   5.041  11.496  1.3795  1.0352 -1.6346
 9477TIP3    H252627   3.967   4.894  11.484 -2.8210  1.5346  1.7306
 9478TIP3   OH252628   3.529   3.228  11.385  0.1860 -0.5442  0.3622
 9478TIP3    H152629   3.596   3.169  11.353  0.9236  1.2914 -1.7214
 9478TIP3    H252630   3.467   3.236  11.312 -0.5165  0.3519  1.0264
 9479TIP3   OH252631   0.405   3.893  11.209  0.0606  0.0387  0.2354
 9479TIP3    H152632   0.463   3.950  11.260  1.4299 -1.0251 -0.0717
 9479TIP3    H252633   0.327   3.946  11.195  0.6950  1.3050  1.1990
 9480TIP3   OH252634   0.793   3.665  11.693  0.2125 -0.7322 -0.1660
 9480TIP3    H152635   0.803   3.755  11.724  3.4400 -0.0779 -2.5294
 9480TIP3    H252636   0.724   3.669  11.627  0.2429 -0.0274 -0.1564
 9481TIP3   OH252637   6.931   0.720  13.126  0.2519  0.2525  0.2956
 9481TIP3    H152638   6.957   0.760  13.209 -1.0166  0.8009  0.4590
 9481TIP3    H252639   6.849   0.765  13.102 -1.3422 -2.2937  0.5357
 9482TIP3   OH252640   2.004   4.493  11.814 -0.5874  0.1735 -0.4119
 9482TIP3    H152641   2.039   4.422  11.868 -3.0129 -0.5061  0.3840
 9482TIP3    H252642   2.011   4.459  11.724 -0.5310 -0.5269 -0.1527
 9483TIP3   OH252643   5.443   3.880  10.137  0.4095  0.0474 -0.3638
 9483TIP3    H152644   5.513   3.917  10.081  1.6654  0.3017  1.3003
 9483TIP3    H252645   5.369   3.939  10.125  0.7140  0.2076 -1.6007
 9484TIP3   OH252646   6.510   4.929  11.954  0.8526  0.1275  0.1706
 9484TIP3    H152647   6.570   4.961  12.020  0.4911  0.1530  0.4924
 9484TIP3    H252648   6.492   5.005  11.898  0.5377  0.3086  0.5175
 9485TIP3   OH252649   7.032   2.237   9.938  0.6465  0.1765  0.6569
 9485TIP3    H152650   6.980   2.317   9.944 -1.2869 -0.8893 -0.7694
 9485TIP3    H252651   7.004   2.184  10.013  0.0785 -0.1452  0.2290
 9486TIP3   OH252652   7.217   4.073  11.467 -0.2031  0.1259  0.2126
 9486TIP3    H152653   7.187   4.164  11.461  0.5941  0.5785  2.3655
 9486TIP3    H252654   7.144   4.021  11.433 -0.9792  1.5205 -0.3072
 9487TIP3   OH252655   4.403   7.267  10.627 -0.4272 -0.1956 -0.5064
 9487TIP3    H152656   4.314   7.237  10.646 -1.0749  1.1040 -1.2988
 9487TIP3    H252657   4.415   7.343  10.684 -0.7025  0.9803 -1.9328
 9488TIP3   OH252658   0.484   1.837  11.124 -0.0702  0.0165  0.1912
 9488TIP3    H152659   0.398   1.802  11.099 -0.8961  0.3939  2.2709
 9488TIP3    H252660   0.533   1.761  11.155 -0.4414  0.1149  1.0271
 9489TIP3   OH252661   3.317   1.794  10.984  0.2355  0.2711  0.5600
 9489TIP3    H152662   3.401   1.813  11.023 -0.2533  2.9594  0.4694
 9489TIP3    H252663   3.326   1.821  10.892 -0.8145  0.9840  0.6444
 9490TIP3   OH252664   0.260   5.362  11.539  0.0845 -0.2601 -0.3092
 9490TIP3    H152665   0.322   5.435  11.531 -0.5888  0.1906 -1.7399
 9490TIP3    H252666   0.274   5.328  11.628  0.9507  1.1158  0.1125
 9491TIP3   OH252667   6.236   6.195  11.716 -0.4555  0.4333  0.0831
 9491TIP3    H152668   6.267   6.147  11.639  0.9724  0.4088  0.6373
 9491TIP3    H252669   6.232   6.130  11.785 -0.9414  0.6234  0.2407
 9492TIP3   OH252670   5.107   4.405  11.486  0.2573 -0.1377  0.5630
 9492TIP3    H152671   5.050   4.481  11.478  0.0096 -0.4026 -0.2600
 9492TIP3    H252672   5.195   4.441  11.487  0.1570  0.1359 -0.1585
 9493TIP3   OH252673   2.785   5.377   9.529  0.0359 -0.1753  0.1849
 9493TIP3    H152674   2.851   5.446   9.524  0.2083 -0.3001  0.6548
 9493TIP3    H252675   2.731   5.389   9.451  1.4839 -0.9658 -0.9688
 9494TIP3   OH252676   4.917   2.658  10.202 -0.7792 -0.0521  0.3074
 9494TIP3    H152677   4.883   2.733  10.152  0.6671  0.5345  0.1635
 9494TIP3    H252678   4.926   2.691  10.291  0.9364  0.3451  0.0240
 9495TIP3   OH252679   5.064   4.346  11.144 -0.5758 -0.2266  0.1103
 9495TIP3    H152680   5.022   4.339  11.058  0.0355 -0.6054 -0.1643
 9495TIP3    H252681   4.995   4.328  11.207 -1.2524  0.9601 -0.2609
 9496TIP3   OH252682   6.563   6.442  10.570  0.0862 -0.5098  0.0168
 9496TIP3    H152683   6.580   6.347  10.569  0.5966 -0.4297  0.6551
 9496TIP3    H252684   6.521   6.458  10.654 -0.8500 -0.3004 -0.4803
 9497TIP3   OH252685   5.647   6.816  10.274  0.2771  0.1013  0.2313
 9497TIP3    H152686   5.554   6.796  10.271  0.4683 -0.6652 -0.8978
 9497TIP3    H252687   5.657   6.897  10.224  0.2824 -0.0616 -0.0287
 9498TIP3   OH252688   3.307   2.320  11.618 -0.4656 -0.2457  0.3439
 9498TIP3    H152689   3.331   2.302  11.527 -2.1891 -1.2658  0.0428
 9498TIP3    H252690   3.365   2.264  11.669  0.8321  0.6768 -0.0838
 9499TIP3   OH252691   2.750   1.499  10.030 -0.3235  0.1707 -0.2919
 9499TIP3    H152692   2.723   1.523   9.941  0.5144 -0.2650 -0.6773
 9499TIP3    H252693   2.730   1.406  10.036  0.1738  0.0621 -0.2474
 9500TIP3   OH252694   1.934   1.768  11.378 -0.7061 -0.0086 -0.0422
 9500TIP3    H152695   1.911   1.733  11.464  0.4064 -0.4015  0.1048
 9500TIP3    H252696   1.893   1.855  11.377 -0.1273  0.3136  1.1950
 9501TIP3   OH252697   3.533   5.410  10.273  0.1699 -0.3530  0.3828
 9501TIP3    H152698   3.611   5.382  10.320  0.0144 -0.9308  0.2933
 9501TIP3    H252699   3.559   5.493  10.232  0.8140 -0.6719  0.1368
 9502TIP3   OH252700   4.532   6.105  10.490 -0.8380  0.0758  0.2820
 9502TIP3    H152701   4.455   6.078  10.541 -0.8696  2.2849  1.5488
 9502TIP3    H252702   4.602   6.111  10.555 -0.2531  0.6000 -0.3824
 9503TIP3   OH252703   4.198   6.565  13.197 -0.1052  0.4255  0.5304
 9503TIP3    H152704   4.268   6.504  13.172  0.4235  1.5579 -0.9398
 9503TIP3    H252705   4.118   6.524  13.164  0.2514  0.5154 -0.4996
 9504TIP3   OH252706   0.422   7.192  12.080 -0.2832  0.1155  0.5430
 9504TIP3    H152707   0.463   7.189  12.166 -1.0337  0.0322  0.9032
 9504TIP3    H252708   0.431   7.103  12.046 -1.4026 -0.2811  1.2215
 9505TIP3   OH252709   3.069   5.074  10.006  0.0666  0.0525 -0.3774
 9505TIP3    H152710   3.013   4.998   9.987  0.5908  0.1477 -2.5760
 9505TIP3    H252711   3.077   5.120   9.922  3.5908 -0.0788 -0.2923
 9506TIP3   OH252712   1.837   4.805   9.722 -0.0622  0.0034  0.7246
 9506TIP3    H152713   1.889   4.790   9.643 -1.5376  0.7194 -0.4263
 9506TIP3    H252714   1.866   4.737   9.783  1.4489 -0.2665 -0.2456
 9507TIP3   OH252715   0.579   3.150  10.007  0.1751  0.1765  0.4369
 9507TIP3    H152716   0.598   3.074  10.063  0.6946 -0.0616 -0.0521
 9507TIP3    H252717   0.489   3.138   9.979  0.0922  0.0065  0.7736
 9508TIP3   OH252718   2.498   2.422   9.578 -0.3502 -0.3104  0.2154
 9508TIP3    H152719   2.462   2.441   9.492 -0.1419  1.5526  0.5077
 9508TIP3    H252720   2.461   2.337   9.602 -1.4333 -0.2389 -1.1378
 9509TIP3   OH252721   4.729   2.885  10.281  0.1266  0.3195  0.5326
 9509TIP3    H152722   4.681   2.964  10.255  0.4896  0.2276 -0.4277
 9509TIP3    H252723   4.664   2.816  10.281 -0.0668  0.4991  0.7812
 9510TIP3   OH252724   6.152   5.769  10.603  0.1859 -0.3357 -0.1797
 9510TIP3    H152725   6.098   5.803  10.674  2.1135  0.7338  0.8503
 9510TIP3    H252726   6.173   5.845  10.549  2.3023 -0.2799  0.6148
 9511TIP3   OH252727   0.125   1.854  10.326 -0.5020  0.4718 -0.1035
 9511TIP3    H152728   0.065   1.915  10.283  1.1332  1.1546 -1.5178
 9511TIP3    H252729   0.155   1.796  10.256  0.4077  0.0859  0.5803
 9512TIP3   OH252730   0.700   2.491  11.278 -0.2878  0.7164  0.4213
 9512TIP3    H152731   0.739   2.524  11.197  0.3955 -1.9675 -0.4208
 9512TIP3    H252732   0.743   2.407  11.293 -1.7680  0.2698  2.5553
 9513TIP3   OH252733   0.314   3.480  11.115  0.1262 -0.1808  0.3576
 9513TIP3    H152734   0.288   3.399  11.159  0.2940 -1.6415 -2.0493
 9513TIP3    H252735   0.380   3.453  11.051 -1.6274  1.3718 -2.2988
 9514TIP3   OH252736   5.406   2.214   9.994  0.2594  0.6840 -0.0046
 9514TIP3    H152737   5.464   2.188   9.922  0.8979  1.9449  0.0309
 9514TIP3    H252738   5.409   2.141  10.055 -1.1651 -0.9276 -1.7381
 9515TIP3   OH252739   4.914   3.036  10.026  0.0562 -0.2774 -0.0794
 9515TIP3    H152740   4.826   3.007  10.048 -1.2543  1.1058 -2.8940
 9515TIP3    H252741   4.963   2.956  10.009 -1.0130 -1.0397  0.3331
 9516TIP3   OH252742   7.223   7.230  10.966 -0.4793  0.3949 -0.4071
 9516TIP3    H152743   7.311   7.215  10.999 -0.2613 -0.5787 -1.3631
 9516TIP3    H252744   7.231   7.219  10.871 -1.5883  0.4757 -0.5241
 9517TIP3   OH252745   3.998   3.830  10.459  0.0419 -0.0657  0.2912
 9517TIP3    H152746   3.907   3.829  10.487  0.3699 -0.1291  1.4303
 9517TIP3    H252747   4.047   3.805  10.538  1.1440  1.4993  0.1413
 9518TIP3   OH252748   2.235   3.484   9.476  0.0010 -0.2072 -0.4170
 9518TIP3    H152749   2.261   3.433   9.553 -0.7703 -1.0529 -0.6988
 9518TIP3    H252750   2.309   3.475   9.416 -0.1677 -1.0780 -0.5027
 9519TIP3   OH252751   0.375   7.349  11.865  0.2478 -0.1307  0.2267
 9519TIP3    H152752   0.405   7.287  11.931 -1.9009 -0.5251  0.8975
 9519TIP3    H252753   0.340   7.423  11.914 -0.6328 -0.0651 -0.4554
 9520TIP3   OH252754   0.415   1.540  12.543  0.1475 -0.2965 -0.3596
 9520TIP3    H152755   0.345   1.529  12.480 -2.1911  0.2068  1.9671
 9520TIP3    H252756   0.407   1.630  12.573  1.2683 -0.4774  0.5835
 9521TIP3   OH252757   0.513   4.252   9.618  0.1957 -0.6067 -0.3167
 9521TIP3    H152758   0.605   4.244   9.596 -0.4432 -0.9194 -3.3071
 9521TIP3    H252759   0.483   4.161   9.628 -0.0117 -0.5501 -0.4174
 9522TIP3   OH252760   1.160   1.679   9.713 -0.3531 -0.0607 -0.2143
 9522TIP3    H152761   1.144   1.687   9.619 -0.2354 -0.3425 -0.2606
 9522TIP3    H252762   1.091   1.730   9.754 -0.0501  0.5582 -0.4720
 9523TIP3   OH252763   4.353   2.705   9.782  0.6533 -0.0966  0.2025
 9523TIP3    H152764   4.261   2.728   9.772  0.6636 -0.5717 -1.1825
 9523TIP3    H252765   4.365   2.691   9.876  0.2906  3.9384  1.0357
 9524TIP3   OH252766   0.363   2.135  12.337 -0.1690 -0.0382  0.1460
 9524TIP3    H152767   0.333   2.050  12.304  1.1055 -0.7744  0.8282
 9524TIP3    H252768   0.408   2.175  12.263 -0.1910 -0.2420  0.0225
 9525TIP3   OH252769   2.566   5.747   9.341  0.3784  0.2634  0.3586
 9525TIP3    H152770   2.471   5.734   9.338  0.3497  0.5884 -0.6605
 9525TIP3    H252771   2.586   5.759   9.434 -0.7116  1.0546  0.5149
 9526TIP3   OH252772   2.460   5.519  12.179 -0.3305 -0.5995  0.1346
 9526TIP3    H152773   2.455   5.427  12.202 -1.5721 -0.2341  1.4517
 9526TIP3    H252774   2.545   5.529  12.137  0.0405 -2.2353  0.4549
 9527TIP3   OH252775   5.243   2.322  12.156  0.2200 -0.1939  0.1022
 9527TIP3    H152776   5.244   2.395  12.094 -0.2357 -0.4707 -0.2263
 9527TIP3    H252777   5.331   2.323  12.194  0.4414  0.0949 -0.4042
 9528TIP3   OH252778   0.593   6.666  10.871 -0.3536  0.3982  0.3832
 9528TIP3    H152779   0.672   6.619  10.844  1.7044  2.4712  2.3735
 9528TIP3    H252780   0.562   6.618  10.949  1.2876  1.7480  1.9411
 9529TIP3   OH252781   5.849   3.467  12.394 -0.6185  0.4369  0.2815
 9529TIP3    H152782   5.926   3.504  12.436 -0.5373 -0.6094  1.1032
 9529TIP3    H252783   5.873   3.460  12.301 -0.1356  1.1097  0.3499
 9530TIP3   OH252784   4.595   7.299  11.930  0.2212  0.0987 -0.0880
 9530TIP3    H152785   4.610   7.234  11.861  2.2428  1.0996 -0.6670
 9530TIP3    H252786   4.501   7.318  11.924 -0.1132 -1.6042 -0.9214
 9531TIP3   OH252787   5.605   7.309  11.370 -0.5313 -0.3714  0.2002
 9531TIP3    H152788   5.659   7.388  11.362  2.1624 -1.7816  2.4841
 9531TIP3    H252789   5.528   7.327  11.317  0.9149  2.9314 -1.0561
 9532TIP3   OH252790   4.478   0.621  12.395 -0.6607  0.7853 -0.3016
 9532TIP3    H152791   4.515   0.591  12.312 -1.7920 -1.2740 -0.1163
 9532TIP3    H252792   4.425   0.697  12.372  1.2381  2.0013 -0.9862
 9533TIP3   OH252793   4.587   2.889  10.602  0.0211  0.2275  0.1353
 9533TIP3    H152794   4.506   2.925  10.566  0.1024 -0.5870 -0.9290
 9533TIP3    H252795   4.589   2.920  10.693 -0.7923  1.3745 -0.2152
 9534TIP3   OH252796   6.519   5.493  11.490  0.0865 -0.2461 -0.3017
 9534TIP3    H152797   6.482   5.470  11.575 -1.1553 -0.7278 -0.9527
 9534TIP3    H252798   6.537   5.409  11.448  0.6072 -0.0116 -0.5568
 9535TIP3   OH252799   2.365   3.531  11.206  0.2037  0.5351 -0.3792
 9535TIP3    H152800   2.346   3.440  11.226 -0.3314  0.5317 -0.8555
 9535TIP3    H252801   2.390   3.531  11.113  0.7921  0.7898 -0.2240
 9536TIP3   OH252802   2.829   0.125  11.500 -0.3131 -0.8014  0.5571
 9536TIP3    H152803   2.920   0.157  11.496 -0.0215 -1.5328  1.0948
 9536TIP3    H252804   2.776   0.204  11.498  0.2027 -0.4049 -2.4966
 9537TIP3   OH252805   3.633   3.596  11.691 -0.3430 -0.4833 -0.5347
 9537TIP3    H152806   3.577   3.638  11.757 -0.5581  0.1696 -1.1162
 9537TIP3    H252807   3.713   3.573  11.738  0.1066  1.2868 -0.3417
 9538TIP3   OH252808   7.421   1.145  10.305  0.0188  0.5818  0.3937
 9538TIP3    H152809   7.471   1.150  10.224 -1.5441 -0.8428 -0.7266
 9538TIP3    H252810   7.340   1.192  10.286 -1.4908 -1.9537  0.1565
 9539TIP3   OH252811   5.853   3.737  11.748  0.2678  0.3707 -0.2816
 9539TIP3    H152812   5.870   3.757  11.841 -1.9044  0.0679  0.2250
 9539TIP3    H252813   5.831   3.822  11.710 -0.0496  0.3175 -0.2218
 9540TIP3   OH252814   1.211   2.056  11.824  0.3788  0.3421  0.2672
 9540TIP3    H152815   1.243   2.049  11.734  0.8397 -0.9631  0.5059
 9540TIP3    H252816   1.245   1.978  11.867 -1.1759  0.1055  1.1541
 9541TIP3   OH252817   3.991   5.468   9.837  0.2997 -0.3693 -0.4305
 9541TIP3    H152818   3.912   5.482   9.785  0.4180  0.2397 -0.4571
 9541TIP3    H252819   3.992   5.375   9.856  0.4995 -0.6937 -1.9214
 9542TIP3   OH252820   5.003   2.236   9.741 -0.3398 -0.5379 -0.1962
 9542TIP3    H152821   5.009   2.151   9.696 -0.9036  0.3637 -2.0596
 9542TIP3    H252822   4.910   2.245   9.762 -0.1986 -0.5945  0.4784
 9543TIP3   OH252823   4.130   7.266   9.976 -0.3526 -0.8161 -0.3561
 9543TIP3    H152824   4.104   7.299   9.890  0.4843 -0.5211 -0.5096
 9543TIP3    H252825   4.127   7.343  10.033  0.9310 -0.5802 -0.5622
 9544TIP3   OH252826   5.077   0.833  11.662 -0.5736  0.1503  0.2845
 9544TIP3    H152827   5.113   0.792  11.584 -1.2647 -0.2448  0.1634
 9544TIP3    H252828   4.982   0.834  11.646 -0.7488 -0.2542  1.2749
 9545TIP3   OH252829   0.608   5.986  10.045  0.1508  0.0446  0.1352
 9545TIP3    H152830   0.539   5.953   9.988 -0.7716  1.4737  0.3502
 9545TIP3    H252831   0.614   6.079  10.023  0.0131  0.5615  2.0806
 9546TIP3   OH252832   4.360   6.985  11.993 -0.3147  0.4642  0.8688
 9546TIP3    H152833   4.305   6.915  12.028  0.9006 -0.6787  0.5387
 9546TIP3    H252834   4.302   7.061  11.991 -1.7628 -0.5921  0.9111
 9547TIP3   OH252835   0.333   4.951  11.677 -1.2134  0.1134  0.2573
 9547TIP3    H152836   0.391   4.875  11.677 -2.8624 -1.2106 -1.4662
 9547TIP3    H252837   0.356   4.999  11.598 -3.0444 -0.9541 -0.9840
 9548TIP3   OH252838   5.454   6.563  10.979  0.2970 -0.1770 -0.2540
 9548TIP3    H152839   5.470   6.564  11.073 -0.3265 -1.4497 -0.1213
 9548TIP3    H252840   5.421   6.475  10.960 -1.2896  0.6132 -1.3714
 9549TIP3   OH252841   0.450   0.500  10.939 -0.3416  0.1831  0.2968
 9549TIP3    H152842   0.441   0.460  10.852  0.2660 -0.7500  0.6465
 9549TIP3    H252843   0.396   0.445  10.996 -0.4730  0.5959  0.5734
 9550TIP3   OH252844   3.998   0.752  11.538  0.0373  0.9041 -0.3144
 9550TIP3    H152845   4.049   0.807  11.598 -0.8822 -0.1015  1.4593
 9550TIP3    H252846   3.969   0.678  11.592  1.5328 -1.5762 -2.6757
 9551TIP3   OH252847   5.990   1.643  11.090  0.1130 -0.2365  0.0797
 9551TIP3    H152848   6.009   1.682  11.175 -2.5415  1.3173  0.0809
 9551TIP3    H252849   5.941   1.563  11.110  0.3689 -0.4054  0.0283
 9552TIP3   OH252850   5.124   5.897  11.922  0.2286 -0.3549 -0.3615
 9552TIP3    H152851   5.186   5.873  11.990 -1.4399 -1.8094  0.7528
 9552TIP3    H252852   5.085   5.814  11.893 -0.7670  0.4312 -1.4371
 9553TIP3   OH252853   0.322   1.375  10.376  0.1434 -0.8367  0.3693
 9553TIP3    H152854   0.376   1.427  10.435  1.8285 -0.3454 -1.4873
 9553TIP3    H252855   0.237   1.420  10.376  1.3984  1.7251 -0.7966
 9554TIP3   OH252856   2.179   7.341  10.542 -0.6014  0.0245 -0.4283
 9554TIP3    H152857   2.187   7.349  10.637  0.5135  0.0506 -0.5058
 9554TIP3    H252858   2.139   7.423  10.514  0.5683  0.7191 -0.1340
 9555TIP3   OH252859   6.846   0.714  11.038 -0.1445  0.0130  0.6232
 9555TIP3    H152860   6.921   0.767  11.011 -1.2134  0.2568 -2.2448
 9555TIP3    H252861   6.776   0.739  10.977 -1.4085 -2.9283  0.6903
 9556TIP3   OH252862   4.720   4.604   9.804 -0.2243 -0.1437  0.1986
 9556TIP3    H152863   4.640   4.636   9.762 -0.0939 -0.6745 -0.4608
 9556TIP3    H252864   4.698   4.516   9.834  0.3701 -0.6128 -0.7288
 9557TIP3   OH252865   4.677   7.126  10.990  0.4198  0.3098  0.0376
 9557TIP3    H152866   4.735   7.057  11.021 -2.3128 -1.8843  0.6026
 9557TIP3    H252867   4.625   7.085  10.920  0.5193  2.6234 -1.5129
 9558TIP3   OH252868   5.053   4.751  10.081 -0.2621 -0.2543  0.2103
 9558TIP3    H152869   5.095   4.731  10.165  0.8321  0.1299 -0.2353
 9558TIP3    H252870   4.980   4.808  10.104 -0.2569 -0.5278  0.9444
 9559TIP3   OH252871   5.013   0.257  11.294 -0.5590 -0.9423  0.2459
 9559TIP3    H152872   5.094   0.279  11.248 -0.3074 -1.7590  0.2825
 9559TIP3    H252873   4.995   0.334  11.347  0.5348 -0.9834  0.7131
 9560TIP3   OH252874   7.174   5.250  10.241  0.3743  0.0819 -0.2520
 9560TIP3    H152875   7.117   5.233  10.166  0.8962  0.0139 -0.6328
 9560TIP3    H252876   7.179   5.346  10.246 -1.1302  0.1490  0.8176
 9561TIP3   OH252877   6.923   5.154  11.029  0.3612  0.5987 -0.8475
 9561TIP3    H152878   6.917   5.155  11.125  0.4879 -4.6572 -0.5213
 9561TIP3    H252879   7.011   5.186  11.011  0.4061  1.5267  0.7736
 9562TIP3   OH252880   3.655   1.148  11.435  0.2059  0.2184  0.2668
 9562TIP3    H152881   3.588   1.098  11.483  0.9006  0.1636  1.2252
 9562TIP3    H252882   3.738   1.115  11.470  0.7680 -0.0744 -1.2580
 9563TIP3   OH252883   1.046   1.198  10.786  0.6265  0.4744  0.3555
 9563TIP3    H152884   1.098   1.144  10.846 -0.9181 -2.9055 -1.1113
 9563TIP3    H252885   1.111   1.247  10.736  2.1874 -0.6004  1.2228
 9564TIP3   OH252886   5.299   5.878  12.122  0.0691  0.6770  0.4863
 9564TIP3    H152887   5.385   5.843  12.149  0.5185  0.2409 -1.3547
 9564TIP3    H252888   5.307   5.973  12.134  1.0412  0.7019 -0.2060
 9565TIP3   OH252889   6.911   7.054  10.911  0.4135 -0.1744 -0.6676
 9565TIP3    H152890   6.890   6.961  10.906  0.0925 -0.0563 -1.7830
 9565TIP3    H252891   6.968   7.061  10.987  0.7849 -1.3512 -0.8104
 9566TIP3   OH252892   7.090   6.299  11.399  0.5016 -0.5078 -0.0362
 9566TIP3    H152893   7.050   6.213  11.411 -0.9512  0.2897  1.1318
 9566TIP3    H252894   7.167   6.298  11.456  0.2906 -0.9028  0.2490
 9567TIP3   OH252895   0.161   3.716  11.134  0.0252  0.5472  0.5701
 9567TIP3    H152896   0.212   3.638  11.155 -0.8967 -0.1377  0.3515
 9567TIP3    H252897   0.181   3.778  11.204  0.0070 -0.2569  1.2987
 9568TIP3   OH252898   3.721   3.987  10.376 -0.3828 -0.8512  0.6900
 9568TIP3    H152899   3.627   3.990  10.359 -0.4633  0.6429  1.2586
 9568TIP3    H252900   3.731   3.915  10.439 -0.7213 -2.9549 -1.5295
 9569TIP3   OH252901   2.083   4.980  10.200  0.4959 -0.7201  0.0823
 9569TIP3    H152902   2.065   4.907  10.141 -0.6054 -1.1488  0.9232
 9569TIP3    H252903   2.021   4.970  10.272  0.6170  0.7917  0.4478
 9570TIP3   OH252904   4.621   0.117   9.737  0.2073 -0.3237 -0.4545
 9570TIP3    H152905   4.587   0.138   9.824  1.3261  2.4762 -0.5749
 9570TIP3    H252906   4.708   0.080   9.753 -0.6347 -2.4143 -0.3594
 9571TIP3   OH252907   5.110   0.901  12.308 -0.0615  0.3623 -0.2605
 9571TIP3    H152908   5.126   0.811  12.279  1.0547  0.8538 -1.2761
 9571TIP3    H252909   5.015   0.908  12.316 -0.3028 -0.3318 -2.1430
 9572TIP3   OH252910   1.677   3.314  10.787 -0.0967  0.0878 -0.1169
 9572TIP3    H152911   1.593   3.344  10.752  0.1726  1.0977  0.0880
 9572TIP3    H252912   1.658   3.229  10.827 -1.3401  0.9553  1.2252
 9573TIP3   OH252913   2.442   5.194  10.345 -0.0239  0.2304 -0.3700
 9573TIP3    H152914   2.394   5.120  10.308 -0.5890  0.6722 -0.5339
 9573TIP3    H252915   2.505   5.218  10.277  1.7856 -1.5544  0.5792
 9574TIP3   OH252916   0.056   3.025   9.901  0.8403 -0.3448  0.6136
 9574TIP3    H152917  -0.021   3.081   9.895 -0.8230 -2.4466  1.0152
 9574TIP3    H252918   0.049   2.967   9.825  1.9463 -0.6807  0.7542
 9575TIP3   OH252919   4.694   1.245  10.228  0.3477  0.0320 -0.0110
 9575TIP3    H152920   4.639   1.311  10.270  1.4863  0.2049  1.2859
 9575TIP3    H252921   4.657   1.162  10.259  0.5057  0.1323  0.4528
 9576TIP3   OH252922   0.107   0.942  11.631 -0.3330 -0.2245 -0.1352
 9576TIP3    H152923   0.018   0.967  11.608  0.1006  0.4666 -1.1145
 9576TIP3    H252924   0.103   0.847  11.643 -1.2317 -0.1758  0.0222
 9577TIP3   OH252925   2.656   6.168  10.786 -0.3075 -0.2432  1.2398
 9577TIP3    H152926   2.624   6.184  10.875 -0.1258  2.8315  0.8599
 9577TIP3    H252927   2.577   6.163  10.733 -0.3714  1.2239  1.1591
 9578TIP3   OH252928   0.654   0.990  11.630 -0.4057  0.0987  0.4617
 9578TIP3    H152929   0.676   0.953  11.716 -1.6776  0.1240  0.8274
 9578TIP3    H252930   0.678   1.082  11.637 -1.2246  0.2853  1.1006
 9579TIP3   OH252931   2.826   1.308   9.606  0.3701  0.4975 -0.2560
 9579TIP3    H152932   2.742   1.270   9.583  0.4053 -1.3572  2.2343
 9579TIP3    H252933   2.891   1.247   9.572  0.5434  0.0244  0.8659
 9580TIP3   OH252934   0.881   3.594  10.168 -0.2474  0.7590 -0.3875
 9580TIP3    H152935   0.908   3.643  10.245  0.2736  0.8563 -0.6296
 9580TIP3    H252936   0.852   3.660  10.106 -1.7684  0.6203  0.1277
 9581TIP3   OH252937   4.664   1.493  11.746 -0.1599  0.1270 -0.3311
 9581TIP3    H152938   4.672   1.588  11.746 -0.1713  0.1311  0.6482
 9581TIP3    H252939   4.705   1.466  11.663 -3.4301  1.2288 -2.5211
 9582TIP3   OH252940   5.170   1.191  10.858 -0.4485  0.7028 -0.4584
 9582TIP3    H152941   5.076   1.194  10.877 -0.2391  0.2626  0.7697
 9582TIP3    H252942   5.190   1.098  10.847 -0.2271  0.8251 -1.1111
 9583TIP3   OH252943   6.505   1.804  11.028  0.1543 -0.5420 -0.7371
 9583TIP3    H152944   6.530   1.744  10.958 -0.4263 -0.5905 -0.9092
 9583TIP3    H252945   6.429   1.762  11.070  0.3509 -0.4016 -0.2274
 9584TIP3   OH252946   6.080   2.904  10.355 -0.4840 -0.3656 -0.0162
 9584TIP3    H152947   6.043   2.836  10.411 -2.0779  0.0951 -0.4638
 9584TIP3    H252948   6.032   2.896  10.272 -0.2135  0.8536 -0.3120
 9585TIP3   OH252949   1.096   2.808  11.031 -0.0166 -0.1505 -0.0932
 9585TIP3    H152950   1.111   2.817  11.125  0.5351  1.0364 -0.2726
 9585TIP3    H252951   1.078   2.898  11.001 -1.4469 -0.6695 -0.9188
 9586TIP3   OH252952   6.174   4.731  10.725  0.0318 -0.1529  0.2888
 9586TIP3    H152953   6.186   4.651  10.776 -0.4348  1.0070  2.3096
 9586TIP3    H252954   6.079   4.746  10.725  0.1432  0.5810  0.2101
 9587TIP3   OH252955   5.226   4.864  10.798  0.0796  0.2350 -0.0529
 9587TIP3    H152956   5.294   4.888  10.862 -0.6955 -0.0509  0.8876
 9587TIP3    H252957   5.274   4.815  10.731  0.8662  0.2992  0.4384
 9588TIP3   OH252958   6.884   1.894  10.310 -0.3401 -0.5210 -0.1478
 9588TIP3    H152959   6.906   1.972  10.259  0.7323 -1.3757 -1.0531
 9588TIP3    H252960   6.909   1.916  10.399  3.9584 -1.1962 -0.9897
 9589TIP3   OH252961   5.997   0.228  12.110  0.1736 -0.2014 -0.3871
 9589TIP3    H152962   5.997   0.132  12.101  1.8285 -0.2053 -0.7128
 9589TIP3    H252963   5.984   0.243  12.203 -0.2660 -0.7475 -0.3561
 9590TIP3   OH252964   3.598   6.586  10.292 -0.6777  0.2373  0.0017
 9590TIP3    H152965   3.525   6.589  10.230 -0.4183  1.7952 -0.2738
 9590TIP3    H252966   3.561   6.621  10.373  0.3859  4.1211 -0.9367
 9591TIP3   OH252967   3.007   6.990  11.708 -0.2106 -0.1333 -0.4278
 9591TIP3    H152968   3.083   7.033  11.668  0.3537  0.3480  1.1146
 9591TIP3    H252969   2.984   6.921  11.645  0.5213  0.7083 -1.6626
 9592TIP3   OH252970   5.564   4.518  10.770 -0.0233  0.1331  0.0715
 9592TIP3    H152971   5.630   4.563  10.821  0.5402  1.7174 -1.9464
 9592TIP3    H252972   5.522   4.458  10.832 -2.2937  4.7689  3.5932
 9593TIP3   OH252973   2.063   4.984  11.300  0.0135 -0.2738 -0.5809
 9593TIP3    H152974   1.993   4.991  11.235 -0.1973 -0.4363 -0.3721
 9593TIP3    H252975   2.094   5.074  11.312  0.5215 -0.3255 -1.4191
 9594TIP3   OH252976   5.762   0.147  11.637 -0.5926  0.1096 -0.1634
 9594TIP3    H152977   5.794   0.237  11.644  1.4178 -0.3702 -1.8844
 9594TIP3    H252978   5.715   0.131  11.719  1.5399  1.7750  1.5019
 9595TIP3   OH252979   3.158   1.405  11.557 -0.0297  0.6025  0.2534
 9595TIP3    H152980   3.141   1.311  11.564  0.8105  0.4548  0.4032
 9595TIP3    H252981   3.224   1.413  11.488 -0.2069  1.1013  0.1337
 9596TIP3   OH252982   4.145   1.844  10.531 -0.7437 -0.1125  0.0082
 9596TIP3    H152983   4.137   1.837  10.435  1.9625 -3.1987 -0.1468
 9596TIP3    H252984   4.059   1.816  10.563 -1.7406  1.0711 -1.4647
 9597TIP3   OH252985   3.208   2.951  12.187  0.0653 -0.2715  0.2509
 9597TIP3    H152986   3.178   2.962  12.097  0.4959 -0.1980  0.1130
 9597TIP3    H252987   3.135   2.909  12.232 -0.4617  0.4199  0.0603
 9598TIP3   OH252988   7.196   0.184  10.578 -0.2164  0.4912  0.3242
 9598TIP3    H152989   7.126   0.153  10.635 -1.2727  0.9110 -0.7093
 9598TIP3    H252990   7.227   0.264  10.620 -0.0538  0.0731  1.0136
 9599TIP3   OH252991   2.169   0.551  11.589  0.0044 -0.6943 -0.2213
 9599TIP3    H152992   2.113   0.496  11.644 -2.5174  1.4581 -0.4033
 9599TIP3    H252993   2.122   0.557  11.506 -0.3313  2.2563  0.0606
 9600TIP3   OH252994   5.057   2.226  11.962 -0.3694 -0.2003 -0.5013
 9600TIP3    H152995   4.975   2.207  12.008  0.5051  1.0564  1.6887
 9600TIP3    H252996   5.115   2.261  12.029  1.9853 -1.0139 -2.0065
 9601TIP3   OH252997   6.088   2.136  10.267 -0.6251 -0.1184  0.1696
 9601TIP3    H152998   6.055   2.226  10.262  1.7746  0.9059  1.2530
 9601TIP3    H252999   6.126   2.119  10.181  0.7475  0.7122  0.5874
 9602TIP3   OH253000   4.649   5.976  11.180 -0.0198 -0.3157 -0.8695
 9602TIP3    H153001   4.662   6.057  11.129  1.4332 -0.8880 -1.4716
 9602TIP3    H253002   4.666   6.002  11.270  1.6803 -0.1668 -1.1920
 9603TIP3   OH253003   5.231   1.146  12.207 -0.5124  0.3455  0.6701
 9603TIP3    H153004   5.198   1.060  12.234  0.5609 -1.4902 -3.0403
 9603TIP3    H253005   5.321   1.148  12.238  0.9899 -2.0972 -2.8251
 9604TIP3   OH253006   5.786   4.950  10.145 -0.0419 -0.3744  0.1945
 9604TIP3    H153007   5.738   5.024  10.181 -0.5062 -0.7378  0.3304
 9604TIP3    H253008   5.733   4.874  10.166  0.6296 -0.7967  0.4165
 9605TIP3   OH253009   7.240   7.097  11.434 -0.2224 -0.1672 -0.1085
 9605TIP3    H153010   7.292   7.025  11.397  0.1607 -0.4216  0.8842
 9605TIP3    H253011   7.159   7.055  11.462 -0.4532 -0.0011 -0.5194
 9606TIP3   OH253012   0.912   4.759  11.646 -0.8440 -0.0460 -0.4893
 9606TIP3    H153013   0.930   4.719  11.561 -1.2724 -0.7876 -0.2475
 9606TIP3    H253014   0.887   4.685  11.702 -0.4975  0.4167  0.3031
 9607TIP3   OH253015   1.277   5.134  11.596  0.0829  0.1166 -0.2801
 9607TIP3    H153016   1.220   5.079  11.650 -0.0286  0.0042 -0.5126
 9607TIP3    H253017   1.316   5.196  11.658  0.6927 -0.6167  0.0938
 9608TIP3   OH253018   1.608   7.345  10.275  0.0839 -0.1282 -0.6499
 9608TIP3    H153019   1.553   7.270  10.295  0.0978 -0.1076 -0.5327
 9608TIP3    H253020   1.548   7.410  10.239  0.1313 -0.3304 -1.0953
 9609TIP3   OH253021   5.106   0.204  10.012  0.0613 -0.4681 -0.2858
 9609TIP3    H153022   5.189   0.235  10.048 -0.4206  0.2518  0.2400
 9609TIP3    H253023   5.063   0.161  10.086 -1.4580  2.0619  0.4193
 9610TIP3   OH253024   6.471   5.977  11.582  0.0712  0.3279 -0.0465
 9610TIP3    H153025   6.494   6.070  11.594  0.0389  0.6256 -1.9878
 9610TIP3    H253026   6.500   5.957  11.494 -0.7481 -1.2828  0.0297
 9611TIP3   OH253027   5.565   6.403   9.437  0.5876 -0.4534  0.4311
 9611TIP3    H153028   5.516   6.376   9.360  1.7963 -2.7730  0.4000
 9611TIP3    H253029   5.514   6.370   9.511 -0.8710  2.2540  0.7750
 9612TIP3   OH253030   1.724   2.588  10.620  0.4979  0.1579 -0.2267
 9612TIP3    H153031   1.753   2.629  10.701 -0.9028  0.0874  0.3364
 9612TIP3    H253032   1.755   2.646  10.551 -0.1584  1.3737  0.4783
 9613TIP3   OH253033   0.627   1.931  11.742  0.0414  0.1865 -0.0034
 9613TIP3    H153034   0.710   1.978  11.735 -0.2772  0.9307  0.9343
 9613TIP3    H253035   0.576   1.982  11.804 -0.9570 -0.5079 -0.2257
 9614TIP3   OH253036   4.333   0.030  10.724  0.0023 -0.6613  0.5687
 9614TIP3    H153037   4.267   0.002  10.661 -0.7040  1.7189  0.1600
 9614TIP3    H253038   4.360   0.117  10.694  0.6401 -0.0272  2.7722
 9615TIP3   OH253039   6.970   1.950  10.001 -0.4149 -0.3819  0.2169
 9615TIP3    H153040   6.982   1.927   9.908 -2.1794 -0.4322 -0.0289
 9615TIP3    H253041   6.912   1.882  10.035  2.2366 -1.8867  2.0829
 9616TIP3   OH253042   3.948   1.045  11.929  0.8402  0.1859  0.1313
 9616TIP3    H153043   3.857   1.050  11.898  0.9788 -1.6742 -0.7116
 9616TIP3    H253044   3.994   1.109  11.875  0.2163  0.3906 -0.1742
 9617TIP3   OH253045   0.418   2.418  10.560  0.1703 -0.1202  0.0511
 9617TIP3    H153046   0.399   2.434  10.652 -0.2322  0.1360 -0.0699
 9617TIP3    H253047   0.333   2.424  10.517  0.3756 -0.0885 -0.3567
 9618TIP3   OH253048   3.740   0.305  11.391  0.6922  0.0590 -0.9558
 9618TIP3    H153049   3.715   0.306  11.483 -0.8573  2.6116 -1.3272
 9618TIP3    H253050   3.714   0.218  11.361 -0.3807 -0.2104  0.6158
 9619TIP3   OH253051   5.151   5.274  11.426 -0.4813  0.4566  0.5491
 9619TIP3    H153052   5.171   5.358  11.385 -0.5556  0.4566  0.5130
 9619TIP3    H253053   5.176   5.209  11.360 -0.5514  0.4548  0.5246
 9620TIP3   OH253054   3.415   6.146   9.576  0.0129 -0.2949  0.1028
 9620TIP3    H153055   3.350   6.215   9.577  0.1169 -0.1923 -0.1495
 9620TIP3    H253056   3.468   6.161   9.654 -0.1228 -0.2420  0.1847
 9621TIP3   OH253057   0.833   6.544  10.481  0.3528 -0.1302 -0.4658
 9621TIP3    H153058   0.794   6.478  10.539 -0.6736  2.0454  1.5317
 9621TIP3    H253059   0.767   6.559  10.414 -0.8010  0.9631  0.8423
 9622TIP3   OH253060   0.275   4.702  10.743 -0.0333 -0.1758 -0.2150
 9622TIP3    H153061   0.222   4.627  10.715 -0.6590  0.3530 -0.4563
 9622TIP3    H253062   0.287   4.754  10.664 -0.7785  0.6908  0.2221
 9623TIP3   OH253063   1.494   3.352  11.085 -0.4745  0.2746  0.2207
 9623TIP3    H153064   1.535   3.435  11.062  0.5912  0.1402  1.5303
 9623TIP3    H253065   1.526   3.291  11.019 -1.1256  0.8469 -0.6471
 9624TIP3   OH253066   7.306   2.748   9.917 -0.4213  0.0180  0.9199
 9624TIP3    H153067   7.350   2.821   9.961  0.1407 -0.2697  0.8461
 9624TIP3    H253068   7.235   2.788   9.867 -0.8844  0.3904  1.8407
 9625TIP3   OH253069   1.243   0.181  11.306  0.2519 -0.4060  0.1898
 9625TIP3    H153070   1.222   0.177  11.213  0.3883  0.4696  0.1153
 9625TIP3    H253071   1.253   0.274  11.325 -2.0599 -0.3726  1.6059
 9626TIP3   OH253072   4.354   5.356  11.612 -0.7835 -1.2235 -0.2053
 9626TIP3    H153073   4.264   5.327  11.598 -1.1456 -0.9704  1.4323
 9626TIP3    H253074   4.404   5.314  11.542 -1.9052 -2.6608 -0.1758
 9627TIP3   OH253075   1.617   5.556   9.611  0.1567  0.2217 -0.1333
 9627TIP3    H153076   1.683   5.615   9.577 -1.2395  1.4023 -0.9056
 9627TIP3    H253077   1.612   5.484   9.547 -0.2954  0.8623 -0.8310
 9628TIP3   OH253078   7.251   4.713  10.315 -0.6627 -0.0879  0.4143
 9628TIP3    H153079   7.255   4.680  10.226  0.4200  1.9878 -0.3811
 9628TIP3    H253080   7.258   4.635  10.370  1.3976 -1.2414 -1.3088
 9629TIP3   OH253081   1.995   6.710  10.679 -0.2398  0.0792 -0.4333
 9629TIP3    H153082   2.060   6.748  10.737 -0.0084 -1.1243  0.1066
 9629TIP3    H253083   2.045   6.659  10.615 -0.5706  0.3438 -0.9165
 9630TIP3   OH253084   7.197   1.314  11.262 -0.6819  0.4401  0.1876
 9630TIP3    H153085   7.174   1.289  11.352  3.4507 -0.0495  1.3116
 9630TIP3    H253086   7.223   1.231  11.221 -0.6483  0.9384 -0.8050
 9631TIP3   OH253087   6.350   7.401  11.307  0.1714  0.3760 -0.0140
 9631TIP3    H153088   6.266   7.445  11.302  0.0827  0.3679  1.1303
 9631TIP3    H253089   6.328   7.307  11.306  0.2289  0.3631 -0.4729
 9632TIP3   OH253090   6.315   1.660  11.171  0.5594  0.2665 -0.2495
 9632TIP3    H153091   6.260   1.713  11.230  0.3774  0.2677 -0.4194
 9632TIP3    H253092   6.344   1.586  11.225  0.4304  0.2925 -0.1445
 9633TIP3   OH253093   7.036   1.652  10.323 -0.5672 -0.3957 -0.1042
 9633TIP3    H153094   6.971   1.721  10.337 -0.8589 -0.6886  0.0249
 9633TIP3    H253095   6.988   1.584  10.275 -0.7775 -1.2554  1.2892
 9634TIP3   OH253096   0.200   2.961  11.391 -0.4810 -0.0326  0.2841
 9634TIP3    H153097   0.124   2.911  11.362 -1.9634  1.6123  1.1350
 9634TIP3    H253098   0.181   3.051  11.364  0.2709  0.7240  2.1103
 9635TIP3   OH253099   6.834   2.051  10.802 -0.2508 -0.0267  0.3210
 9635TIP3    H153100   6.816   2.026  10.893  2.5159  3.2270  2.0344
 9635TIP3    H253101   6.755   2.099  10.775 -0.6944 -0.0925  1.4211
 9636TIP3   OH253102   6.575   3.209  11.962 -0.3988 -0.0576  0.7772
 9636TIP3    H153103   6.540   3.149  11.897  1.1894  1.2097 -1.3718
 9636TIP3    H253104   6.526   3.290  11.950 -1.0044 -0.1926  2.1265
 9637TIP3   OH253105   3.530   2.840  11.060  0.2763  0.0582 -0.3714
 9637TIP3    H153106   3.608   2.896  11.062  1.4183 -1.4554  0.8965
 9637TIP3    H253107   3.526   2.807  10.970  0.6728  0.7248 -0.6402
 9638TIP3   OH253108   6.311   4.835  10.496  0.2369  1.0660  0.1508
 9638TIP3    H153109   6.237   4.834  10.435  0.8930 -0.7106 -0.7032
 9638TIP3    H253110   6.278   4.794  10.575  0.1187  0.9443  0.0378
 9639TIP3   OH253111   4.121   2.194   9.663 -0.3837 -0.5322 -0.3926
 9639TIP3    H153112   4.156   2.282   9.648  1.0013 -0.8812  0.5233
 9639TIP3    H253113   4.041   2.191   9.612 -0.4081  1.2289 -0.5357
 9640TIP3   OH253114   0.732   0.143   9.802 -0.0412 -0.6643  0.2504
 9640TIP3    H153115   0.731   0.054   9.837 -1.0687 -0.2559  1.3114
 9640TIP3    H253116   0.793   0.190   9.859 -0.0746 -0.5081  0.1574
 9641TIP3   OH253117   7.420   1.871  11.526 -0.4827  0.5346 -0.6227
 9641TIP3    H153118   7.515   1.874  11.517 -0.4226 -0.4062 -0.4547
 9641TIP3    H253119   7.388   1.944  11.473  0.3111  0.6224 -0.9969
 9642TIP3   OH253120   4.754   6.529  11.528  0.3127 -0.2692  0.1587
 9642TIP3    H153121   4.791   6.495  11.609  1.1112  1.6609  0.6574
 9642TIP3    H253122   4.670   6.484  11.519  0.1220 -0.4008  2.1537
 9643TIP3   OH253123   7.204   0.011   9.815  0.0032  0.4144 -0.1273
 9643TIP3    H153124   7.282  -0.007   9.868  0.5901  0.3137 -1.0098
 9643TIP3    H253125   7.200  -0.062   9.753  0.5474  1.6044 -1.6098
 9644TIP3   OH253126   7.446   1.472   9.877  0.3098  0.5845 -0.0850
 9644TIP3    H153127   7.534   1.467   9.914  1.4144  2.9023 -2.0766
 9644TIP3    H253128   7.454   1.536   9.806 -2.7404 -0.0100 -1.1038
 9645TIP3   OH253129   7.448   7.137  11.083 -0.9494 -0.1425  0.7141
 9645TIP3    H153130   7.412   7.053  11.057 -0.7863 -0.2126  0.7172
 9645TIP3    H253131   7.522   7.115  11.140 -0.5267 -0.0057  0.2233
 9646TIP3   OH253132   4.583   3.166  10.191  0.3529 -0.1029 -0.1855
 9646TIP3    H153133   4.653   3.215  10.235  0.7657  0.6569 -1.6428
 9646TIP3    H253134   4.502   3.207  10.223  0.5705 -0.5047  0.9447
 9647TIP3   OH253135   2.199   4.732  11.956  0.2248  0.1277  0.3750
 9647TIP3    H153136   2.193   4.800  11.889  0.8009  0.1682  0.3568
 9647TIP3    H253137   2.244   4.775  12.029  1.1333 -0.3925  0.1411
 9648TIP3   OH253138   6.629   0.677  10.858 -0.0405 -0.2788 -0.1250
 9648TIP3    H153139   6.566   0.619  10.814 -1.0716  2.6056 -2.7985
 9648TIP3    H253140   6.693   0.698  10.790  0.5435  1.3586  0.8911
 9649TIP3   OH253141   0.505   1.526  10.744  0.0195 -0.6080 -0.1733
 9649TIP3    H153142   0.455   1.569  10.675 -0.2536  0.5639  0.7294
 9649TIP3    H253143   0.581   1.489  10.699  0.6664  1.4626 -0.8988
 9650TIP3   OH253144   2.334   6.194  12.071  0.7291 -0.5255 -0.6982
 9650TIP3    H153145   2.290   6.120  12.113  0.0087 -0.7986 -1.8779
 9650TIP3    H253146   2.366   6.247  12.144 -0.3880 -1.0292  0.2039
 9651TIP3   OH253147   6.908   5.007   9.387  0.1658 -0.2709 -0.2426
 9651TIP3    H153148   7.000   4.996   9.362 -0.1224  1.1820 -2.2437
 9651TIP3    H253149   6.902   5.097   9.419 -0.4352 -0.6017  0.6193
 9652TIP3   OH253150   7.441   4.465  10.945 -0.3571  0.4362 -0.4960
 9652TIP3    H153151   7.529   4.429  10.932  0.2561  1.3444  0.9333
 9652TIP3    H253152   7.450   4.558  10.923 -1.0856  0.4435 -0.7795
 9653TIP3   OH253153   0.058   0.272  11.503  0.5805  0.2511  0.1820
 9653TIP3    H153154   0.033   0.195  11.553  0.8281 -0.5611 -0.9117
 9653TIP3    H253155  -0.025   0.316  11.484  0.1610 -1.0220 -1.1749
 9654TIP3   OH253156   0.471   3.543  11.843  1.1505 -0.0666 -0.0066
 9654TIP3    H153157   0.484   3.631  11.880  2.7512 -0.2968  0.0532
 9654TIP3    H253158   0.424   3.559  11.761 -0.7242  0.6118  1.1522
 9655TIP3   OH253159   6.383   6.289  12.225  0.6247 -0.2035 -0.3800
 9655TIP3    H153160   6.317   6.338  12.275  0.6200  1.3810 -1.8664
 9655TIP3    H253161   6.385   6.203  12.268 -1.1739  0.2526  0.7685
 9656TIP3   OH253162   6.724   3.782   9.665  0.1517 -0.0682 -0.3005
 9656TIP3    H153163   6.806   3.731   9.669  0.1903 -0.1948 -1.8646
 9656TIP3    H253164   6.655   3.718   9.683  0.3499 -0.1039  0.3583
 9657TIP3   OH253165   6.441   6.137  10.671  0.3076  0.1609 -0.2701
 9657TIP3    H153166   6.404   6.170  10.753 -1.3902  0.8697 -1.2687
 9657TIP3    H253167   6.446   6.042  10.685  0.3942  0.3015  0.7793
 9658TIP3   OH253168   1.377   3.274  11.322  0.2257  0.4406 -0.2333
 9658TIP3    H153169   1.433   3.306  11.252  1.5565  0.4844  0.8228
 9658TIP3    H253170   1.411   3.314  11.401  0.7296 -1.9982  0.8909
 9659TIP3   OH253171   2.292   3.931  11.896 -0.7569  0.0734 -0.3864
 9659TIP3    H153172   2.207   3.970  11.916 -2.2956 -3.1654  0.0621
 9659TIP3    H253173   2.280   3.892  11.809  0.5645  0.2056 -0.6454
 9660TIP3   OH253174   4.241   5.426   9.935  0.4398 -0.1257  0.6093
 9660TIP3    H153175   4.214   5.414  10.026 -0.6582  0.9322  0.4556
 9660TIP3    H253176   4.167   5.472   9.895  0.6003 -1.2057 -1.0063
 9661TIP3   OH253177   5.603   7.465   9.984 -0.5182  0.4007  0.1642
 9661TIP3    H153178   5.595   7.533   9.918 -0.0796  2.4931  2.1389
 9661TIP3    H253179   5.698   7.451   9.992 -0.6192 -0.9779 -0.6732
 9662TIP3   OH253180   2.117   0.488  10.436  0.1852  0.6065 -0.0397
 9662TIP3    H153181   2.139   0.455  10.349  0.6023 -0.8045  0.5780
 9662TIP3    H253182   2.179   0.445  10.494 -2.3694 -1.4082  1.4322
 9663TIP3   OH253183   5.937   7.404  11.883 -0.1170 -0.0308 -0.1309
 9663TIP3    H153184   5.959   7.315  11.855 -0.0490 -0.6448  1.7505
 9663TIP3    H253185   6.001   7.460  11.838  1.7568 -1.2392  0.8945
 9664TIP3   OH253186   4.224   0.532  10.940  0.8318 -0.2048  0.1383
 9664TIP3    H153187   4.161   0.489  10.883  0.0388 -0.3070  1.0633
 9664TIP3    H253188   4.310   0.508  10.904  0.3573  0.1610 -1.2989
 9665TIP3   OH253189   4.061   4.829  10.392  0.4324  0.5953  0.3955
 9665TIP3    H153190   4.098   4.917  10.387  0.3250  0.6930  1.2475
 9665TIP3    H253191   3.978   4.835  10.345  1.2068  0.5168 -1.0365
 9666TIP3   OH253192   0.412   6.100  12.393  0.5927  0.4891  0.3076
 9666TIP3    H153193   0.373   6.015  12.373  2.7831 -0.3229 -0.8231
 9666TIP3    H253194   0.471   6.082  12.467 -0.4874  1.5120  1.4602
 9667TIP3   OH253195   5.864   6.882  12.399 -0.4960  0.0723 -0.0687
 9667TIP3    H153196   5.769   6.894  12.409 -0.5932  0.2830 -1.2061
 9667TIP3    H253197   5.902   6.934  12.470 -1.2359 -0.3730  0.6800
 9668TIP3   OH253198   2.793   3.231  10.173 -0.3099  0.2073 -0.0273
 9668TIP3    H153199   2.763   3.296  10.236 -2.7389  0.3954 -1.2582
 9668TIP3    H253200   2.866   3.187  10.216  0.1751  2.4464  1.5916
 9669TIP3   OH253201   1.416   3.519  10.651  0.0643  0.7174 -0.0519
 9669TIP3    H153202   1.371   3.599  10.624 -1.1263  1.2051  3.0384
 9669TIP3    H253203   1.354   3.449  10.632  0.8703  0.5136 -2.2007
 9670TIP3   OH253204   4.777   5.305  10.026 -0.2431 -0.0851  0.4932
 9670TIP3    H153205   4.773   5.235  10.091 -1.9852 -0.2167  0.2763
 9670TIP3    H253206   4.790   5.259   9.943  1.6524  0.0667  0.6431
 9671TIP3   OH253207   1.056   4.212   9.652  0.6423  0.1565  0.0250
 9671TIP3    H153208   1.135   4.158   9.659  0.1746 -0.7634 -1.3832
 9671TIP3    H253209   1.085   4.290   9.605  0.7033 -0.2290 -0.5889
 9672TIP3   OH253210   1.156   6.879  10.633 -0.5010 -0.2123  0.3469
 9672TIP3    H153211   1.170   6.949  10.697 -1.8787  0.5223 -0.1062
 9672TIP3    H253212   1.217   6.810  10.658  1.8440  1.6184  0.0845
 9673TIP3   OH253213   2.306   1.375   9.762 -0.0973  0.0394 -0.0468
 9673TIP3    H153214   2.300   1.305   9.827 -0.4093  0.0639 -0.0494
 9673TIP3    H253215   2.216   1.403   9.748 -0.0005  0.2497 -0.2570
 9674TIP3   OH253216   7.160   3.976  10.478 -0.0902 -0.0028 -0.2439
 9674TIP3    H153217   7.094   3.906  10.486 -0.4159  0.3140 -0.1586
 9674TIP3    H253218   7.179   4.001  10.569  0.7485 -0.6499 -0.2292
 9675TIP3   OH253219   6.218   3.659  11.521  0.6087  1.1677  0.0958
 9675TIP3    H153220   6.282   3.689  11.457  0.9466  2.1129  0.8392
 9675TIP3    H253221   6.270   3.622  11.592  0.2885  1.1102  0.3065
 9676TIP3   OH253222   7.001   0.800  12.263  0.0179  0.4025 -0.3330
 9676TIP3    H153223   6.983   0.889  12.235 -0.4424  0.5828  0.5146
 9676TIP3    H253224   7.087   0.805  12.306 -0.4651  0.6584  0.6392
 9677TIP3   OH253225   0.766   5.000  11.128  0.0474 -0.1802 -0.1144
 9677TIP3    H153226   0.796   5.027  11.214 -2.2048  2.8380 -0.0806
 9677TIP3    H253227   0.707   4.926  11.145 -0.1131  0.1686  0.9303
 9678TIP3   OH253228   0.352   0.121  10.384 -0.7683 -0.2618 -0.2646
 9678TIP3    H153229   0.300   0.177  10.442  0.8430 -0.0232  1.0147
 9678TIP3    H253230   0.433   0.170  10.370  0.0409 -1.5772 -0.3710
 9679TIP3   OH253231   1.349   5.216  10.754  0.2203 -0.7546  0.0446
 9679TIP3    H153232   1.443   5.220  10.775  0.1090 -1.0955  0.6445
 9679TIP3    H253233   1.306   5.224  10.839 -0.2553 -2.1403 -0.0330
 9680TIP3   OH253234   3.541   6.294   9.758  0.3620 -0.2059 -0.0561
 9680TIP3    H153235   3.542   6.290   9.853  0.1469 -0.4810 -0.0638
 9680TIP3    H253236   3.579   6.379   9.737 -1.4881  0.7791  0.3433
 9681TIP3   OH253237   0.193   1.331  10.003 -0.5123  0.1814 -0.1670
 9681TIP3    H153238   0.202   1.238  10.023  1.8172  0.2282 -0.7727
 9681TIP3    H253239   0.236   1.376  10.075 -0.1187  0.7155 -0.7259
 9682TIP3   OH253240   4.380   0.653  10.139 -0.9825  0.4252  0.1277
 9682TIP3    H153241   4.361   0.562  10.116 -1.3541  0.3872  0.5822
 9682TIP3    H253242   4.440   0.647  10.212 -0.5735  0.5500 -0.1936
 9683TIP3   OH253243   4.815   3.053  12.014  0.3054 -0.4705  0.8753
 9683TIP3    H153244   4.857   3.072  12.098  0.8258 -1.6904  0.9164
 9683TIP3    H253245   4.777   2.966  12.025 -0.7103 -0.1241  0.2402
 9684TIP3   OH253246   0.472   1.922   9.927  0.1794  0.7936 -0.3878
 9684TIP3    H153247   0.420   1.937   9.848  0.6393 -0.7086 -1.0126
 9684TIP3    H253248   0.450   1.995   9.985 -0.7528  1.5002 -1.6006
 9685TIP3   OH253249   6.694   6.240  11.399 -0.0579  0.2160 -0.5695
 9685TIP3    H153250   6.759   6.230  11.330  2.1893 -0.2716  1.4946
 9685TIP3    H253251   6.742   6.279  11.472 -2.4682  1.2409  0.5776
 9686TIP3   OH253252   3.697   4.269  11.053 -0.1188  0.2031  0.2662
 9686TIP3    H153253   3.753   4.315  10.991 -0.1290 -0.8182 -0.5283
 9686TIP3    H253254   3.705   4.319  11.134 -0.7285  2.0203 -0.7384
 9687TIP3   OH253255   7.366   2.491  11.389 -0.1206 -0.0688  0.7100
 9687TIP3    H153256   7.279   2.485  11.430 -0.4236  0.7306  0.2246
 9687TIP3    H253257   7.420   2.536  11.454 -0.1234 -0.3751  0.9265
 9688TIP3   OH253258   2.948   6.434  11.363  0.6535 -0.2067 -0.4923
 9688TIP3    H153259   3.011   6.505  11.374 -0.0793  0.0992  2.7629
 9688TIP3    H253260   2.984   6.362  11.416 -1.0529 -0.4387  0.4268
 9689TIP3   OH253261   5.208   5.230  10.613  0.8578 -0.3675 -0.4141
 9689TIP3    H153262   5.289   5.255  10.656  0.0957  2.0230 -0.2264
 9689TIP3    H253263   5.161   5.312  10.600 -2.4973 -1.7840  1.4231
 9690TIP3   OH253264   3.683   7.105   9.768  0.3366  0.4454  0.3997
 9690TIP3    H153265   3.680   7.178   9.707 -0.2773  0.2982  0.2461
 9690TIP3    H253266   3.774   7.102   9.798  0.9269 -0.1599 -1.3309
 9691TIP3   OH253267   3.251   3.576  11.661 -0.0130  0.8065 -0.3093
 9691TIP3    H153268   3.174   3.593  11.715 -0.7289 -2.5855 -0.0150
 9691TIP3    H253269   3.296   3.504  11.705  0.2852 -0.9683 -3.2552
 9692TIP3   OH253270   4.941   2.230  11.442  0.3874 -0.5687 -0.5853
 9692TIP3    H153271   4.992   2.268  11.370  2.0651  0.4780  1.0584
 9692TIP3    H253272   4.850   2.236  11.413  0.9316  0.8111 -2.1574
 9693TIP3   OH253273   6.480   5.560  11.016 -0.8498  0.4407 -0.2466
 9693TIP3    H153274   6.555   5.611  11.048 -1.0823  0.3335  0.4640
 9693TIP3    H253275   6.519   5.479  10.982 -0.6194  0.5126 -0.1549
 9694TIP3   OH253276   7.261   6.376  10.576 -0.2138 -0.0667 -0.0151
 9694TIP3    H153277   7.290   6.358  10.487 -0.1329 -0.9043  0.1757
 9694TIP3    H253278   7.339   6.365  10.630 -0.7840 -2.0748  0.4688
 9695TIP3   OH253279   4.288   4.276  10.910  0.2444  0.8030 -0.0689
 9695TIP3    H153280   4.382   4.264  10.897  0.4277 -1.4473  2.5704
 9695TIP3    H253281   4.255   4.189  10.932 -2.4170  1.6051 -0.4941
 9696TIP3   OH253282   2.507   4.464  10.405  0.2664 -0.2310  0.4085
 9696TIP3    H153283   2.598   4.491  10.399 -0.2852  1.4410 -1.5428
 9696TIP3    H253284   2.497   4.395  10.340  0.1441 -0.4079  0.6135
 9697TIP3   OH253285   6.168   3.931  10.859 -0.3795  0.5093  0.7110
 9697TIP3    H153286   6.250   3.922  10.810 -1.7597 -0.2456 -1.5931
 9697TIP3    H253287   6.141   4.022  10.845  0.3092  0.9385  1.9761
 9698TIP3   OH253288   7.020   2.718  12.488  0.4372 -0.4868  0.1496
 9698TIP3    H153289   7.068   2.747  12.410 -0.5456  0.2764 -0.1968
 9698TIP3    H253290   6.930   2.704  12.456 -0.3275  1.2175  1.4236
 9699TIP3   OH253291   2.689   5.146  11.019 -0.4532 -0.2452  0.0840
 9699TIP3    H153292   2.642   5.228  11.030 -0.2714 -0.2754  1.2352
 9699TIP3    H253293   2.713   5.144  10.927  1.8215  2.2683  0.5030
 9700TIP3   OH253294   5.459   3.694  10.624 -0.2267  1.0202 -0.2468
 9700TIP3    H153295   5.545   3.721  10.656  0.4849  0.3421 -1.5384
 9700TIP3    H253296   5.422   3.773  10.584 -1.3496  2.0362  2.5512
 9701TIP3   OH253297   3.098   2.634  11.547 -0.0614  0.2413 -0.0351
 9701TIP3    H153298   3.176   2.654  11.496  0.6707  3.3610  2.0299
 9701TIP3    H253299   3.130   2.616  11.635 -1.5779  1.2440  0.7796
 9702TIP3   OH253300   5.654   4.924  11.729 -0.8776  0.2042 -0.2153
 9702TIP3    H153301   5.592   4.851  11.729  0.1225 -0.6878  0.0534
 9702TIP3    H253302   5.709   4.908  11.806 -0.2008  0.8585 -0.5515
 9703TIP3   OH253303   1.817   5.646  11.962  0.3933  0.0102 -0.0847
 9703TIP3    H153304   1.741   5.606  11.919  0.2512  1.5343 -1.3281
 9703TIP3    H253305   1.830   5.593  12.041 -0.0864 -2.1355 -1.3526
 9704TIP3   OH253306   4.609   1.721   9.194  0.6488 -0.1320  0.4582
 9704TIP3    H153307   4.671   1.716   9.267  1.0658  1.3112  0.2453
 9704TIP3    H253308   4.664   1.711   9.116  0.6406  1.1468  0.2680
 9705TIP3   OH253309   0.857   1.379  11.805 -0.7619  0.1550  0.0819
 9705TIP3    H153310   0.798   1.307  11.827  0.5784 -0.2295  2.7412
 9705TIP3    H253311   0.915   1.387  11.880  0.4238  2.7396 -0.9821
 9706TIP3   OH253312   4.375   5.459  10.909 -0.3948 -0.4407 -0.4591
 9706TIP3    H153313   4.351   5.370  10.936  4.4528 -1.4276  1.6133
 9706TIP3    H253314   4.335   5.515  10.975 -0.7333 -1.4418  0.2115
 9707TIP3   OH253315   2.265   6.263   9.437  0.3420 -0.1972  0.2211
 9707TIP3    H153316   2.203   6.192   9.424 -0.4030  0.5255 -0.3150
 9707TIP3    H253317   2.308   6.273   9.352 -0.5308  0.8697 -0.1164
 9708TIP3   OH253318   2.112   4.120  10.119 -0.2471 -0.0547  0.5205
 9708TIP3    H153319   2.116   4.099  10.026  0.8773  2.5154 -0.1103
 9708TIP3    H253320   2.164   4.051  10.161  0.7675 -0.2704 -0.9809
 9709TIP3   OH253321   3.349   3.818  12.198 -0.2115  0.4750 -0.4636
 9709TIP3    H153322   3.342   3.726  12.175  1.6683  0.6800 -2.1429
 9709TIP3    H253323   3.381   3.818  12.288 -2.7310 -0.4250  0.5162
 9710TIP3   OH253324   3.304   4.923  12.049  0.5217  0.1108  0.0551
 9710TIP3    H153325   3.333   4.837  12.077  1.0917 -0.8530 -3.0402
 9710TIP3    H253326   3.263   4.908  11.963 -1.6251  2.6063  0.5003
 9711TIP3   OH253327   5.181   6.886  12.313 -0.1660  0.0594 -0.3346
 9711TIP3    H153328   5.243   6.832  12.363 -0.3034 -1.3633 -1.6305
 9711TIP3    H253329   5.138   6.940  12.378 -0.0316 -1.4228  1.0406
 9712TIP3   OH253330   5.175   3.554  10.205  1.0286 -0.1948  0.0919
 9712TIP3    H153331   5.131   3.628  10.164  2.9086  0.9487 -0.0209
 9712TIP3    H253332   5.128   3.477  10.174  0.2839  0.8326 -1.4595
 9713TIP3   OH253333   1.083   2.615  10.283  0.4843  0.2739 -0.0804
 9713TIP3    H153334   1.044   2.530  10.300 -0.0597  0.6437  0.5920
 9713TIP3    H253335   1.177   2.602  10.291  0.4127 -0.3145 -0.2208
 9714TIP3   OH253336   2.033   2.651  11.773  0.1488 -0.5828  0.6854
 9714TIP3    H153337   2.086   2.684  11.846  0.5179 -0.4901  0.3765
 9714TIP3    H253338   1.977   2.724  11.749  1.6469  0.1709 -0.6419
 9715TIP3   OH253339   1.346   4.030  11.068  0.2825 -0.3835 -0.4587
 9715TIP3    H153340   1.337   4.049  11.162  0.6826  0.0916 -0.5136
 9715TIP3    H253341   1.424   4.078  11.042  1.2428 -1.9713 -0.6352
 9716TIP3   OH253342   2.780   1.881  11.301 -0.9367  0.0356  0.4353
 9716TIP3    H153343   2.859   1.865  11.353 -1.5949 -1.5938  1.0046
 9716TIP3    H253344   2.810   1.935  11.228  0.2447  1.3795  1.8301
 9717TIP3   OH253345   4.520   1.552   9.837 -0.2597 -0.4678 -0.0088
 9717TIP3    H153346   4.517   1.457   9.823 -0.4432 -0.4722  0.0592
 9717TIP3    H253347   4.432   1.583   9.814  0.2314 -0.0981 -1.5633
 9718TIP3   OH253348   6.244   7.459  11.945  0.6987 -0.5385 -0.3509
 9718TIP3    H153349   6.265   7.543  11.986 -0.5359 -0.3946  0.0195
 9718TIP3    H253350   6.259   7.474  11.852  0.1744  0.2073 -0.3280
 9719TIP3   OH253351   0.032   2.562   9.936 -0.6187  0.0514 -0.0307
 9719TIP3    H153352   0.092   2.615   9.989 -0.3224  0.8171 -1.0989
 9719TIP3    H253353  -0.034   2.624   9.904 -0.7203 -0.3632 -0.6519
 9720TIP3   OH253354   5.697   0.748  12.138  0.3664 -0.8444 -0.0434
 9720TIP3    H153355   5.618   0.801  12.134  0.5681 -0.4896  0.5361
 9720TIP3    H253356   5.759   0.801  12.189  1.3124 -0.6832 -1.3123
 9721TIP3   OH253357   0.473   6.517   9.560 -0.1356  0.0291  0.7435
 9721TIP3    H153358   0.467   6.439   9.505 -0.2912  0.0549  0.7230
 9721TIP3    H253359   0.382   6.545   9.572 -0.0174  0.8865 -0.2150
 9722TIP3   OH253360   3.528   5.404  10.752 -0.0783  0.0019  0.1637
 9722TIP3    H153361   3.456   5.465  10.770 -1.0589 -1.0952  0.0205
 9722TIP3    H253362   3.567   5.387  10.837  0.1643  0.7618  0.2158
 9723TIP3   OH253363   4.253   4.100  12.006  0.5301  0.2076 -0.0326
 9723TIP3    H153364   4.249   4.167  12.074 -0.1872 -0.2132  0.3465
 9723TIP3    H253365   4.340   4.111  11.967  0.5700  1.1042  0.2778
 9724TIP3   OH253366   6.210   5.049  12.259 -0.2219  0.1616 -0.5444
 9724TIP3    H153367   6.297   5.041  12.298 -0.0482  2.1615 -0.4198
 9724TIP3    H253368   6.157   5.089  12.328 -1.7966 -2.7094  0.0575
 9725TIP3   OH253369   1.389   6.138  10.763 -0.0982  0.5739  0.5224
 9725TIP3    H153370   1.362   6.054  10.800  1.4398 -0.0892  0.2089
 9725TIP3    H253371   1.419   6.117  10.675 -0.7212  1.6456  0.0304
 9726TIP3   OH253372   7.463   6.896  10.079 -0.2429  0.6978  0.3295
 9726TIP3    H153373   7.521   6.868  10.150  0.5429  1.1506 -0.1208
 9726TIP3    H253374   7.376   6.863  10.104  0.5795 -2.0851 -0.1394
 9727TIP3   OH253375   1.485   6.834  13.110 -0.0734 -0.0702 -0.2828
 9727TIP3    H153376   1.401   6.828  13.064 -0.6018  0.7028  0.5513
 9727TIP3    H253377   1.539   6.890  13.055  0.4551 -1.7611 -1.5889
 9728TIP3   OH253378   3.031   2.453   9.783  0.5294 -0.2318  0.2482
 9728TIP3    H153379   3.076   2.374   9.755  0.1924  0.1580 -1.5277
 9728TIP3    H253380   2.944   2.446   9.743  0.1086  0.4964  1.0103
 9729TIP3   OH253381   1.923   2.785  10.200  0.2640 -0.7277 -0.3246
 9729TIP3    H153382   1.882   2.807  10.284 -0.2433 -0.7631 -0.5553
 9729TIP3    H253383   2.016   2.775  10.220 -0.0913 -2.5996  0.6214
 9730TIP3   OH253384   5.757   2.101   9.952 -0.0098  0.2299  0.3676
 9730TIP3    H153385   5.832   2.049   9.924 -0.2071  0.3219 -0.3414
 9730TIP3    H253386   5.715   2.129   9.871 -0.5025  0.6315  0.7526
 9731TIP3   OH253387   6.532   6.746  10.882  0.3228  0.2355 -0.1663
 9731TIP3    H153388   6.537   6.768  10.789 -0.1441 -1.7325 -0.7036
 9731TIP3    H253389   6.622   6.747  10.912  0.3754  2.2230 -0.2677
 9732TIP3   OH253390   5.053   6.438  11.361 -0.2820 -0.4112  0.0250
 9732TIP3    H153391   5.138   6.441  11.317 -0.4862 -0.6088 -0.3869
 9732TIP3    H253392   5.025   6.347  11.353 -1.9091  0.1834 -2.5230
 9733TIP3   OH253393   0.979   1.097  11.240  0.2219 -0.1194  0.0003
 9733TIP3    H153394   0.972   1.113  11.146 -0.3697  1.5472  0.2859
 9733TIP3    H253395   0.921   1.023  11.257 -0.1667 -0.0245 -0.8517
 9734TIP3   OH253396   5.977   3.688  10.300 -0.4049 -0.3569  0.1796
 9734TIP3    H153397   5.885   3.662  10.305 -0.8325  0.9063 -0.5125
 9734TIP3    H253398   6.026   3.611  10.329 -1.7117 -0.6659  1.7101
 9735TIP3   OH253399   6.212   0.253  11.573 -0.1401  0.1131  0.1681
 9735TIP3    H153400   6.197   0.165  11.609 -1.6324  0.8356  1.4050
 9735TIP3    H253401   6.181   0.313  11.641  2.6874  1.6952  0.2097
 9736TIP3   OH253402   3.433   3.995  12.003 -0.1185  0.1007 -0.2118
 9736TIP3    H153403   3.382   3.951  12.071  1.6752  0.5830  1.5326
 9736TIP3    H253404   3.502   3.932  11.981  0.0344  0.4334 -0.6952
 9737TIP3   OH253405   1.407   0.456  11.890  0.0782 -0.2488  0.4493
 9737TIP3    H153406   1.452   0.387  11.939  1.4656  0.4280  0.1765
 9737TIP3    H253407   1.441   0.449  11.801 -0.2147  0.4122  0.2781
 9738TIP3   OH253408   3.175   6.238  10.040  0.0277  0.4790 -0.2462
 9738TIP3    H153409   3.112   6.166  10.046  1.1555 -0.7289 -2.1029
 9738TIP3    H253410   3.245   6.214  10.101  0.0503  0.3972 -0.3055
 9739TIP3   OH253411   5.318   6.593  10.010 -0.1562  0.1065  0.2148
 9739TIP3    H153412   5.248   6.559   9.955  0.5515 -0.5679 -0.2868
 9739TIP3    H253413   5.391   6.608   9.950  0.3916  0.0327  0.8516
 9740TIP3   OH253414   7.205   5.141  11.032  0.0489  0.0348 -0.3081
 9740TIP3    H153415   7.276   5.110  10.975  0.0162 -0.7801  0.0843
 9740TIP3    H253416   7.186   5.068  11.090 -1.7909 -0.1364 -1.0378
 9741TIP3   OH253417   7.083   3.902   9.789  0.3730  0.0846 -0.2267
 9741TIP3    H153418   7.151   3.940   9.733 -0.4534  1.2591 -0.4720
 9741TIP3    H253419   7.118   3.910   9.878 -0.1968  2.4735 -0.1481
 9742TIP3   OH253420   2.323   1.478  12.578 -0.0104  0.1074 -0.8694
 9742TIP3    H153421   2.312   1.392  12.619  0.5528  0.1536 -0.6054
 9742TIP3    H253422   2.292   1.466  12.488 -1.4265  0.0477 -0.3979
 9743TIP3   OH253423   6.672   3.597  10.890  0.0518  0.3706 -0.1041
 9743TIP3    H153424   6.585   3.612  10.927 -0.0769 -1.1497  0.2564
 9743TIP3    H253425   6.657   3.537  10.816  1.0575 -2.4499  1.8290
 9744TIP3   OH253426   4.522   3.515  10.726 -0.1321 -0.1501  0.5540
 9744TIP3    H153427   4.484   3.476  10.805 -0.4029  1.2575  1.1438
 9744TIP3    H253428   4.472   3.475  10.654  0.1493 -1.4823  1.0642
 9745TIP3   OH253429   7.003   6.954  11.531 -0.2279 -0.2020 -0.2394
 9745TIP3    H153430   7.049   6.873  11.553 -1.5072 -1.2377 -1.1622
 9745TIP3    H253431   6.911   6.928  11.523 -0.5357  1.1220 -1.5556
 9746TIP3   OH253432   2.810   2.687  11.461 -1.1311 -0.2227 -0.1495
 9746TIP3    H153433   2.883   2.639  11.420  0.9914  2.1578  0.5980
 9746TIP3    H253434   2.774   2.740  11.390 -0.5004  0.4272  0.0064
 9747TIP3   OH253435   0.058   3.961  10.389 -0.1920 -0.6272  1.0360
 9747TIP3    H153436   0.008   4.036  10.358  0.4358 -0.5877  0.0832
 9747TIP3    H253437  -0.001   3.917  10.450 -1.2677 -0.3949  0.2076
 9748TIP3   OH253438   1.929   6.960  12.288 -0.5516  0.2375  0.1921
 9748TIP3    H153439   1.902   6.892  12.349  1.0695 -0.6218  0.0116
 9748TIP3    H253440   1.967   7.029  12.343  0.8046 -0.4870  0.2204
 9749TIP3   OH253441   1.057   5.847  10.335  0.0838  0.4462 -0.0083
 9749TIP3    H153442   0.990   5.880  10.275  0.6232 -0.6162 -1.2404
 9749TIP3    H253443   1.122   5.806  10.278  1.1571  0.3494  1.2510
 9750TIP3   OH253444   1.671   5.356  10.432 -0.0841 -0.1164  0.3072
 9750TIP3    H153445   1.740   5.319  10.486 -0.2055 -0.6996  0.0702
 9750TIP3    H253446   1.594   5.301  10.450 -0.1478 -0.2646 -0.3843
 9751TIP3   OH253447   6.428   1.239  10.616  0.1562 -0.1248 -0.3014
 9751TIP3    H153448   6.508   1.287  10.638  0.2179 -0.3553 -0.0252
 9751TIP3    H253449   6.399   1.201  10.699 -0.1846 -0.1251 -0.4200
 9752TIP3   OH253450   7.232   1.156   9.596  0.7618 -0.1362  0.0732
 9752TIP3    H153451   7.312   1.191   9.635  1.2397 -2.4337  1.3406
 9752TIP3    H253452   7.222   1.070   9.636 -1.4583 -0.5923 -1.3100
 9753TIP3   OH253453   6.537   4.394  11.861  0.1411  0.0424  0.5265
 9753TIP3    H153454   6.598   4.427  11.926 -0.2922  0.5509  0.6853
 9753TIP3    H253455   6.497   4.317  11.902  1.6014 -1.0830 -0.0860
 9754TIP3   OH253456   6.168   0.280   9.981  0.0897 -0.2093 -0.1804
 9754TIP3    H153457   6.159   0.241  10.068 -1.1069 -1.6400 -0.9066
 9754TIP3    H253458   6.226   0.221   9.934 -1.1380 -0.7764 -1.0549
 9755TIP3   OH253459   6.254   6.342  11.270  0.2048  0.5930  0.5324
 9755TIP3    H153460   6.314   6.281  11.314 -0.5991  1.3671  2.8770
 9755TIP3    H253461   6.302   6.425  11.267 -0.4048  1.0177  1.7227
 9756TIP3   OH253462   6.161   6.000  11.163 -0.2231 -0.0926  0.4348
 9756TIP3    H153463   6.109   5.919  11.165 -1.6488  0.7708 -0.2524
 9756TIP3    H253464   6.179   6.019  11.255  1.1106 -1.7500  0.5831
 9757TIP3   OH253465   4.905   7.110  10.553  0.2347  0.1651 -0.5221
 9757TIP3    H153466   4.916   7.042  10.620 -1.2822  0.6975  0.3281
 9757TIP3    H253467   4.955   7.078  10.478 -0.7187 -2.0738 -0.2878
 9758TIP3   OH253468   2.722   7.359   9.735 -0.5379  0.2499  0.6385
 9758TIP3    H153469   2.680   7.444   9.729  1.2014  1.0644 -1.9999
 9758TIP3    H253470   2.814   7.379   9.755 -0.4082 -1.1380  1.5863
 9759TIP3   OH253471   1.291   5.248  12.731 -0.1962  0.4503 -0.5562
 9759TIP3    H153472   1.366   5.298  12.764 -0.1248 -0.8537  1.4489
 9759TIP3    H253473   1.219   5.311  12.730  0.0710  0.8519  1.1685
 9760TIP3   OH253474   6.440   0.520   9.752 -0.1631  0.1573  0.2482
 9760TIP3    H153475   6.468   0.521   9.844  2.9066  0.5792 -0.5841
 9760TIP3    H253476   6.380   0.595   9.745 -1.2153 -0.4383  2.0637
 9761TIP3   OH253477   1.823   5.052   9.950 -0.6574 -0.0060  0.7381
 9761TIP3    H153478   1.910   5.016   9.935  0.2229  1.7218  1.4315
 9761TIP3    H253479   1.798   5.023  10.037  0.9972  2.6589  2.2400
 9762TIP3   OH253480   5.775   5.949  12.293 -0.1772  0.0597 -0.0300
 9762TIP3    H153481   5.729   6.021  12.250 -0.2000  0.2778  0.3597
 9762TIP3    H253482   5.840   5.991  12.349 -1.4131 -0.1399  1.6344
 9763TIP3   OH253483   4.437   7.135   9.608  0.5037  0.0594 -0.2534
 9763TIP3    H153484   4.347   7.101   9.610  0.8882 -1.0197  2.2155
 9763TIP3    H253485   4.427   7.229   9.623 -0.2320 -0.0028 -0.2835
 9764TIP3   OH253486   2.000   5.387  11.878 -0.2225  0.4099 -0.2304
 9764TIP3    H153487   1.997   5.480  11.857  0.5809  0.2000 -1.4164
 9764TIP3    H253488   2.002   5.343  11.792 -0.5912 -0.6918  0.3026
 9765TIP3   OH253489   0.244   3.176  11.942 -0.5386  0.7551 -0.7503
 9765TIP3    H153490   0.309   3.128  11.993  0.6837  1.6187 -1.4483
 9765TIP3    H253491   0.161   3.158  11.986 -0.1128 -1.8437 -0.8850
 9766TIP3   OH253492   3.420   2.789  11.951  0.3298  0.3276  0.8900
 9766TIP3    H153493   3.445   2.730  12.023 -0.1954 -2.2114 -0.8786
 9766TIP3    H253494   3.325   2.785  11.949  0.3713 -0.4784 -0.5612
 9767TIP3   OH253495   4.765   5.755  11.451 -0.6945  0.1746  0.1930
 9767TIP3    H153496   4.690   5.695  11.460 -1.5896  1.3888  1.0978
 9767TIP3    H253497   4.839   5.697  11.435 -1.9041 -1.0461 -1.4191
 9768TIP3   OH253498   4.970   3.501  10.588 -0.0233  0.4536  0.0676
 9768TIP3    H153499   5.006   3.426  10.541 -0.2305  0.0582  0.5289
 9768TIP3    H253500   5.045   3.560  10.600  0.3258 -0.0463  0.4068
 9769TIP3   OH253501   0.278   1.076  11.771 -0.6092 -0.6285 -0.0492
 9769TIP3    H153502   0.206   1.030  11.727 -0.1251  0.0734 -1.6668
 9769TIP3    H253503   0.282   1.161  11.726  0.1315  0.0102  1.1739
 9770TIP3   OH253504   6.674   2.794  11.617 -0.2437 -0.4826 -0.1614
 9770TIP3    H153505   6.613   2.819  11.548 -0.9558  0.7485  0.8730
 9770TIP3    H253506   6.631   2.720  11.660 -0.1832 -0.7265 -0.5170
 9771TIP3   OH253507   5.728   1.939  12.201  0.5462 -0.1759 -0.6283
 9771TIP3    H153508   5.657   1.904  12.148 -1.1248 -2.0181  2.4981
 9771TIP3    H253509   5.801   1.879  12.187 -0.0088 -0.8725 -0.5945
 9772TIP3   OH253510   6.360   7.028   9.977 -0.6106 -0.0979 -0.1916
 9772TIP3    H153511   6.402   7.102   9.934 -0.7104  0.7704  1.1698
 9772TIP3    H253512   6.432   6.973  10.008 -0.5213  0.1600  0.0542
 9773TIP3   OH253513   0.178   0.533  10.628 -0.2615 -0.2851  0.4925
 9773TIP3    H153514   0.132   0.562  10.550  0.5555 -0.3746 -0.0353
 9773TIP3    H253515   0.257   0.588  10.631 -0.4106 -0.0986  1.4020
 9774TIP3   OH253516   0.429   1.594  10.049 -0.1594  0.1069 -0.6083
 9774TIP3    H153517   0.436   1.532   9.976  2.4804  0.1743 -0.5167
 9774TIP3    H253518   0.468   1.675  10.015  0.2305  0.4217  0.5435
 9775TIP3   OH253519   3.793   1.026  11.119 -0.1709  0.6414 -0.1386
 9775TIP3    H153520   3.762   1.078  11.193  0.2578 -0.9404  1.2086
 9775TIP3    H253521   3.888   1.040  11.118  0.1270 -0.9955  1.0154
 9776TIP3   OH253522   7.235   7.157  11.868 -0.0057  0.0696 -0.2178
 9776TIP3    H153523   7.318   7.139  11.913 -0.3561  0.0653  0.4383
 9776TIP3    H253524   7.178   7.192  11.936 -1.0366 -1.3185 -0.3257
 9777TIP3   OH253525   6.350   2.942  11.544 -0.1883 -0.3519 -0.7560
 9777TIP3    H153526   6.399   2.908  11.469  0.2325 -2.4292  0.3816
 9777TIP3    H253527   6.349   2.869  11.607 -1.4980  0.9331  0.7963
 9778TIP3   OH253528   1.573   5.445   9.358  0.4885 -0.0186 -0.0986
 9778TIP3    H153529   1.611   5.361   9.332 -0.0212 -0.2706 -0.0402
 9778TIP3    H253530   1.481   5.426   9.374  0.8965 -0.0322  2.6206
 9779TIP3   OH253531   0.876   4.884  10.387 -0.2722 -0.5055 -0.2944
 9779TIP3    H153532   0.833   4.931  10.316 -1.2011 -0.2043  0.4478
 9779TIP3    H253533   0.962   4.860  10.351  0.7201  2.6892 -0.3667
 9780TIP3   OH253534   6.251   7.185  11.946 -0.1204  0.3539 -0.3677
 9780TIP3    H153535   6.223   7.276  11.956  1.1432  0.6796  0.3401
 9780TIP3    H253536   6.171   7.139  11.918 -1.0822  1.4388  0.4896
 9781TIP3   OH253537   6.236   5.606   9.958  0.7125 -0.2489  0.5508
 9781TIP3    H153538   6.144   5.624   9.975  0.1596 -0.7938 -1.6510
 9781TIP3    H253539   6.279   5.623  10.042 -1.4393 -0.4797  1.7681
 9782TIP3   OH253540   1.911   3.633  11.478  0.1344 -0.0326  0.1532
 9782TIP3    H153541   1.835   3.618  11.535 -1.8922 -0.6243 -2.4640
 9782TIP3    H253542   1.984   3.593  11.525 -1.5844 -1.3727  1.8851
 9783TIP3   OH253543   2.653   4.914   9.990  0.3486  0.0240  0.4504
 9783TIP3    H153544   2.607   4.840  10.031  0.5085  0.1971  0.9442
 9783TIP3    H253545   2.689   4.964  10.063 -0.0757  0.8049  0.1323
 9784TIP3   OH253546   2.107   7.381   9.913 -0.0809  0.0122 -0.2985
 9784TIP3    H153547   2.165   7.425   9.851  0.4894  0.2160  0.3559
 9784TIP3    H253548   2.078   7.450   9.972  1.4600 -0.5618  1.2313
 9785TIP3   OH253549   2.216   5.894  11.856  0.2535  1.0881 -0.3309
 9785TIP3    H153550   2.297   5.849  11.878 -0.6340 -0.6615 -0.5041
 9785TIP3    H253551   2.184   5.927  11.940  0.6392  0.9188 -0.1153
 9786TIP3   OH253552   7.301   3.402  11.301 -0.5932  0.2765 -0.8365
 9786TIP3    H153553   7.298   3.373  11.210 -2.0909 -0.2557 -0.6449
 9786TIP3    H253554   7.210   3.403  11.329 -0.1906  0.7973  0.5586
 9787TIP3   OH253555   2.057   0.542  12.041  0.0329 -0.1813  0.7361
 9787TIP3    H153556   1.974   0.520  12.084  0.1301 -1.0352  0.5111
 9787TIP3    H253557   2.121   0.548  12.111 -0.4215  1.6429  1.0480
 9788TIP3   OH253558   7.215   2.875  11.314  0.2195  0.0414 -0.1655
 9788TIP3    H153559   7.200   2.921  11.231 -1.5655  0.1418  0.1705
 9788TIP3    H253560   7.148   2.807  11.316  1.0426 -0.7722  0.6390
 9789TIP3   OH253561   6.083   1.987  11.572 -0.0755 -0.2270  0.0171
 9789TIP3    H153562   6.113   2.049  11.639  1.6879 -1.2463  0.2315
 9789TIP3    H253563   6.072   1.904  11.619  0.4406 -0.7690 -0.7878
 9790TIP3   OH253564   2.525   2.414  10.365 -0.0083 -0.2089  0.0067
 9790TIP3    H153565   2.468   2.424  10.289 -2.6346 -2.1175  1.5413
 9790TIP3    H253566   2.584   2.342  10.341  0.0309  0.0430 -0.6718
 9791TIP3   OH253567   1.202   6.727  10.132  0.2117 -0.1209  1.0110
 9791TIP3    H153568   1.190   6.813  10.171 -1.9500 -0.7136  1.8090
 9791TIP3    H253569   1.292   6.703  10.154  1.8126  2.8984 -1.4022
 9792TIP3   OH253570   7.449   5.426   9.812 -0.4313 -0.7598  0.2891
 9792TIP3    H153571   7.472   5.484   9.740 -0.1865  0.6473  1.4585
 9792TIP3    H253572   7.530   5.415   9.861 -0.8883 -0.6055  1.0951
 9793TIP3   OH253573   5.456   1.159   9.928 -0.0718 -0.6724 -0.3080
 9793TIP3    H153574   5.444   1.206   9.846  1.1079 -2.1811 -1.4088
 9793TIP3    H253575   5.396   1.084   9.923 -1.4070  0.2407  1.0998
 9794TIP3   OH253576   0.242   6.742  10.601  0.6128  0.3128 -0.1094
 9794TIP3    H153577   0.264   6.733  10.694 -1.1923 -1.9040  0.1818
 9794TIP3    H253578   0.216   6.654  10.574 -0.5690  1.2521 -2.2688
 9795TIP3   OH253579   0.085   2.727  11.058 -0.4098 -0.0070 -0.1050
 9795TIP3    H153580   0.153   2.665  11.085  0.9231  0.8651 -1.2841
 9795TIP3    H253581   0.055   2.766  11.140  0.5136 -0.4323  0.4548
 9796TIP3   OH253582   2.379   3.247  11.125  0.0196 -0.2238  0.7210
 9796TIP3    H153583   2.463   3.215  11.157 -1.7302 -3.0304  3.0075
 9796TIP3    H253584   2.329   3.168  11.103 -1.3320  1.3964 -2.7952
 9797TIP3   OH253585   5.031   0.134  10.929  0.4744  0.2737  0.0570
 9797TIP3    H153586   4.940   0.107  10.914  0.3453  1.3694 -1.3082
 9797TIP3    H253587   5.074   0.055  10.963  0.1024 -1.7750 -3.7209
 9798TIP3   OH253588   1.461   1.266  11.038 -0.2212 -0.1284  0.7508
 9798TIP3    H153589   1.397   1.271  11.109  1.5612 -1.2450  2.5491
 9798TIP3    H253590   1.513   1.188  11.059  1.5501  0.5848 -0.7759
 9799TIP3   OH253591   5.722   0.085  11.901  0.2618  0.0141 -0.5429
 9799TIP3    H153592   5.804   0.037  11.905  0.5729  0.5862  0.1642
 9799TIP3    H253593   5.686   0.079  11.989  0.4343  1.2712 -0.3589
 9800TIP3   OH253594   3.008   6.926  12.683  0.2103 -0.1322  0.4940
 9800TIP3    H153595   2.918   6.938  12.713 -0.3892 -0.8369 -0.9484
 9800TIP3    H253596   3.020   6.831  12.680  0.1521 -0.1207 -1.6493
 9801TIP3   OH253597   0.961   3.371  10.040  0.3557  0.3261 -0.1571
 9801TIP3    H153598   0.938   3.441  10.101  1.0927  1.6927 -1.3916
 9801TIP3    H253599   0.995   3.301  10.096  0.0004  1.1121  1.0823
 9802TIP3   OH253600   2.317   7.038  11.847  0.4787 -0.8508 -0.3914
 9802TIP3    H153601   2.282   6.989  11.922 -0.4805 -0.0833 -0.3252
 9802TIP3    H253602   2.284   6.991  11.771 -1.7324  0.5243 -0.3424
 9803TIP3   OH253603   2.817   0.393  10.013  0.1414 -0.3247  0.2726
 9803TIP3    H153604   2.787   0.461   9.953  0.4546 -0.2604  0.1883
 9803TIP3    H253605   2.906   0.373   9.985  0.7215  0.5326  1.4238
 9804TIP3   OH253606   4.324   5.512  10.341  0.0323  0.2648  0.1696
 9804TIP3    H153607   4.399   5.572  10.338 -0.6641  1.3099  1.7407
 9804TIP3    H253608   4.258   5.554  10.285  0.1118  0.0935 -0.0547
 9805TIP3   OH253609   3.962   3.264  11.555  0.7333 -0.4633 -0.1853
 9805TIP3    H153610   4.016   3.324  11.606  0.0740  1.1231 -1.2709
 9805TIP3    H253611   3.886   3.246  11.612  0.4791  0.5019 -0.2132
 9806TIP3   OH253612   2.932   7.107  10.404 -0.2859 -0.4460  0.4301
 9806TIP3    H153613   2.917   7.101  10.309  1.8277 -0.8119  0.0608
 9806TIP3    H253614   2.952   7.199  10.419 -2.0476 -0.0874  0.8115
 9807TIP3   OH253615   4.273   6.903  12.334 -0.3712  0.5489  0.4044
 9807TIP3    H153616   4.244   6.860  12.253  1.8309  1.3231 -0.8776
 9807TIP3    H253617   4.236   6.991  12.329  0.0171  0.6935  0.0907
 9808TIP3   OH253618   2.753   6.851  12.230  0.1061  0.0724  0.0483
 9808TIP3    H153619   2.692   6.907  12.182 -2.4351 -1.1979  1.6115
 9808TIP3    H253620   2.766   6.895  12.313  0.2662 -0.3054  0.2273
 9809TIP3   OH253621   3.138   6.874  10.719  0.2527  0.0917  0.3883
 9809TIP3    H153622   3.054   6.835  10.741  1.1404 -1.4236  1.2579
 9809TIP3    H253623   3.200   6.834  10.780  1.4152  2.1328  0.6469
 9810TIP3   OH253624   7.154   3.405  11.690  0.1890 -0.0195 -0.5155
 9810TIP3    H153625   7.084   3.417  11.754  0.7061  0.2533 -0.0030
 9810TIP3    H253626   7.118   3.442  11.609 -0.5185 -0.4969 -0.4287
 9811TIP3   OH253627   6.302   7.293  10.102 -0.0959  0.4690 -0.4029
 9811TIP3    H153628   6.317   7.199  10.100  0.1560  0.4367  1.3716
 9811TIP3    H253629   6.389   7.331  10.097 -0.1483  0.5840 -0.4426
 9812TIP3   OH253630   3.113   0.306  10.786  0.5911 -0.1005  0.1569
 9812TIP3    H153631   3.199   0.305  10.827  0.8944  1.5230 -0.3758
 9812TIP3    H253632   3.076   0.391  10.809 -0.0743  0.0067 -1.2001
 9813TIP3   OH253633   6.264   5.664  11.459  0.3731  0.2527 -0.4107
 9813TIP3    H153634   6.344   5.614  11.439  0.5124  0.4465 -0.3396
 9813TIP3    H253635   6.193   5.605  11.435  0.5298 -0.5367  1.0031
 9814TIP3   OH253636   6.758   3.105  11.370 -0.7993 -0.7035  0.3072
 9814TIP3    H153637   6.799   3.078  11.288 -1.8781 -0.3563 -0.3611
 9814TIP3    H253638   6.792   3.043  11.435  0.2630 -0.8315 -0.3339
 9815TIP3   OH253639   5.064   2.716  10.472 -0.0469  0.2102 -0.3052
 9815TIP3    H153640   4.974   2.684  10.465  1.2225 -4.0320  0.3097
 9815TIP3    H253641   5.079   2.725  10.566  0.7693 -1.2222 -0.2785
 9816TIP3   OH253642   3.421   7.047  12.148 -0.8111  0.9281 -0.2575
 9816TIP3    H153643   3.439   7.076  12.058 -1.0615  2.0451  0.0366
 9816TIP3    H253644   3.424   7.127  12.200  1.3275  0.0785  1.0695
 9817TIP3   OH253645   2.266   0.847   9.882  0.2389 -0.3175 -0.3662
 9817TIP3    H153646   2.343   0.860   9.937 -0.1678  1.5501 -0.1643
 9817TIP3    H253647   2.194   0.884   9.933 -0.6762 -1.3007 -0.8937
 9818TIP3   OH253648   1.452   5.874   9.917  0.7272  0.0002  0.1445
 9818TIP3    H153649   1.470   5.892   9.825  1.6220  1.2046  0.5309
 9818TIP3    H253650   1.530   5.826   9.948  0.0460 -1.1883  0.0783
 9819TIP3   OH253651   0.149   1.664  10.095 -0.4725  0.1545  0.5177
 9819TIP3    H153652   0.240   1.634  10.096 -0.1694  0.9634 -0.6929
 9819TIP3    H253653   0.117   1.643  10.007 -1.0946  0.9203  0.5464
 9820TIP3   OH253654   1.766   2.841  10.453 -0.0733 -0.3062 -0.3790
 9820TIP3    H153655   1.839   2.870  10.508 -0.4139  0.6027 -0.4028
 9820TIP3    H253656   1.724   2.921  10.423 -0.1467 -0.7904 -1.6430
 9821TIP3   OH253657   2.308   0.265  10.770 -0.3394 -0.4871 -0.0261
 9821TIP3    H153658   2.348   0.184  10.740 -0.9059 -0.0505 -2.1099
 9821TIP3    H253659   2.383   0.322  10.792  0.1703 -0.4461 -1.7431
 9822TIP3   OH253660   3.081   0.719  11.795 -0.5336 -0.1322  0.0665
 9822TIP3    H153661   3.005   0.723  11.852  0.0062  1.4518  0.7291
 9822TIP3    H253662   3.045   0.716  11.706 -1.4580  3.1475  0.2039
 9823TIP3   OH253663   5.298   0.492  11.893  0.6662 -0.5518  0.3535
 9823TIP3    H153664   5.227   0.532  11.943  0.5546 -0.9038  0.4840
 9823TIP3    H253665   5.352   0.450  11.960  0.1807 -1.5485  0.1417
 9824TIP3   OH253666   1.731   4.675  10.817  0.0835 -0.0045 -0.3951
 9824TIP3    H153667   1.669   4.730  10.866  0.2295 -0.4595  0.3127
 9824TIP3    H253668   1.692   4.588  10.819  1.2738 -0.5623  1.0742
 9825TIP3   OH253669   0.788   3.827  10.934 -0.4743 -0.1997  0.0808
 9825TIP3    H153670   0.711   3.875  10.906 -0.7219 -0.4803  0.2738
 9825TIP3    H253671   0.845   3.825  10.857 -0.3865  0.5430  0.1247
 9826TIP3   OH253672   4.901   5.184  10.394  0.2687  0.2141  0.0770
 9826TIP3    H153673   4.974   5.162  10.335  1.5188 -3.2648  2.5964
 9826TIP3    H253674   4.826   5.138  10.358  0.2429  0.6769 -0.4707
 9827TIP3   OH253675   2.869   7.039  11.943 -0.4631 -0.7017  0.1708
 9827TIP3    H153676   2.899   7.024  11.853 -0.7013 -0.5624  0.0645
 9827TIP3    H253677   2.882   6.956  11.987  0.0232 -0.6558  0.1121
 9828TIP3   OH253678   0.311   3.269  11.294 -0.3029 -0.0324  0.7021
 9828TIP3    H153679   0.265   3.213  11.357  0.4204 -1.6461 -0.1465
 9828TIP3    H253680   0.389   3.298  11.341 -2.0945  2.8453  2.2051
 9829TIP3   OH253681   0.559   6.358  12.569  0.3464 -0.5138  0.2751
 9829TIP3    H153682   0.564   6.264  12.581 -0.7346 -0.6192  0.0152
 9829TIP3    H253683   0.477   6.384  12.611  1.0149  0.4286  1.0415
 9830TIP3   OH253684   3.723   6.927  11.096 -0.4822 -0.3733 -0.0957
 9830TIP3    H153685   3.789   6.877  11.047  0.1977 -0.6883  1.1167
 9830TIP3    H253686   3.744   6.912  11.188 -0.8106  1.4324  0.3139
 9831TIP3   OH253687   6.449   6.185  11.042 -0.0883 -0.2792  0.8286
 9831TIP3    H153688   6.509   6.260  11.038  0.5827 -0.8620 -0.8837
 9831TIP3    H253689   6.504   6.112  11.070 -0.9649  0.0032  3.6179
 9832TIP3   OH253690   7.421   4.822  11.426  0.5358 -0.1863  0.1387
 9832TIP3    H153691   7.507   4.859  11.403  2.0815 -1.7057  2.8981
 9832TIP3    H253692   7.420   4.736  11.384  1.1256 -0.8287  1.3781
 9833TIP3   OH253693   2.137   2.258  11.883 -0.4404 -0.2303  0.6943
 9833TIP3    H153694   2.162   2.306  11.804  0.1320 -0.9604  0.4166
 9833TIP3    H253695   2.146   2.321  11.954  0.8855 -0.0762  0.4135
 9834TIP3   OH253696   3.589   5.525  11.384  0.5714 -0.5233 -0.4770
 9834TIP3    H153697   3.647   5.468  11.435  0.2957 -0.8905 -0.5740
 9834TIP3    H253698   3.516   5.469  11.359 -0.1729  0.1086  0.2122
 9835TIP3   OH253699   5.710   6.611  10.857  0.0105  0.5854 -0.0141
 9835TIP3    H153700   5.619   6.595  10.885  0.2856  0.8383  1.0897
 9835TIP3    H253701   5.708   6.600  10.762 -1.4747  2.0061 -0.2008
 9836TIP3   OH253702   3.466   0.124  10.774 -0.4079  0.0295 -0.2625
 9836TIP3    H153703   3.559   0.146  10.759 -0.7277  0.9898 -0.9373
 9836TIP3    H253704   3.433   0.196  10.828 -0.8596 -0.0993 -0.3635
 9837TIP3   OH253705   3.029   6.302  12.148  0.0588 -0.4799 -0.1935
 9837TIP3    H153706   2.965   6.339  12.209 -0.7305 -0.3267 -1.0747
 9837TIP3    H253707   3.090   6.254  12.203  0.6670  1.4549  0.9349
 9838TIP3   OH253708   6.430   2.132  11.756  0.2297 -0.1200  0.2049
 9838TIP3    H153709   6.491   2.061  11.737  1.9831  1.0911  1.0465
 9838TIP3    H253710   6.404   2.166  11.670 -1.2642 -2.1992 -0.2548
 9839TIP3   OH253711   2.685   3.340  12.342 -0.6963  0.3317  0.1065
 9839TIP3    H153712   2.715   3.279  12.409 -0.6252  0.1990 -0.0469
 9839TIP3    H253713   2.751   3.409  12.341  0.0001 -0.3275 -0.7415
 9840TIP3   OH253714   5.744   6.106  10.926 -0.0361 -0.3096  0.3064
 9840TIP3    H153715   5.694   6.029  10.953 -1.0465 -0.2074 -1.1354
 9840TIP3    H253716   5.769   6.088  10.835  0.4685  0.6757  0.2352
 9841TIP3   OH253717   0.702   5.444  11.348  0.1476 -0.1629  0.4471
 9841TIP3    H153718   0.732   5.506  11.282  0.0653 -0.1646  0.4079
 9841TIP3    H253719   0.780   5.425  11.400  0.6373 -1.4694 -0.6793
 9842TIP3   OH253720   0.908   3.647  12.711  0.0032 -0.5913  0.6458
 9842TIP3    H153721   0.965   3.572  12.730  0.0439 -0.3207  1.6418
 9842TIP3    H253722   0.913   3.701  12.789 -0.4895  0.1656  0.1625
 9843TIP3   OH253723   2.517   6.873  10.230 -0.4727 -0.0965  0.1971
 9843TIP3    H153724   2.446   6.897  10.289  0.7421  0.8469  1.3289
 9843TIP3    H253725   2.476   6.867  10.144 -2.3483 -1.7739  1.1241
 9844TIP3   OH253726   5.102   4.231  12.100 -0.2558  0.2224 -0.4332
 9844TIP3    H153727   5.050   4.310  12.112 -0.5558  0.1214 -1.0345
 9844TIP3    H253728   5.055   4.164  12.149 -0.6233  0.1612 -0.8677
 9845TIP3   OH253729   2.001   1.410  10.028 -1.0204  0.3500 -0.3047
 9845TIP3    H153730   1.929   1.352  10.055 -0.3624 -0.8038 -0.9142
 9845TIP3    H253731   2.036   1.368   9.950 -0.1893  1.3325 -0.4698
 9846TIP3   OH253732   6.475   2.456  12.406 -0.0132  0.4686  0.4043
 9846TIP3    H153733   6.516   2.540  12.426  0.5466 -0.0533  1.4815
 9846TIP3    H253734   6.424   2.434  12.484  0.6483 -0.6773  0.5302
 9847TIP3   OH253735   5.957   3.695  11.454 -0.4408 -0.6116 -0.5704
 9847TIP3    H153736   6.052   3.692  11.441 -0.5129 -0.7904 -1.0875
 9847TIP3    H253737   5.944   3.655  11.540 -0.2371 -2.9120 -1.5417
 9848TIP3   OH253738   3.692   7.472  11.568 -0.3846  0.1186 -0.3888
 9848TIP3    H153739   3.644   7.492  11.488 -0.9710  0.1598 -0.0327
 9848TIP3    H253740   3.751   7.401  11.544 -3.0610 -2.4063  0.0003
 9849TIP3   OH253741   1.447   1.696  10.436 -0.8202  0.4890 -0.2255
 9849TIP3    H153742   1.386   1.746  10.490  1.4697  2.3403  0.8376
 9849TIP3    H253743   1.444   1.740  10.351  0.1085  1.5882  0.2805
 9850TIP3   OH253744   3.114   6.644  11.470  0.1261 -0.4076 -0.2140
 9850TIP3    H153745   3.153   6.698  11.539  0.4757 -0.2107 -0.5622
 9850TIP3    H253746   3.185   6.628  11.408  0.4734 -2.6235  0.6612
 9851TIP3   OH253747   1.062   6.323  12.222  0.1967 -0.1785  0.9468
 9851TIP3    H153748   1.060   6.398  12.282  2.9326 -0.8202  2.0148
 9851TIP3    H253749   1.058   6.246  12.279 -1.6363 -0.8832 -0.0683
 9852TIP3   OH253750   2.285   6.138  10.174 -0.4334  0.1207  0.0398
 9852TIP3    H153751   2.213   6.160  10.234  0.0932  1.3640  0.2481
 9852TIP3    H253752   2.361   6.184  10.210  0.1635 -0.0855 -0.9221
 9853TIP3   OH253753   3.346   6.152  10.241 -0.0659 -0.1603  0.0075
 9853TIP3    H153754   3.354   6.221  10.307  1.3245 -0.6153  0.3465
 9853TIP3    H253755   3.382   6.074  10.283  1.6012 -0.2744 -1.5386
 9854TIP3   OH253756   0.889   2.070   9.994 -0.1635  0.0344  0.4591
 9854TIP3    H153757   0.841   2.047   9.915  2.3527  0.3799 -1.3114
 9854TIP3    H253758   0.849   2.151  10.024 -1.0921 -0.0326 -0.5576
 9855TIP3   OH253759   7.200   5.799  10.902  0.4620 -0.2518 -0.6867
 9855TIP3    H153760   7.214   5.745  10.980 -0.4539  1.1156  0.4576
 9855TIP3    H253761   7.116   5.770  10.868 -0.2953  0.7932  0.2461
 9856TIP3   OH253762   5.640   6.319  10.714 -0.2197  0.1379  0.4162
 9856TIP3    H153763   5.664   6.395  10.661  2.8759 -0.3930  0.9192
 9856TIP3    H253764   5.612   6.253  10.650  1.1645  0.3146 -0.4150
 9857TIP3   OH253765   6.331   6.272  10.234  0.0781 -0.1270  0.3622
 9857TIP3    H153766   6.373   6.275  10.148 -0.1609  1.8790  0.2538
 9857TIP3    H253767   6.405   6.266  10.295  0.3644  0.2520  0.0652
 9858TIP3   OH253768   7.034   6.895  11.860 -0.0816 -0.3827  0.0419
 9858TIP3    H153769   7.042   6.972  11.916  0.2436 -0.7915  0.5725
 9858TIP3    H253770   6.962   6.915  11.800 -0.7966 -0.1511  0.9551
 9859TIP3   OH253771   3.540   0.647  10.495 -0.3573  0.0766  0.4416
 9859TIP3    H153772   3.616   0.701  10.471 -0.7772  0.6152  0.3251
 9859TIP3    H253773   3.496   0.631  10.412 -2.2396  2.5646  0.8675
 9860TIP3   OH253774   6.879   7.453  11.237 -0.0734 -0.1607  0.1930
 9860TIP3    H153775   6.904   7.532  11.284  2.3739  1.1035 -2.8649
 9860TIP3    H253776   6.931   7.383  11.278 -0.2442  0.3017  1.2242
 9861TIP3   OH253777   6.526   5.846   9.572 -0.3546 -0.3546 -0.4328
 9861TIP3    H153778   6.608   5.870   9.528  0.7843 -0.9836  1.2361
 9861TIP3    H253779   6.458   5.892   9.523  1.1092  1.1014 -1.2052
 9862TIP3   OH253780   5.888   4.206   9.802  0.6918 -0.0884 -0.2663
 9862TIP3    H153781   5.979   4.231   9.815  0.4351  0.8893 -0.3362
 9862TIP3    H253782   5.837   4.273   9.847 -0.0531  0.3606 -1.7307
 9863TIP3   OH253783   3.940   1.270  11.366 -0.2364 -0.7505  0.1960
 9863TIP3    H153784   3.946   1.175  11.368  0.4553 -0.7119  0.3647
 9863TIP3    H253785   3.932   1.296  11.458 -0.7653 -0.6596  0.1287
 9864TIP3   OH253786   0.294   2.910  10.272  0.4530  0.0439 -0.2839
 9864TIP3    H153787   0.304   2.995  10.228  2.7193  0.0333  0.0512
 9864TIP3    H253788   0.337   2.848  10.213  2.3273 -0.1918  1.2369
 9865TIP3   OH253789   0.971   5.471   9.438  0.6114  0.4578 -0.3561
 9865TIP3    H153790   1.014   5.396   9.395 -3.7448 -1.9486 -1.1048
 9865TIP3    H253791   1.013   5.477   9.524 -0.9824 -5.4281  1.2995
 9866TIP3   OH253792   2.404   2.747  10.657  0.2250  0.5165  0.3152
 9866TIP3    H153793   2.315   2.775  10.636  0.7269  1.7671 -0.2776
 9866TIP3    H253794   2.460   2.804  10.603  1.3401 -1.2182 -0.4463
 9867TIP3   OH253795   5.194   2.433   9.619 -0.4462  0.5717 -0.0178
 9867TIP3    H153796   5.120   2.414   9.677 -0.7065  1.0579 -0.1803
 9867TIP3    H253797   5.190   2.528   9.606  0.1021  0.5775 -0.1731
 9868TIP3   OH253798   4.969   0.165  10.256  0.3342  0.4663 -0.3725
 9868TIP3    H153799   4.933   0.204  10.335 -2.0555  0.2359 -1.2494
 9868TIP3    H253800   4.897   0.112  10.221  1.4331  0.2662 -2.4814
 9869TIP3   OH253801   6.234   2.775  11.128 -0.4156 -0.5219 -0.0815
 9869TIP3    H153802   6.223   2.719  11.051  0.0925  0.9731 -1.2886
 9869TIP3    H253803   6.145   2.791  11.160 -0.6709 -0.6545 -0.7274
 9870TIP3   OH253804   0.919   5.198  11.009 -0.1131  0.0564  0.1740
 9870TIP3    H153805   0.938   5.168  10.920 -3.1188  1.9651 -1.2707
 9870TIP3    H253806   0.867   5.128  11.047 -0.6190  0.1220 -0.3771
 9871TIP3   OH253807   1.348   0.503  11.126  0.3058  0.0309  0.1641
 9871TIP3    H153808   1.278   0.457  11.172 -0.0009  1.2158  0.9022
 9871TIP3    H253809   1.367   0.447  11.050 -0.5148 -0.9639  0.6673
 9872TIP3   OH253810   4.726   3.644  11.973  0.9028  0.2800 -0.8232
 9872TIP3    H153811   4.673   3.722  11.955  2.0286  1.5558  1.0633
 9872TIP3    H253812   4.816   3.676  11.969  1.4032 -1.0206 -0.3051
 9873TIP3   OH253813   0.954   2.177  11.017 -0.5058 -0.2680 -0.8049
 9873TIP3    H153814   1.035   2.133  11.041 -0.2503  0.9992  0.8495
 9873TIP3    H253815   0.885   2.127  11.061 -0.2046  0.9718  1.1903
 9874TIP3   OH253816   3.668   7.158  10.433 -0.0990  0.2518  0.0977
 9874TIP3    H153817   3.662   7.158  10.337 -0.0559 -1.1237  0.0642
 9874TIP3    H253818   3.579   7.177  10.462 -0.2867 -0.1084 -0.2297
 9875TIP3   OH253819   3.351   1.725  11.666  0.0671  0.5265  0.6813
 9875TIP3    H153820   3.411   1.730  11.592  0.1433 -0.9060  0.6044
 9875TIP3    H253821   3.406   1.734  11.743  0.4380 -0.9061  0.6136
 9876TIP3   OH253822   6.892   5.073   9.763 -0.4107 -0.1705 -0.4567
 9876TIP3    H153823   6.799   5.080   9.787 -0.6052 -1.0418 -0.9470
 9876TIP3    H253824   6.901   5.131   9.688 -0.3465  0.6206  0.1419
 9877TIP3   OH253825   1.018   1.824   9.949 -0.3638  0.4587  0.5213
 9877TIP3    H153826   0.937   1.856   9.988  1.0092  0.9191  3.2826
 9877TIP3    H253827   1.066   1.903   9.925 -0.8686  0.1854 -1.5520
 9878TIP3   OH253828   2.636   0.211  10.036  0.0994  0.4283  0.1613
 9878TIP3    H153829   2.685   0.139  10.076  0.1017 -0.5227 -1.4528
 9878TIP3    H253830   2.694   0.287  10.042  0.4945  0.0750  1.0087
 9879TIP3   OH253831   2.653   4.450  11.094 -0.4072 -0.7021 -0.5674
 9879TIP3    H153832   2.633   4.531  11.142  2.2765 -0.4666  0.3333
 9879TIP3    H253833   2.656   4.477  11.002 -1.8013 -0.3045 -0.5132
 9880TIP3   OH253834   2.669   1.728  11.058 -0.2215 -0.3231  0.6901
 9880TIP3    H153835   2.746   1.672  11.056 -0.2591 -0.3837  0.8812
 9880TIP3    H253836   2.630   1.720  10.971  0.1285 -0.0951  0.5079
 9881TIP3   OH253837   0.815   4.986  10.105  0.1437 -0.1587  0.5291
 9881TIP3    H153838   0.758   4.909  10.106  0.9572 -0.7936 -0.2387
 9881TIP3    H253839   0.764   5.052  10.058 -1.0382  0.1835  2.2247
 9882TIP3   OH253840   7.367   0.497  11.474  0.1322  0.1933 -0.3578
 9882TIP3    H153841   7.444   0.515  11.420  0.9208 -1.9683 -0.0383
 9882TIP3    H253842   7.302   0.464  11.412  0.5381 -0.9081 -0.2065
 9883TIP3   OH253843   6.166   3.805  11.920  0.5455  0.3153  0.2133
 9883TIP3    H153844   6.117   3.844  11.993  1.4531  0.7173  0.6278
 9883TIP3    H253845   6.210   3.729  11.959 -1.4212 -1.3666 -0.6430
 9884TIP3   OH253846   7.188   5.527  12.125 -0.2928 -0.1380 -0.2468
 9884TIP3    H153847   7.116   5.569  12.173 -1.3084  0.7949 -2.4404
 9884TIP3    H253848   7.266   5.577  12.149 -0.6362 -0.1301  0.9141
 9885TIP3   OH253849   4.239   6.279  11.857  0.0044  0.1368  0.0560
 9885TIP3    H153850   4.318   6.243  11.818 -0.1587 -0.1530 -0.0059
 9885TIP3    H253851   4.171   6.264  11.791 -0.5106 -1.3525  0.8984
 9886TIP3   OH253852   2.977   5.344  10.958  0.0176 -0.2039  0.3727
 9886TIP3    H153853   2.960   5.353  11.052  0.4048 -0.3455  0.4602
 9886TIP3    H253854   2.949   5.255  10.937  2.1582 -1.0759  0.8795
 9887TIP3   OH253855   0.205   1.092  11.155  0.1261  0.2540 -0.0859
 9887TIP3    H153856   0.191   1.187  11.151  0.2466  0.3028  0.5305
 9887TIP3    H253857   0.215   1.074  11.249 -1.3511 -0.5722 -0.0516
 9888TIP3   OH253858   7.210   6.138   9.743  0.0876 -0.1499 -0.2831
 9888TIP3    H153859   7.209   6.052   9.699 -0.0548 -0.6578  0.6795
 9888TIP3    H253860   7.288   6.136   9.797 -1.0946 -0.6171  1.5106
 9889TIP3   OH253861   3.249   4.413  11.555  0.0895  0.1167 -0.1502
 9889TIP3    H153862   3.341   4.409  11.529 -0.1246  0.5001 -0.9911
 9889TIP3    H253863   3.204   4.358  11.492 -0.0976 -1.2268  1.0976
 9890TIP3   OH253864   2.932   4.134  11.170  0.4195 -0.3000  0.3425
 9890TIP3    H153865   2.925   4.050  11.216 -1.0179 -0.1234  0.4825
 9890TIP3    H253866   2.919   4.111  11.078 -1.3384 -0.0906  0.5100
 9891TIP3   OH253867   5.147   6.701  11.038 -0.0479  0.0528  0.4026
 9891TIP3    H153868   5.067   6.653  11.016  0.1295 -0.4813  0.9036
 9891TIP3    H253869   5.128   6.743  11.122 -0.3466  1.2153 -0.2241
 9892TIP3   OH253870   1.144   4.554  10.193 -0.0182  0.3129 -0.1029
 9892TIP3    H153871   1.104   4.579  10.276 -1.3128 -1.3060 -0.1882
 9892TIP3    H253872   1.227   4.514  10.218 -0.4886 -0.3456  0.4492
 9893TIP3   OH253873   2.193   1.770  10.029 -0.7118  0.1722 -0.3106
 9893TIP3    H153874   2.098   1.774  10.043 -0.5912 -0.1404  0.6591
 9893TIP3    H253875   2.217   1.682  10.060 -0.0855  0.3024 -0.4315
 9894TIP3   OH253876   4.882   2.135  10.137 -0.5255 -0.5182  0.0577
 9894TIP3    H153877   4.975   2.154  10.120 -0.5664 -0.8973 -0.6225
 9894TIP3    H253878   4.838   2.219  10.128 -0.1965 -0.2629  0.7759
 9895TIP3   OH253879   6.905   4.556   9.771  0.3162  0.6203 -0.2975
 9895TIP3    H153880   6.858   4.600   9.700 -2.1089 -1.1531  0.0899
 9895TIP3    H253881   6.903   4.464   9.747  1.7910  0.2598  0.8405
 9896TIP3   OH253882   1.122   0.776  10.432 -0.1274  0.1213  0.6593
 9896TIP3    H153883   1.112   0.871  10.429 -0.8346  0.1331  2.1845
 9896TIP3    H253884   1.212   0.760  10.403 -0.3578  1.1397 -0.6900
 9897TIP3   OH253885   7.176   4.940  11.567  0.2143  0.0052 -0.2203
 9897TIP3    H153886   7.252   4.941  11.508  1.3549  1.0831  1.1927
 9897TIP3    H253887   7.204   4.883  11.639  0.2517  1.4627  0.9702
 9898TIP3   OH253888   7.451   5.152   9.706 -0.2763 -0.2023  0.4601
 9898TIP3    H153889   7.427   5.244   9.711  0.5813  0.0177  0.7690
 9898TIP3    H253890   7.402   5.118   9.632 -0.0934  0.6650 -0.0718
 9899TIP3   OH253891   3.490   6.591  10.552  0.2702 -0.3267  0.4389
 9899TIP3    H153892   3.415   6.537  10.527  0.9781 -1.3368  0.4022
 9899TIP3    H253893   3.486   6.594  10.647 -0.0908  0.0309  0.4130
 9900TIP3   OH253894   6.402   3.714  10.963  0.4938 -0.2621 -0.5602
 9900TIP3    H153895   6.373   3.664  10.886 -0.7261 -0.3315 -0.0837
 9900TIP3    H253896   6.343   3.789  10.966  0.7071 -0.1194  0.1621
 9901TIP3   OH253897   2.581   1.957  11.517  0.4688  0.2310 -0.1076
 9901TIP3    H153898   2.515   1.923  11.578  1.1912  1.0096  1.1570
 9901TIP3    H253899   2.552   1.927  11.431 -1.5192  0.5329  0.4146
 9902TIP3   OH253900   2.635   5.712   9.585 -0.5343 -0.3610  0.1528
 9902TIP3    H153901   2.672   5.636   9.631  0.4349  0.2563  0.4222
 9902TIP3    H253902   2.582   5.757   9.651 -1.5637 -1.0810 -0.1525
 9903TIP3   OH253903   1.635   1.314  11.940 -0.3843  0.6954  0.1504
 9903TIP3    H153904   1.564   1.339  12.001  0.6871 -1.1219  2.2867
 9903TIP3    H253905   1.702   1.381  11.953  0.0142  0.0939  1.3709
 9904TIP3   OH253906   6.386   2.750  11.727 -0.6076  0.2076  0.2188
 9904TIP3    H153907   6.304   2.710  11.756 -0.9114 -1.1407 -2.2167
 9904TIP3    H253908   6.450   2.679  11.731  0.5313  1.2649  2.1623
 9905TIP3   OH253909   2.926   3.658  10.434 -0.5813  0.3334  0.3338
 9905TIP3    H153910   2.868   3.686  10.504  0.0321  0.4254  0.8186
 9905TIP3    H253911   2.985   3.595  10.476  0.2583  0.9389  0.0826
 9906TIP3   OH253912   0.476   1.857  12.483  0.4615 -0.5406 -0.1658
 9906TIP3    H153913   0.383   1.837  12.495  0.8704 -2.4664  0.0625
 9906TIP3    H253914   0.490   1.849  12.388 -0.0073  1.8584 -0.5021
 9907TIP3   OH253915   3.399   4.100  11.156  0.3220 -0.3893  0.6048
 9907TIP3    H153916   3.341   4.066  11.088 -2.2605 -0.3917  2.6611
 9907TIP3    H253917   3.387   4.195  11.152  0.1985 -0.3880  1.0290
 9908TIP3   OH253918   0.457   4.725  11.786 -0.0295 -0.2957  0.5053
 9908TIP3    H153919   0.436   4.702  11.876  0.9111  0.1519  0.8496
 9908TIP3    H253920   0.402   4.667  11.733 -1.6817  0.4153  1.3424
 9909TIP3   OH253921   3.593   3.736   9.964 -0.2036  0.8069  0.3603
 9909TIP3    H153922   3.562   3.728  10.054  1.8044  0.0015  1.0596
 9909TIP3    H253923   3.686   3.710   9.969  0.5527  2.8265 -1.5489
 9910TIP3   OH253924   5.961   3.816  10.530 -0.1346  0.0155 -0.1342
 9910TIP3    H153925   5.897   3.775  10.588 -1.2479  0.6633 -0.8741
 9910TIP3    H253926   5.950   3.771  10.447  0.1740  0.3227 -0.3439
 9911TIP3   OH253927   3.619   2.286  10.728  0.1440  0.3941  0.1317
 9911TIP3    H153928   3.595   2.376  10.750 -0.6362  0.6854 -1.7280
 9911TIP3    H253929   3.713   2.282  10.745 -0.0941  1.0676  1.7456
 9912TIP3   OH253930   2.903   6.050  12.400  0.3152  0.6710  0.0191
 9912TIP3    H153931   2.973   6.014  12.455  0.0849 -0.0091 -0.1198
 9912TIP3    H253932   2.931   6.139  12.381 -0.7568  1.9133  3.3872
 9913TIP3   OH253933   4.734   0.317  11.007 -0.2768 -0.4217 -0.0682
 9913TIP3    H153934   4.782   0.377  11.065  0.0218 -0.7439  0.0205
 9913TIP3    H253935   4.643   0.345  11.014 -0.0861  0.2963 -0.3588
 9914TIP3   OH253936   1.587   3.710   9.756 -0.2203 -0.2277  0.0710
 9914TIP3    H153937   1.493   3.710   9.736 -1.2007 -0.5447  3.9465
 9914TIP3    H253938   1.602   3.627   9.801  1.7204  0.2592  0.4020
 9915TIP3   OH253939   0.319   3.580  12.624  0.1556 -0.0226  0.0525
 9915TIP3    H153940   0.353   3.497  12.659 -0.4350  0.8090  2.8218
 9915TIP3    H253941   0.227   3.563  12.607  0.1386 -0.0504  0.1725
 9916TIP3   OH253942   5.717   6.944  11.370 -0.6050 -0.7310  0.1416
 9916TIP3    H153943   5.627   6.930  11.340 -1.5279  1.3450  1.6775
 9916TIP3    H253944   5.708   7.003  11.445  2.1175  0.8615 -0.6426
 9917TIP3   OH253945   6.006   6.612  10.826 -0.1632  0.0957 -0.6327
 9917TIP3    H153946   5.915   6.629  10.850 -0.6702 -1.5562 -1.2163
 9917TIP3    H253947   6.027   6.677  10.759 -1.1843 -0.0248 -1.0770
 9918TIP3   OH253948   1.826   3.151  11.148 -0.1178  0.4009 -0.0067
 9918TIP3    H153949   1.746   3.109  11.179 -0.2157  1.3543  1.1046
 9918TIP3    H253950   1.795   3.221  11.090  0.0274 -0.6473 -1.4215
 9919TIP3   OH253951   6.893   0.428  10.081 -0.1939  0.2620  0.3509
 9919TIP3    H153952   6.851   0.479  10.012 -0.2510 -1.7097 -1.1728
 9919TIP3    H253953   6.986   0.450  10.075 -0.2595  0.4135 -0.0881
 9920TIP3   OH253954   3.463   7.156  11.638  0.9281 -0.1699  0.1189
 9920TIP3    H153955   3.463   7.153  11.734  1.1136 -0.9240  0.1019
 9920TIP3    H253956   3.556   7.159  11.615  0.9346 -1.2329 -0.0550
 9921TIP3   OH253957   0.211   4.069  11.874 -0.1740 -0.4266  0.1419
 9921TIP3    H153958   0.235   4.148  11.826 -1.9560 -0.3058 -0.6400
 9921TIP3    H253959   0.282   4.056  11.937  1.2476  0.5271 -1.1981
 9922TIP3   OH253960   1.468   5.315  12.365 -0.0235  0.6310 -0.1321
 9922TIP3    H153961   1.397   5.304  12.428  1.1427 -0.9287  0.9795
 9922TIP3    H253962   1.510   5.397  12.390 -0.5052  0.7980  0.1411
 9923TIP3   OH253963   6.259   0.739   9.804  0.1357 -0.1267 -0.1999
 9923TIP3    H153964   6.165   0.745   9.785  0.2443 -2.0453 -1.6366
 9923TIP3    H253965   6.263   0.696   9.890 -0.3105 -0.0296 -0.1282
 9924TIP3   OH253966   2.688   4.146  12.426  0.1324  0.6493  0.0115
 9924TIP3    H153967   2.651   4.227  12.390 -0.3161 -0.0342 -1.1114
 9924TIP3    H253968   2.777   4.143  12.391  0.2589  0.8178  0.3171
 9925TIP3   OH253969   2.454   0.656   9.725 -0.5490 -0.2003 -0.2142
 9925TIP3    H153970   2.411   0.692   9.803  0.7587  0.1937  0.3606
 9925TIP3    H253971   2.458   0.729   9.664  0.4624  0.1503  0.2476
 9926TIP3   OH253972   0.851   5.913  11.254  0.0239  0.4488  0.0893
 9926TIP3    H153973   0.928   5.958  11.220  0.3385 -0.9156 -1.0792
 9926TIP3    H253974   0.777   5.969  11.229  0.4792  0.8273 -0.4245
 9927TIP3   OH253975   1.073   5.767  11.610 -0.0822  0.2403 -0.4029
 9927TIP3    H153976   1.130   5.758  11.533  0.4791 -1.0549  0.1353
 9927TIP3    H253977   1.120   5.825  11.669 -0.7507  1.6649 -1.2242
 9928TIP3   OH253978   6.235   4.956  10.938  0.1069  0.2542  0.4764
 9928TIP3    H153979   6.218   4.973  11.031 -3.7417  0.9763 -0.1733
 9928TIP3    H253980   6.247   4.861  10.932  0.0622  0.1641  1.6609
 9929TIP3   OH253981   5.958   5.088  11.316 -0.4496  0.4164  0.4483
 9929TIP3    H153982   5.901   5.146  11.266 -1.3309 -1.8116 -1.2926
 9929TIP3    H253983   5.922   5.090  11.404 -1.2275  1.5055  0.1339
 9930TIP3   OH253984   5.976   0.804   9.849  0.8761 -0.4542  0.6930
 9930TIP3    H153985   5.890   0.844   9.843  0.7620 -0.8716 -1.0345
 9930TIP3    H253986   6.005   0.821   9.939 -0.9985 -0.3300  1.3160
 9931TIP3   OH253987   2.280   1.634  10.691  0.0281  0.0361  0.2042
 9931TIP3    H153988   2.316   1.624  10.602 -0.3933  0.5448 -0.0264
 9931TIP3    H253989   2.202   1.579  10.692 -0.3522  0.5652  0.0372
 9932TIP3   OH253990   4.598   1.933  11.412 -0.0918 -0.3628 -1.0853
 9932TIP3    H153991   4.568   1.846  11.439  1.0027 -0.4603 -0.0711
 9932TIP3    H253992   4.623   1.975  11.494 -0.4796  0.8716 -1.5797
 9933TIP3   OH253993   5.611   5.192  11.806 -0.3254  0.2322  0.1490
 9933TIP3    H153994   5.606   5.102  11.772  1.9656 -0.6402  1.8307
 9933TIP3    H253995   5.610   5.182  11.901 -0.7011  2.0713  0.3675
 9934TIP3   OH253996   2.055   5.305  10.365 -0.2349  0.5109  0.1751
 9934TIP3    H153997   2.022   5.221  10.396  0.3061 -0.4445 -1.6498
 9934TIP3    H253998   2.034   5.367  10.435  0.7291 -1.4045  2.2960
 9935TIP3   OH253999   5.574   2.085   9.752 -0.1392 -0.2975  0.5827
 9935TIP3    H154000   5.590   1.997   9.717  0.8362 -0.4050  1.2682
 9935TIP3    H254001   5.508   2.122   9.693  1.5963 -0.3758 -1.5623
 9936TIP3   OH254002   5.621   0.719  11.138  0.4215  0.3559 -0.0015
 9936TIP3    H154003   5.674   0.715  11.218 -0.8157 -1.6312  0.7883
 9936TIP3    H254004   5.546   0.773  11.162  1.5816  2.4388 -0.8543
 9937TIP3   OH254005   7.097   0.264   9.846 -0.1737  0.0198 -0.4483
 9937TIP3    H154006   7.177   0.316   9.837  0.0904  0.6678  3.5341
 9937TIP3    H254007   7.123   0.175   9.823  1.3208  0.4601 -0.5376
 9938TIP3   OH254008   3.202   4.182  10.386  0.2120 -0.1438 -0.3169
 9938TIP3    H154009   3.219   4.104  10.439 -1.9106 -0.1514  0.4429
 9938TIP3    H254010   3.245   4.253  10.433 -0.2492 -0.4105  0.5168
 9939TIP3   OH254011   1.443   4.122  11.906  0.3843 -0.4009 -0.4410
 9939TIP3    H154012   1.460   4.092  11.995  1.9447 -0.7648 -0.8242
 9939TIP3    H254013   1.369   4.069  11.876 -0.9571  0.5631  1.0160
 9940TIP3   OH254014   3.716   7.186  11.030 -0.6511 -0.0578 -0.7777
 9940TIP3    H154015   3.714   7.094  11.057 -1.1796  0.1166 -0.2083
 9940TIP3    H254016   3.694   7.235  11.109  1.9055  0.7143 -0.4300
 9941TIP3   OH254017   7.177   5.047   9.651 -0.4876 -0.1963 -0.1932
 9941TIP3    H154018   7.236   5.045   9.727 -1.0072  0.0061  0.2211
 9941TIP3    H254019   7.089   5.045   9.689 -0.7539 -1.6912 -0.8457
 9942TIP3   OH254020   0.248   6.522  10.198 -0.1710 -0.3353  0.0388
 9942TIP3    H154021   0.260   6.522  10.294  0.4028  0.2599 -0.0195
 9942TIP3    H254022   0.296   6.599  10.169 -2.3736  0.9169 -0.4953
 9943TIP3   OH254023   7.265   3.304  12.227 -0.1201  0.3202 -0.1280
 9943TIP3    H154024   7.248   3.230  12.285  1.3319  0.2057  0.1839
 9943TIP3    H254025   7.289   3.375  12.286  1.6463  0.1262 -0.5477
 9944TIP3   OH254026   5.709   2.622  11.406  0.1572 -0.3824  0.2224
 9944TIP3    H154027   5.768   2.656  11.339 -0.8275  1.2389  0.1436
 9944TIP3    H254028   5.722   2.680  11.481 -0.8141 -0.4572  0.4512
 9945TIP3   OH254029   5.944   6.783  11.286  0.0283 -0.5601  0.1836
 9945TIP3    H154030   5.954   6.766  11.379 -2.2579 -1.1581  0.3899
 9945TIP3    H254031   5.868   6.840  11.279  1.3591  1.1680 -1.2360
 9946TIP3   OH254032   4.957   3.267  11.116  0.3547 -0.5989 -0.5914
 9946TIP3    H154033   4.929   3.309  11.035  2.5648  0.2747 -0.9639
 9946TIP3    H254034   4.956   3.173  11.096 -0.8459 -0.5146 -1.0170
 9947TIP3   OH254035   7.397   3.640  11.025  0.0606  0.1849 -0.0780
 9947TIP3    H154036   7.419   3.679  11.109  1.7046 -2.2624  0.7402
 9947TIP3    H254037   7.478   3.600  10.995 -1.6563 -3.8756 -0.0196
 9948TIP3   OH254038   4.941   3.303  11.404 -0.1023 -0.6088 -0.5028
 9948TIP3    H154039   5.028   3.343  11.402 -0.6685  0.6900 -0.2057
 9948TIP3    H254040   4.938   3.249  11.325  1.0988 -0.9824 -0.3170
 9949TIP3   OH254041   1.314   6.254  10.090  0.3056  0.3882 -0.6635
 9949TIP3    H154042   1.233   6.230  10.135  1.1747 -0.4280  0.5213
 9949TIP3    H254043   1.300   6.226   9.999 -1.1552  1.2917 -0.7532
 9950TIP3   OH254044   2.242   1.632  11.511  0.5606  0.1113 -0.1021
 9950TIP3    H154045   2.258   1.629  11.417 -1.0149 -0.0032 -0.3976
 9950TIP3    H254046   2.150   1.608  11.520  0.7205  0.0083  1.4864
 9951TIP3   OH254047   3.850   0.562  10.141 -0.1877  0.3230 -0.3164
 9951TIP3    H154048   3.810   0.483  10.177  1.8348  0.1178  1.6791
 9951TIP3    H254049   3.866   0.618  10.217  0.9011  1.4960 -1.3583
 9952TIP3   OH254050   0.602   0.868  10.847 -0.3183  0.3591  0.3232
 9952TIP3    H154051   0.611   0.776  10.822 -2.4980  0.1981 -0.0742
 9952TIP3    H254052   0.523   0.871  10.902 -0.2889  1.9801  0.3373
 9953TIP3   OH254053   2.965   2.027  10.333  0.1531 -0.4366  0.1142
 9953TIP3    H154054   2.892   1.972  10.306  0.4291 -1.5479  1.5022
 9953TIP3    H254055   2.975   2.092  10.262 -2.5797  0.1786  0.1966
 9954TIP3   OH254056   6.713   4.803  11.370  0.3702 -0.4896  0.4600
 9954TIP3    H154057   6.623   4.794  11.401  0.9293 -0.8706  2.0264
 9954TIP3    H254058   6.718   4.745  11.294 -1.0364  0.4992 -0.4318
 9955TIP3   OH254059   1.267   5.645  10.515  0.5447  0.1911  0.0011
 9955TIP3    H154060   1.208   5.593  10.460 -1.7061  1.6232  0.9208
 9955TIP3    H254061   1.295   5.585  10.584  0.1653 -0.5237 -0.4520
 9956TIP3   OH254062   0.018   2.458  10.942  0.0982  0.1383 -0.0993
 9956TIP3    H154063   0.086   2.392  10.958  0.2621  0.2371 -0.3974
 9956TIP3    H254064   0.045   2.533  10.994  0.5308  0.3904 -0.6827
 9957TIP3   OH254065   5.045   0.403   9.766  0.5062  0.2421 -0.0096
 9957TIP3    H154066   5.018   0.485   9.724 -0.5184 -0.1570 -0.1498
 9957TIP3    H254067   4.967   0.372   9.811  0.8443 -0.7500 -0.0914
 9958TIP3   OH254068   4.714   5.363  10.570 -0.2225 -0.1253 -0.1643
 9958TIP3    H154069   4.781   5.386  10.506 -1.4184  1.2211 -0.9950
 9958TIP3    H254070   4.648   5.315  10.520 -0.3392 -0.6048  0.4378
 9959TIP3   OH254071   3.499   2.785  10.800  0.5290  0.5598 -0.4344
 9959TIP3    H154072   3.451   2.708  10.769 -1.0277  1.0876  0.5511
 9959TIP3    H254073   3.471   2.855  10.741  0.2231  0.8405  0.0464
 9960TIP3   OH254074   5.844   6.296  10.334  0.2666  0.0056  0.0137
 9960TIP3    H154075   5.824   6.390  10.328  0.6854  0.0470 -0.9869
 9960TIP3    H254076   5.897   6.289  10.414 -2.2688  0.1162  1.8132
 9961TIP3   OH254077   3.053   3.173  12.388 -0.1911  1.2466  0.9013
 9961TIP3    H154078   3.115   3.107  12.420 -2.4176 -1.7665 -0.4880
 9961TIP3    H254079   2.969   3.147  12.426 -1.3524  2.6781 -0.5345
 9962TIP3   OH254080   3.273   5.428  11.700 -0.4247  0.6870 -0.0584
 9962TIP3    H154081   3.232   5.347  11.669 -0.7593  0.6584  0.4390
 9962TIP3    H254082   3.331   5.399  11.771 -1.0327  0.9467  0.5589
 9963TIP3   OH254083   2.879   6.653   9.796 -0.3017 -0.4563  0.2633
 9963TIP3    H154084   2.814   6.590   9.827  0.8173 -2.2289 -0.8314
 9963TIP3    H254085   2.827   6.722   9.754 -1.4845 -2.3302 -1.5227
 9964TIP3   OH254086   3.041   1.672  10.244  0.0016  0.0656 -0.7341
 9964TIP3    H154087   3.005   1.731  10.177  0.9667 -0.2958 -1.6084
 9964TIP3    H254088   3.047   1.587  10.200 -0.7960 -0.5535  0.3155
 9965TIP3   OH254089   6.603   2.323  12.198 -0.1447  0.1834  0.0587
 9965TIP3    H154090   6.622   2.354  12.286 -0.1487 -0.2092  0.1993
 9965TIP3    H254091   6.618   2.229  12.202  0.9448  0.3025 -0.6391
 9966TIP3   OH254092   0.368   4.236  12.017 -0.3676 -0.0407 -0.1347
 9966TIP3    H154093   0.438   4.255  12.080 -0.9269  0.9516  0.2181
 9966TIP3    H254094   0.314   4.315  12.019 -0.5840 -0.1380 -1.6173
 9967TIP3   OH254095   6.828   2.400  10.575  0.3944  0.0056 -0.0005
 9967TIP3    H154096   6.907   2.379  10.623 -0.5769 -0.4732  1.4415
 9967TIP3    H254097   6.777   2.455  10.634 -0.2317  0.5792 -1.0255
 9968TIP3   OH254098   5.956   4.714  10.161 -0.2771  0.0529  0.4348
 9968TIP3    H154099   5.879   4.760  10.126  0.8442  1.2341 -0.5756
 9968TIP3    H254100   5.974   4.646  10.096  0.9033  1.2773 -0.5511
 9969TIP3   OH254101   3.013   2.046   9.525 -0.3335 -0.4073  0.2887
 9969TIP3    H154102   3.048   1.957   9.524 -0.8299 -0.6043 -0.3063
 9969TIP3    H254103   2.934   2.041   9.472  0.2191  0.6176 -0.6955
 9970TIP3   OH254104   2.461   3.454  10.952  0.1747  0.7310  0.4582
 9970TIP3    H154105   2.450   3.429  10.861 -2.8282  2.4685  0.2177
 9970TIP3    H254106   2.458   3.372  11.001  0.7028 -0.1174 -0.8971
 9971TIP3   OH254107   1.016   0.694  11.334 -0.2377 -0.6314 -0.2578
 9971TIP3    H154108   1.055   0.777  11.306  0.0100 -0.6738 -0.0433
 9971TIP3    H254109   1.071   0.626  11.294  0.6119 -0.6997  0.9541
 9972TIP3   OH254110   7.079   6.856   9.733  0.2251 -0.1529 -0.5177
 9972TIP3    H154111   7.141   6.789   9.762 -1.5502 -1.3637  0.6601
 9972TIP3    H254112   7.075   6.919   9.806  2.0041  1.4176 -1.6788
 9973TIP3   OH254113   7.401   6.912  11.293  0.6241 -0.1450  0.1436
 9973TIP3    H154114   7.409   6.878  11.203 -0.0115  0.5256 -0.1731
 9973TIP3    H254115   7.480   6.963  11.306  1.1685 -1.0016  0.3101
 9974TIP3   OH254116   7.440   2.164  11.143 -0.5150  0.1280  0.5109
 9974TIP3    H154117   7.366   2.184  11.085  0.4747  0.3726 -0.7118
 9974TIP3    H254118   7.464   2.074  11.119 -1.1256 -0.3751  1.7215
 9975TIP3   OH254119   0.011   2.659  10.489 -0.2578  0.1705  0.1470
 9975TIP3    H154120  -0.031   2.605  10.422 -0.3944  0.5799 -0.0960
 9975TIP3    H254121  -0.032   2.744  10.482 -0.7628  0.0271  1.2035
 9976TIP3   OH254122   5.964   2.402  11.645  0.9316  0.1166  0.0720
 9976TIP3    H154123   5.956   2.494  11.623  0.4471  0.1128  0.2197
 9976TIP3    H254124   5.905   2.390  11.720 -0.2119 -0.6337 -0.8934
 9977TIP3   OH254125   6.519   4.390  11.581 -0.2696 -0.0169  0.3777
 9977TIP3    H154126   6.557   4.364  11.665 -0.8003  0.2407  0.6981
 9977TIP3    H254127   6.429   4.415  11.602 -0.3044  0.3631 -0.2189
 9978TIP3   OH254128   1.372   4.494  11.826  0.2124  0.2081 -0.3033
 9978TIP3    H154129   1.407   4.406  11.836 -1.0845 -0.3249 -0.2783
 9978TIP3    H254130   1.418   4.546  11.892 -0.2085 -0.8248  0.8390
 9979TIP3   OH254131   5.216   3.798  11.104 -0.0499 -0.1227 -0.4270
 9979TIP3    H154132   5.139   3.842  11.070 -0.2723  1.3884  1.8078
 9979TIP3    H254133   5.225   3.719  11.050 -2.5791  0.1404 -1.3591
 9980TIP3   OH254134   1.285   5.234  10.112  0.0984  0.3453 -0.1337
 9980TIP3    H154135   1.325   5.320  10.107 -0.8079  0.7600 -0.4380
 9980TIP3    H254136   1.217   5.235  10.045 -0.8480 -0.1101  0.7805
 9981TIP3   OH254137   0.726   6.228   9.603  0.3074 -0.0124  0.6530
 9981TIP3    H154138   0.804   6.263   9.560  0.7008 -2.4038 -0.7942
 9981TIP3    H254139   0.653   6.266   9.556  0.7173 -1.0137 -0.8892
 9982TIP3   OH254140   0.247   7.429  10.790  0.2123  0.1879  0.2568
 9982TIP3    H154141   0.195   7.454  10.866  0.3794  0.9287  0.1304
 9982TIP3    H254142   0.194   7.456  10.715  0.6360  0.6794  0.1253
 9983TIP3   OH254143   6.464   4.191  10.023  0.2014  0.1687 -0.3505
 9983TIP3    H154144   6.467   4.111   9.971  0.1578  0.9466 -1.5795
 9983TIP3    H254145   6.371   4.204  10.042 -0.6125  2.5864 -4.5453
 9984TIP3   OH254146   0.259   1.693  11.092 -0.4188  0.1835  0.0513
 9984TIP3    H154147   0.291   1.605  11.070  0.5975  0.1282  1.6570
 9984TIP3    H254148   0.165   1.681  11.105 -1.2085  0.2238 -4.0777
 9985TIP3   OH254149   5.347   6.791  10.225 -0.5277  0.2648 -0.1252
 9985TIP3    H154150   5.315   6.877  10.200  0.1621  0.6666  0.3268
 9985TIP3    H254151   5.321   6.733  10.153 -1.6043  0.7072 -0.1051
 9986TIP3   OH254152   0.557   2.743   9.641  0.6338  0.2191  0.1092
 9986TIP3    H154153   0.536   2.651   9.625 -0.5955  0.8315 -2.1943
 9986TIP3    H254154   0.630   2.762   9.581 -0.0317  1.0809 -0.4438
 9987TIP3   OH254155   2.735   6.019  10.103  0.3954  0.0311 -0.0397
 9987TIP3    H154156   2.648   5.985  10.124  0.7057 -1.0160 -0.3441
 9987TIP3    H254157   2.719   6.090  10.041 -0.2631  0.0731  0.1729
 9988TIP3   OH254158   5.399   5.021  11.278  0.4721 -0.6676 -0.1367
 9988TIP3    H154159   5.457   5.028  11.354  1.1023 -0.6430 -0.6182
 9988TIP3    H254160   5.453   4.982  11.210  1.2325  2.9462 -1.8688
 9989TIP3   OH254161   3.331   0.967   9.839  0.4893 -0.1951 -0.7269
 9989TIP3    H154162   3.329   0.957   9.934  1.6105  1.4409 -0.4794
 9989TIP3    H254163   3.418   1.004   9.820 -0.0396  0.3619 -2.2717
 9990TIP3   OH254164   6.524   2.359  11.267  0.7774  0.3127 -0.2107
 9990TIP3    H154165   6.539   2.324  11.179  1.2289  0.6486 -0.2696
 9990TIP3    H254166   6.598   2.418  11.283  0.4804  0.5752  0.2293
 9991TIP3   OH254167   3.302   4.917  11.578  0.3169 -0.2065  0.4228
 9991TIP3    H154168   3.291   4.910  11.673  0.0344  0.1854  0.4217
 9991TIP3    H254169   3.246   4.848  11.542  2.3583 -2.0786  0.6074
 9992TIP3   OH254170   5.310   4.090   9.777 -0.3777  0.1985  0.5054
 9992TIP3    H154171   5.379   4.075   9.712 -1.8395 -0.1658 -1.0353
 9992TIP3    H254172   5.269   4.005   9.789 -0.1328  0.2615  1.9563
 9993TIP3   OH254173   0.108   4.592  10.139  0.1213  0.4776 -0.2351
 9993TIP3    H154174   0.066   4.523  10.190  0.1987  0.5811 -0.0313
 9993TIP3    H254175   0.036   4.649  10.112 -0.2493 -0.8303 -2.2149
 9994TIP3   OH254176   5.253   2.378  10.990 -0.2796 -0.3363 -0.4767
 9994TIP3    H154177   5.275   2.329  10.911 -1.0149  1.6201 -1.9693
 9994TIP3    H254178   5.337   2.391  11.034  0.0887 -1.7770 -0.6885
 9995TIP3   OH254179   5.175   5.470  10.337 -0.1181 -0.2622  0.2994
 9995TIP3    H154180   5.090   5.473  10.293  0.3823 -0.0636 -0.6836
 9995TIP3    H254181   5.154   5.476  10.430 -1.1207  0.7475  0.0249
 9996TIP3   OH254182   1.585   5.572  11.822 -0.5195 -0.1183 -0.9106
 9996TIP3    H154183   1.534   5.530  11.752 -1.5774 -1.3085  0.4843
 9996TIP3    H254184   1.519   5.609  11.880  0.1442 -1.6669  0.9357
 9997TIP3   OH254185   3.432   4.097  11.468  0.0401  0.1479 -0.5021
 9997TIP3    H154186   3.418   4.116  11.375  1.6532  1.0442 -0.5890
 9997TIP3    H254187   3.437   4.002  11.473 -0.1887  0.0903 -1.3170
 9998TIP3   OH254188   1.362   6.390   9.634  0.2589  0.5188 -0.1663
 9998TIP3    H154189   1.292   6.412   9.695  0.8147  0.0742  0.6486
 9998TIP3    H254190   1.443   6.400   9.685  0.7214 -0.0621 -0.7687
 9999TIP3   OH254191   4.351   6.001  11.195 -0.0015  0.4028  0.3859
 9999TIP3    H154192   4.371   5.908  11.209  0.1558  0.3825  0.0409
 9999TIP3    H254193   4.433   6.039  11.165  0.1993  0.8685  1.4882
10000TIP3   OH254194   0.507   1.428  11.876  0.0355 -0.4340 -0.8225
10000TIP3    H154195   0.569   1.372  11.922  1.3868  1.4268 -0.2182
10000TIP3    H254196   0.442   1.452  11.941  0.4381  0.0436 -0.5825
10001TIP3   OH254197   5.999   1.135  10.561 -0.4843 -0.4187 -0.5607
10001TIP3    H154198   6.004   1.146  10.656  1.1167 -0.6866 -0.5806
10001TIP3    H254199   6.076   1.182  10.528 -0.3249 -1.3843 -1.6116
10002TIP3   OH254200   1.842   4.965  11.131  0.3318  0.3448  0.1216
10002TIP3    H154201   1.812   4.874  11.125  2.8722 -0.8279  2.8712
10002TIP3    H254202   1.888   4.980  11.048 -1.9260 -0.0653 -1.2801
10003TIP3   OH254203   5.202   6.552  10.742  0.0459 -0.0326  0.1595
10003TIP3    H154204   5.161   6.578  10.659 -1.7632  1.2817  1.4216
10003TIP3    H254205   5.192   6.457  10.744 -2.3896  0.1621  0.0776
10004TIP3   OH254206   6.761   6.987  11.895 -0.3183  0.1475  0.0225
10004TIP3    H154207   6.717   6.918  11.945 -1.3282  0.4548 -0.4202
10004TIP3    H254208   6.835   7.012  11.949 -0.2522 -0.9011  0.4489
10005TIP3   OH254209   6.235   1.206  10.240 -0.7010  0.2248 -0.0025
10005TIP3    H154210   6.142   1.187  10.255 -0.3494 -1.7381 -0.0019
10005TIP3    H254211   6.281   1.138  10.289  0.7065  0.2373 -1.2535
10006TIP3   OH254212   6.583   0.043   9.724 -0.3786 -0.3947 -0.6912
10006TIP3    H154213   6.547   0.101   9.658 -0.3701  0.7293  0.2518
10006TIP3    H254214   6.666   0.083   9.748 -0.9062 -0.1373  0.8076
10007TIP3   OH254215   1.243   5.535  11.273 -0.1519 -0.5109  0.1027
10007TIP3    H154216   1.206   5.624  11.272 -0.5684 -0.6740 -1.2683
10007TIP3    H254217   1.167   5.477  11.276  0.0946 -0.8302  0.2778
10008TIP3   OH254218   4.655   6.812  10.592 -0.0417 -0.1384 -0.2466
10008TIP3    H154219   4.670   6.874  10.664 -2.2056 -0.0086  0.1708
10008TIP3    H254220   4.612   6.737  10.634 -2.7027  0.5499 -1.5306
10009TIP3   OH254221   2.461   5.984  11.344  0.1239  0.2961  0.0039
10009TIP3    H154222   2.436   6.054  11.404  0.2171  0.7292 -0.4520
10009TIP3    H254223   2.380   5.958  11.301 -0.4208 -1.7288  2.0429
10010TIP3   OH254224   2.719   5.466  10.831 -0.4711  0.2651  0.0926
10010TIP3    H154225   2.794   5.438  10.884 -0.4792 -0.0337 -0.0519
10010TIP3    H254226   2.701   5.391  10.774 -0.2077  0.7219 -0.6149
10011TIP3   OH254227   6.283   0.563  10.383 -0.2669  0.1107 -0.2558
10011TIP3    H154228   6.300   0.472  10.356 -1.9623 -0.1162 -0.6278
10011TIP3    H254229   6.188   0.570  10.387 -0.1669  1.9379 -0.3839
10012TIP3   OH254230   1.340   0.828  11.366  0.7309  0.0182  0.0226
10012TIP3    H154231   1.337   0.792  11.277  0.3420  0.6469 -0.2218
10012TIP3    H254232   1.353   0.922  11.354 -0.5392  0.2843  0.5922
10013TIP3   OH254233   0.903   5.131  11.344  0.2916  0.3507  0.1637
10013TIP3    H154234   0.952   5.066  11.394  1.7469  0.5733 -0.8856
10013TIP3    H254235   0.967   5.200  11.326 -1.3389  2.4354  1.7544
10014TIP3   OH254236   7.235   2.881   9.665 -0.0039  0.6448 -0.2347
10014TIP3    H154237   7.330   2.868   9.670  0.1411  2.0872  2.1922
10014TIP3    H254238   7.223   2.940   9.591  0.7353 -1.0444 -1.7929
10015TIP3   OH254239   6.421   6.764   9.599 -0.0542  0.1573 -0.2738
10015TIP3    H154240   6.439   6.710   9.522  1.0269  2.1217 -1.4629
10015TIP3    H254241   6.325   6.759   9.609 -0.0235 -1.6255 -0.5602
10016TIP3   OH254242   6.712   6.808  11.222  0.0308 -0.3882 -0.2328
10016TIP3    H154243   6.754   6.757  11.152 -2.6459  0.2470 -2.4616
10016TIP3    H254244   6.713   6.898  11.190  1.6345  0.5342  2.1180
10017TIP3   OH254245   3.152   3.048  11.921  0.3138  0.5643  0.7068
10017TIP3    H154246   3.174   2.979  11.858  0.0494 -0.2836  1.5208
10017TIP3    H254247   3.107   3.114  11.869 -0.1246 -0.2361  0.0446
10018TIP3   OH254248   6.742   7.405  10.745 -0.1296 -0.0527 -0.3992
10018TIP3    H154249   6.668   7.443  10.698 -0.4343 -0.2894 -0.1159
10018TIP3    H254250   6.733   7.439  10.835  0.1536 -0.0129 -0.3857
10019TIP3   OH254251   5.084   3.795  10.052 -0.2486 -0.4486 -0.1035
10019TIP3    H154252   5.000   3.752  10.035 -0.2462  0.0383 -1.5278
10019TIP3    H254253   5.065   3.857  10.122 -0.3682 -2.3256  1.6195
10020TIP3   OH254254   1.852   0.520  12.211  0.0722 -0.0953 -0.7294
10020TIP3    H154255   1.819   0.431  12.225 -0.0557 -0.0096 -0.4679
10020TIP3    H254256   1.908   0.536  12.287 -1.2852  0.6897  0.1691
10021TIP3   OH254257   7.413   4.946   9.493 -0.3361  0.1585 -0.1023
10021TIP3    H154258   7.345   4.901   9.543  0.3479  0.4858  1.1857
10021TIP3    H254259   7.472   4.877   9.465 -1.1950 -0.1315 -1.2544
10022TIP3   OH254260   7.315   4.563  10.561  0.7998  0.3443  0.7057
10022TIP3    H154261   7.242   4.587  10.618 -0.1541  0.1289 -0.3886
10022TIP3    H254262   7.285   4.483  10.516  0.7958  1.4324 -1.3631
10023TIP3   OH254263   4.018   6.785   9.839 -0.1788  0.3475 -0.7970
10023TIP3    H154264   3.926   6.784   9.867  0.2379  1.1583  0.6944
10023TIP3    H254265   4.039   6.878   9.830  0.9805  0.2599  0.6448
10024TIP3   OH254266   3.469   0.626  11.241 -0.0678 -0.4344 -0.1334
10024TIP3    H154267   3.555   0.618  11.283 -0.1356  1.3429  0.4189
10024TIP3    H254268   3.406   0.615  11.313 -0.2264  0.6489 -0.0885
10025TIP3   OH254269   7.217   0.417  11.250  0.4710 -0.0932 -0.6785
10025TIP3    H154270   7.126   0.410  11.222  0.0231 -1.6117  0.9384
10025TIP3    H254271   7.265   0.439  11.170 -1.3122  0.9892 -1.5267
10026TIP3   OH254272   1.818   6.781  12.515  0.0983  0.3694 -0.6199
10026TIP3    H154273   1.776   6.700  12.543 -1.8702  1.8846  1.1563
10026TIP3    H254274   1.827   6.833  12.595  1.3195  1.9070 -1.6924
10027TIP3   OH254275   6.361   3.937  12.239  0.4009  0.7444 -0.1966
10027TIP3    H154276   6.267   3.934  12.220  0.2033  0.1537  0.8209
10027TIP3    H254277   6.377   4.027  12.266 -0.0219  0.6759  0.3011
10028TIP3   OH254278   6.685   6.198   9.482 -0.3838  0.9889 -0.2100
10028TIP3    H154279   6.732   6.120   9.451  0.7036  1.0933  1.0647
10028TIP3    H254280   6.748   6.269   9.470  0.0690  1.0466  2.0452
10029TIP3   OH254281   4.144   2.196   9.244  0.2119  0.1511  0.2686
10029TIP3    H154282   4.071   2.186   9.305 -1.6532  1.3792 -1.6369
10029TIP3    H254283   4.166   2.107   9.218 -0.0217 -0.2805  1.4816
10030TIP3   OH254284   5.224   4.432  10.299  0.1813 -0.0034 -0.1049
10030TIP3    H154285   5.195   4.490  10.369  2.0388 -1.0185  1.6043
10030TIP3    H254286   5.196   4.345  10.328  0.5270 -0.3836 -0.8925
10031TIP3   OH254287   1.655   6.526  10.551 -0.1034  0.9055  0.3757
10031TIP3    H154288   1.576   6.557  10.596 -0.9378 -0.4705 -0.0544
10031TIP3    H254289   1.695   6.605  10.514 -1.5334  1.5916  0.2181
10032TIP3   OH254290   3.726   4.877  12.254  0.2623  0.2315  0.2997
10032TIP3    H154291   3.675   4.832  12.322 -1.3668  0.8621 -0.4496
10032TIP3    H254292   3.802   4.820  12.240  0.4641 -0.0816  2.3832
10033TIP3   OH254293   4.489   1.001  11.618 -0.0889  0.2893 -0.4182
10033TIP3    H154294   4.496   0.919  11.666  0.0103  0.7670  0.4023
10033TIP3    H254295   4.504   1.069  11.684  0.6315  0.9482 -1.2379
10034TIP3   OH254296   0.781   6.799  11.612  0.2399  0.0922  0.5225
10034TIP3    H154297   0.859   6.766  11.569  0.1674 -0.1748  0.5966
10034TIP3    H254298   0.711   6.789  11.547  0.2712  0.3475  0.4495
10035TIP3   OH254299   5.980   0.571  10.150  0.3051  0.6338  0.1539
10035TIP3    H154300   5.908   0.630  10.172 -0.2462  0.3781 -0.9460
10035TIP3    H254301   5.938   0.492  10.118  1.0625  0.7815 -1.2922
10036TIP3   OH254302   7.096   3.687  10.751  0.4127  0.0161 -0.1515
10036TIP3    H154303   7.040   3.644  10.686  2.7599 -1.0897 -1.5711
10036TIP3    H254304   7.181   3.644  10.742  1.4574  1.3924  2.1277
10037TIP3   OH254305   6.674   1.082  10.643  0.2332  0.1890  0.1768
10037TIP3    H154306   6.694   1.107  10.553  1.4127 -1.9376 -0.2115
10037TIP3    H254307   6.595   1.028  10.637 -2.2838  3.4300  1.0058
10038TIP3   OH254308   1.860   6.006   9.715  0.4177 -0.5798 -0.5651
10038TIP3    H154309   1.803   5.950   9.662 -2.5246  0.4951  1.2490
10038TIP3    H254310   1.910   5.945   9.768 -0.7576 -1.5778 -0.5546
10039TIP3   OH254311   7.134   4.409  12.074 -0.0244 -0.0219 -0.1005
10039TIP3    H154312   7.042   4.389  12.091 -0.5974  2.0439 -0.4863
10039TIP3    H254313   7.170   4.429  12.160 -0.2617  0.3454 -0.0826
10040TIP3   OH254314   3.360   7.363  10.885 -0.0337  0.2492  0.4010
10040TIP3    H154315   3.294   7.350  10.817 -0.0517 -0.0926  0.4805
10040TIP3    H254316   3.425   7.421  10.845 -0.6245  0.9767  0.4917
10041TIP3   OH254317   7.187   2.006  10.156  0.2246  0.6156 -0.6039
10041TIP3    H154318   7.167   2.077  10.217  0.5135  1.5357 -1.5535
10041TIP3    H254319   7.109   1.998  10.101  0.2893  0.3764 -0.6634
10042TIP3   OH254320   2.003   3.906  11.931 -0.4246 -0.3470 -0.1539
10042TIP3    H154321   2.027   3.815  11.914 -0.4331 -1.1036  3.1875
10042TIP3    H254322   1.969   3.906  12.020  1.3031  3.2295  0.7000
10043TIP3   OH254323   2.443   7.403  11.303  0.1471  0.3109  0.1332
10043TIP3    H154324   2.462   7.348  11.379  1.3257  2.0855  1.2042
10043TIP3    H254325   2.530   7.426  11.268 -0.3678 -0.2164 -1.5993
10044TIP3   OH254326   0.965   5.281  11.621  0.2895 -0.5963 -0.1420
10044TIP3    H154327   1.058   5.305  11.620  0.2392 -0.2545  1.0777
10044TIP3    H254328   0.951   5.244  11.708 -1.1360  1.1980  0.4527
10045TIP3   OH254329   3.346   6.549  12.223  0.1895  0.2138  0.1293
10045TIP3    H154330   3.375   6.588  12.305  3.0178 -0.5136 -0.4008
10045TIP3    H254331   3.384   6.605  12.155 -1.7903  0.5989 -0.7285
10046TIP3   OH254332   1.931   6.550  11.534 -0.1945 -0.0559  0.2462
10046TIP3    H154333   1.980   6.478  11.573  2.3145  1.0832 -0.5436
10046TIP3    H254334   1.938   6.536  11.440 -0.0098  0.9525  0.0885
10047TIP3   OH254335   3.167   2.735  10.907 -0.0425  0.2087  0.1058
10047TIP3    H154336   3.234   2.709  10.844 -0.3665 -0.2295 -0.0633
10047TIP3    H254337   3.092   2.760  10.853 -0.2744 -0.0357  0.3086
10048TIP3   OH254338   5.875   0.290  10.423  0.1584 -0.2651 -0.1036
10048TIP3    H154339   5.800   0.313  10.367 -0.1855 -1.3350 -0.1037
10048TIP3    H254340   5.918   0.374  10.440 -1.2349  0.4255  0.1784
10049TIP3   OH254341   0.895   4.310  11.877 -0.2195 -0.4518  0.0810
10049TIP3    H154342   0.933   4.336  11.793 -1.2491 -0.1747 -0.3135
10049TIP3    H254343   0.910   4.386  11.934 -1.5185  0.2905 -0.5196
10050TIP3   OH254344   0.072   4.173  10.082 -0.0710 -0.2066  0.0077
10050TIP3    H154345   0.040   4.236  10.147  0.5604  0.0227  0.0992
10050TIP3    H254346   0.167   4.173  10.092 -0.0469 -1.0477 -0.1141
10051TIP3   OH254347   3.798   1.226  10.289 -0.1873  0.4401  0.3980
10051TIP3    H154348   3.771   1.200  10.201 -0.0364  1.8387 -0.0839
10051TIP3    H254349   3.858   1.299  10.275  0.2539  0.3272  1.6460
10052TIP3   OH254350   6.340   0.285  10.415 -0.5168 -0.3099  0.2158
10052TIP3    H154351   6.309   0.195  10.416 -3.0923  0.5077  0.2792
10052TIP3    H254352   6.377   0.299  10.502  3.2742 -2.2402 -0.8290
10053TIP3   OH254353   3.952   0.441  11.123 -0.7347 -0.2304  0.0748
10053TIP3    H154354   4.024   0.379  11.111 -0.4004  0.4696 -1.8501
10053TIP3    H254355   3.981   0.498  11.194 -1.2526 -2.4922  2.2336
10054TIP3   OH254356   5.679   1.176  11.266 -0.1561  0.2265 -0.8290
10054TIP3    H154357   5.595   1.220  11.276  0.2613  0.7497  0.5901
10054TIP3    H254358   5.743   1.247  11.255  0.1904 -0.1399 -1.2311
10055TIP3   OH254359   7.022   2.592  10.746  0.1264  0.2509 -0.4077
10055TIP3    H154360   7.113   2.573  10.769 -0.3068  1.1177  2.5724
10055TIP3    H254361   6.972   2.523  10.789 -0.8162  2.3683  2.2035
10056TIP3   OH254362   0.085   7.221  10.360 -0.4373 -0.5541 -0.6598
10056TIP3    H154363   0.100   7.302  10.408 -0.8751  0.3421 -1.9614
10056TIP3    H254364   0.073   7.154  10.427  2.6237 -0.1025  0.4937
10057TIP3   OH254365   7.444   7.058   9.567  0.2619  0.1557  0.2550
10057TIP3    H154366   7.369   7.061   9.507  0.2301 -0.3772  0.2625
10057TIP3    H254367   7.406   7.059   9.654  0.2567 -0.1974  0.2587
10058TIP3   OH254368   5.890   4.255  10.170  0.3416 -0.1002 -0.2428
10058TIP3    H154369   5.817   4.313  10.148  1.2495  0.7383 -1.1148
10058TIP3    H254370   5.871   4.174  10.121 -1.3931 -0.9544  1.6758
10059TIP3   OH254371   6.045   2.677  11.553  0.3582  0.2025  0.2071
10059TIP3    H154372   6.080   2.639  11.473  1.9254  1.0347  0.4530
10059TIP3    H254373   6.032   2.770  11.531 -3.0746 -0.2848 -0.2916
10060TIP3   OH254374   6.093   4.626  10.390 -0.2204  0.0797 -0.0920
10060TIP3    H154375   6.071   4.711  10.427  0.9996  0.7269 -0.7692
10060TIP3    H254376   6.067   4.633  10.298  1.7809  0.5308 -0.6786
10061TIP3   OH254377   0.554   2.548  11.892  0.2524  0.0681  0.1465
10061TIP3    H154378   0.544   2.492  11.815  2.0524 -0.2028  0.0523
10061TIP3    H254379   0.613   2.499  11.950 -0.3087  0.6878  1.2832
10062TIP3   OH254380   0.271   3.904  12.666 -0.2584 -0.1174  0.2792
10062TIP3    H154381   0.185   3.866  12.683  0.0480 -1.4705 -1.0327
10062TIP3    H254382   0.332   3.848  12.715 -0.0106  0.0568  0.1718
10063TIP3   OH254383   2.952   3.920  11.320  0.2423 -0.8096 -0.8919
10063TIP3    H154384   2.917   3.880  11.240  0.3272 -2.5380 -0.1115
10063TIP3    H254385   2.879   3.918  11.382  0.0311  0.9522 -1.0252
10064TIP3   OH254386   6.796   4.818  10.730  0.5105  0.1986 -0.1791
10064TIP3    H154387   6.767   4.886  10.669  1.0936  1.3042  0.7251
10064TIP3    H254388   6.721   4.802  10.787 -0.0403 -0.8484 -1.1661
10065TIP3   OH254389   0.728   1.201  10.279 -0.1833  0.1992  0.3354
10065TIP3    H154390   0.802   1.260  10.262 -0.3583 -0.0924 -1.7452
10065TIP3    H254391   0.762   1.114  10.259 -1.4417  0.2062 -2.1392
10066TIP3   OH254392   2.549   5.328   9.993 -0.3786 -0.2994  0.0623
10066TIP3    H154393   2.596   5.411   9.988 -0.2498 -0.0993  2.8768
10066TIP3    H254394   2.474   5.339   9.934  0.9277  0.8488 -1.4667
10067TIP3   OH254395   0.671   7.187  10.791  0.1374 -0.3099  0.2809
10067TIP3    H154396   0.578   7.192  10.768  0.3275 -1.1349 -0.7526
10067TIP3    H254397   0.672   7.167  10.885 -0.7570 -1.4953  0.0551
10068TIP3   OH254398   3.671   6.305  10.972  0.2948 -0.8383  0.4119
10068TIP3    H154399   3.692   6.393  10.942 -0.3569 -0.6015  0.6321
10068TIP3    H254400   3.591   6.315  11.023  0.5073 -1.4777  0.8900
10069TIP3   OH254401   6.795   6.042   9.756 -0.2374  0.4169 -0.3371
10069TIP3    H154402   6.722   6.017   9.812 -0.0327 -2.0115 -1.0462
10069TIP3    H254403   6.796   6.138   9.759 -1.5320  0.4183  2.0715
10070TIP3   OH254404   7.365   0.819  11.028 -0.0796 -0.1247 -0.3458
10070TIP3    H154405   7.312   0.761  10.974 -0.4513 -0.0105 -0.1043
10070TIP3    H254406   7.365   0.902  10.981  0.1557 -0.2146 -0.5082
10071TIP3   OH254407   4.267   3.893  12.446  0.3043  0.2118  0.3826
10071TIP3    H154408   4.196   3.942  12.405 -0.7579 -1.8009 -0.2707
10071TIP3    H254409   4.347   3.935  12.414 -0.5580  1.4524 -0.2002
10072TIP3   OH254410   0.860   1.058  12.211 -0.1151 -0.1959  0.7280
10072TIP3    H154411   0.893   1.146  12.231 -0.1774 -0.1482  0.6255
10072TIP3    H254412   0.894   1.039  12.124 -0.5801 -0.0316  0.5050
10073TIP3   OH254413   6.677   7.148  11.038  0.1921  0.3871  0.6721
10073TIP3    H154414   6.668   7.240  11.015  1.7123  0.5526  0.6255
10073TIP3    H254415   6.755   7.119  10.991 -0.9584 -1.2821 -0.3236
10074TIP3   OH254416   6.787   6.583  10.021  0.2558  0.1193  0.2559
10074TIP3    H154417   6.768   6.496  10.054  1.8250 -0.1757  0.4356
10074TIP3    H254418   6.852   6.619  10.082 -1.4143  2.0297  1.0790
10075TIP3   OH254419   5.925   1.331  11.545  0.7874 -0.1230  0.0814
10075TIP3    H154420   5.974   1.283  11.478 -0.6311  0.1080 -1.1873
10075TIP3    H254421   5.932   1.277  11.624  3.1565 -0.0074  0.0185
10076TIP3   OH254422   5.520   6.662   9.825 -0.2159 -0.0245  0.2605
10076TIP3    H154423   5.555   6.669   9.737  0.9295 -0.4501  0.6634
10076TIP3    H254424   5.585   6.706   9.880  0.1654 -1.5901  1.1322
10077TIP3   OH254425   4.130   7.229  10.676  0.3073  0.3213  0.1700
10077TIP3    H154426   4.075   7.301  10.645  0.9924  0.4660 -0.7634
10077TIP3    H254427   4.069   7.156  10.688 -0.0491  0.3185 -1.3547
10078TIP3   OH254428   4.840   4.616  10.418 -0.1770  0.3236 -0.4522
10078TIP3    H154429   4.745   4.609  10.423 -0.1480  0.7229  1.2087
10078TIP3    H254430   4.857   4.710  10.417  0.1568  0.3152 -3.2097
10079TIP3   OH254431   0.731   2.827  10.667 -0.4069  0.7098  0.3955
10079TIP3    H154432   0.786   2.776  10.726 -0.0102 -2.2487 -2.2438
10079TIP3    H254433   0.645   2.829  10.710  0.1422 -0.2995  1.6042
10080TIP3   OH254434   1.272   3.479   9.814 -0.4084 -0.1142  0.2730
10080TIP3    H154435   1.177   3.465   9.810 -0.1422 -2.0170 -0.0283
10080TIP3    H254436   1.309   3.392   9.826  1.3926  0.4691 -0.7271
10081TIP3   OH254437   0.764   2.358  10.940 -0.4625 -0.3697  0.1030
10081TIP3    H154438   0.824   2.300  10.987  1.1409  1.6709  0.7357
10081TIP3    H254439   0.814   2.385  10.863  0.1777  2.5876  1.4213
10082TIP3   OH254440   5.344   6.171  12.057 -0.4670 -0.1862  0.4213
10082TIP3    H154441   5.312   6.243  12.112 -1.8205 -0.6478  0.2807
10082TIP3    H254442   5.281   6.166  11.985 -0.1086 -1.1907  0.1649
10083TIP3   OH254443   6.773   5.390   9.855  0.1461  0.0893 -0.2526
10083TIP3    H154444   6.729   5.377   9.940 -0.8397  0.8987 -0.6177
10083TIP3    H254445   6.714   5.349   9.791  1.8695 -2.3798 -0.3998
10084TIP3   OH254446   1.646   0.276  11.953  0.6284 -0.3254 -0.2292
10084TIP3    H154447   1.708   0.247  11.886  1.6532 -0.8233  0.8983
10084TIP3    H254448   1.690   0.259  12.036 -0.4547  0.6393  0.5787
10085TIP3   OH254449   3.879   0.205  10.004  0.2564  0.1230 -0.2847
10085TIP3    H154450   3.819   0.138  10.037  1.6714 -1.3334 -0.5231
10085TIP3    H254451   3.873   0.276  10.068 -3.7655  1.3553 -1.7396
10086TIP3   OH254452   7.027   2.434  12.558  0.1443  0.4375  0.0762
10086TIP3    H154453   6.968   2.411  12.629 -0.7004  2.5854  0.1332
10086TIP3    H254454   7.020   2.529  12.550  0.6429  0.3406 -2.4944
10087TIP3   OH254455   0.112   6.330  10.065  0.0471  0.3087 -0.4393
10087TIP3    H154456   0.160   6.392  10.121 -0.2044  0.9530 -0.9193
10087TIP3    H254457   0.137   6.244  10.098  0.6516  0.6567  0.0434
10088TIP3   OH254458   2.146   4.741  10.851 -0.1475 -0.0944 -0.3463
10088TIP3    H154459   2.101   4.712  10.772 -0.7845  0.6956 -0.2916
10088TIP3    H254460   2.115   4.831  10.864 -0.9622 -0.5953  1.4509
10089TIP3   OH254461   0.168   6.791  11.220  0.2076  0.0537  0.6947
10089TIP3    H154462   0.148   6.704  11.187  0.7834 -1.0225  2.9693
10089TIP3    H254463   0.212   6.835  11.147 -0.7370 -1.2829 -0.7348
10090TIP3   OH254464   3.911   3.532  10.008 -0.1383 -1.1709  0.0857
10090TIP3    H154465   3.910   3.626   9.988  1.4119 -1.3893 -1.1933
10090TIP3    H254466   3.964   3.493   9.939 -0.3469 -2.9399  0.8669
10091TIP3   OH254467   2.778   3.735  11.212 -0.1718 -0.3029  0.5492
10091TIP3    H154468   2.753   3.673  11.143 -2.7758 -0.0092  1.0943
10091TIP3    H254469   2.728   3.707  11.289  2.4298 -0.4340  2.3078
10092TIP3   OH254470   6.792   1.254  10.847  0.4571  0.7463 -0.4464
10092TIP3    H154471   6.769   1.204  10.768 -0.6176 -1.0238  0.9245
10092TIP3    H254472   6.828   1.189  10.907 -0.3320  1.7382  1.1583
10093TIP3   OH254473   5.538   7.233  10.149  0.7467  0.6400  0.1629
10093TIP3    H154474   5.448   7.222  10.120  0.6194  1.8203  0.0584
10093TIP3    H254475   5.571   7.308  10.100  1.1964  1.3590  1.4901
10094TIP3   OH254476   5.490   6.648   9.513  0.3822  0.1920  0.5152
10094TIP3    H154477   5.398   6.640   9.535  0.7788 -0.6984  1.9685
10094TIP3    H254478   5.514   6.563   9.477  0.3112  0.9005 -1.3712
10095TIP3   OH254479   1.577   1.399  10.195  0.0208 -0.4593  0.2983
10095TIP3    H154480   1.627   1.400  10.114 -0.8020  0.0515 -0.2252
10095TIP3    H254481   1.640   1.421  10.263  1.2020 -2.9692  0.1251
10096TIP3   OH254482   3.747   5.642  10.985 -0.4625  0.7164  0.4493
10096TIP3    H154483   3.781   5.552  10.994  0.7153  0.9720 -1.0928
10096TIP3    H254484   3.794   5.691  11.053 -0.7072  0.2717  0.9437
10097TIP3   OH254485   0.996   5.087   9.577  0.0876 -0.2042 -0.3924
10097TIP3    H154486   1.063   5.033   9.620  0.4179  1.1323  0.8681
10097TIP3    H254487   0.913   5.057   9.614  0.1623 -0.6359 -0.5773
10098TIP3   OH254488   4.162   4.582  11.564 -0.0353  0.8349  0.2803
10098TIP3    H154489   4.253   4.558  11.583  0.0909  0.7987 -0.3235
10098TIP3    H254490   4.110   4.514  11.606  0.3337 -0.8497 -1.8166
10099TIP3   OH254491   6.728   1.880  11.161 -0.3952  0.1949 -0.3088
10099TIP3    H154492   6.651   1.869  11.105  0.3053 -0.7578 -1.1208
10099TIP3    H254493   6.801   1.849  11.107  0.4439  0.2984  0.7439
10100TIP3   OH254494   3.041   1.737  11.740  0.5333 -0.1612 -0.2247
10100TIP3    H154495   3.137   1.738  11.743  0.5104  0.4756  0.4046
10100TIP3    H254496   3.020   1.727  11.647  1.2099 -0.3864 -0.3563
10101TIP3   OH254497   5.964   2.358  10.979 -0.1399  0.0851  0.1065
10101TIP3    H154498   6.005   2.322  10.900 -0.8949 -0.0603 -0.2239
10101TIP3    H254499   5.870   2.348  10.964 -0.3536  1.6906  0.2432
10102TIP3   OH254500   1.280   2.245  11.334 -0.6858 -0.1780  0.4693
10102TIP3    H154501   1.202   2.271  11.286 -1.1391 -0.5824  0.9584
10102TIP3    H254502   1.330   2.326  11.346  0.0381 -0.2461 -1.6810
10103TIP3   OH254503   0.207   6.600   9.641  0.5034  0.2700 -0.2652
10103TIP3    H154504   0.252   6.682   9.659 -0.3974  1.1862 -1.9731
10103TIP3    H254505   0.115   6.626   9.629  0.3512 -0.8482 -1.7134
10104TIP3   OH254506   5.845   4.307  11.426  0.0082 -0.4736 -0.5081
10104TIP3    H154507   5.829   4.344  11.513  1.7444 -0.4937 -0.1352
10104TIP3    H254508   5.772   4.337  11.373  0.6597  2.4596  0.0959
10105TIP3   OH254509   3.728   7.197  12.559  0.7291 -0.0191  0.5069
10105TIP3    H154510   3.694   7.138  12.491 -2.1606  2.7985 -0.7452
10105TIP3    H254511   3.823   7.190  12.552  0.5226 -1.2099 -2.5513
10106TIP3   OH254512   3.745   2.341  10.299 -0.1124  0.2401  0.4865
10106TIP3    H154513   3.658   2.326  10.337  0.3004 -2.3764  0.5638
10106TIP3    H254514   3.728   2.361  10.207 -0.8489  1.8911  0.9280
10107TIP3   OH254515   3.435   1.438   9.786 -0.0509  0.2865 -0.3924
10107TIP3    H154516   3.478   1.394   9.860 -1.3587 -1.4807 -0.6076
10107TIP3    H254517   3.504   1.450   9.721  0.4093 -1.4646 -0.2862
10108TIP3   OH254518   6.763   4.543   9.531 -0.1196  0.0793 -0.6408
10108TIP3    H154519   6.790   4.635   9.521 -0.1791  0.0037 -1.5760
10108TIP3    H254520   6.830   4.493   9.485 -0.8592 -0.2424 -1.3854
10109TIP3   OH254521   4.691   5.451  12.242  0.4698 -0.4913  0.0169
10109TIP3    H154522   4.655   5.363  12.238  0.0781 -0.3860  1.0828
10109TIP3    H254523   4.676   5.480  12.331  0.9008  0.5348 -0.2234
10110TIP3   OH254524   1.697   2.238  11.439 -0.3193 -0.1048  0.0475
10110TIP3    H154525   1.639   2.239  11.363 -1.9558 -1.5486  1.2068
10110TIP3    H254526   1.689   2.326  11.477 -0.5208  0.1986 -0.6825
10111TIP3   OH254527   2.559   2.050  11.112 -0.6807  0.2113  0.1420
10111TIP3    H154528   2.595   1.969  11.148 -1.4727  0.4414  1.5330
10111TIP3    H254529   2.615   2.070  11.037  0.4470 -0.8166  0.6741
10112TIP3   OH254530   4.026   7.396  11.280  0.6775  0.0839  0.4534
10112TIP3    H154531   4.007   7.400  11.186  0.7186 -1.7022  0.3321
10112TIP3    H254532   3.943   7.417  11.322  0.9283  2.0282  0.0645
10113TIP3   OH254533   6.035   5.045  10.236 -0.1326  0.4667 -0.3352
10113TIP3    H154534   5.952   5.019  10.195  0.2509  2.4037 -2.5165
10113TIP3    H254535   6.053   5.132  10.202  2.3757  0.4845  0.8010
10114TIP3   OH254536   7.333   0.072  11.546  0.2112  0.2803 -0.1490
10114TIP3    H154537   7.311  -0.017  11.571  1.3956 -0.4968 -1.6687
10114TIP3    H254538   7.297   0.082  11.458 -0.3198  1.4820  0.1842
10115TIP3   OH254539   6.892   2.011  12.108  0.1238  0.5656  0.1833
10115TIP3    H154540   6.938   2.079  12.157 -0.2267  0.3944  0.7605
10115TIP3    H254541   6.866   1.947  12.174  0.1483  0.0399 -0.3048
10116TIP3   OH254542   4.487   2.770  10.956  0.2657 -0.0396  0.0348
10116TIP3    H154543   4.404   2.754  11.001 -0.2895  0.9963 -0.5658
10116TIP3    H254544   4.545   2.805  11.023  0.6582 -1.9924  0.7566
10117TIP3   OH254545   3.848   5.324  10.272 -0.3270 -0.2832 -0.2412
10117TIP3    H154546   3.856   5.417  10.251 -0.1950 -0.7435 -2.4536
10117TIP3    H254547   3.810   5.322  10.360 -0.6519  1.8502 -0.2937
10118TIP3   OH254548   1.058   5.234   9.931  0.0132 -0.1530  0.2546
10118TIP3    H154549   1.112   5.194   9.862 -1.6048 -1.5985 -0.2434
10118TIP3    H254550   0.983   5.175   9.940 -1.7794  2.0373  0.5259
10119TIP3   OH254551   5.319   4.210  11.104  0.0275 -0.1551  0.0679
10119TIP3    H154552   5.373   4.190  11.180  0.3727 -2.3563 -0.6588
10119TIP3    H254553   5.231   4.225  11.139  0.0335 -1.7940  0.9047
10120TIP3   OH254554   1.628   6.082  10.192  0.8675 -0.4052 -0.5655
10120TIP3    H154555   1.565   6.014  10.215 -0.1683  1.0872  1.2961
10120TIP3    H254556   1.706   6.034  10.163 -0.1133 -2.3383 -0.1597
10121TIP3   OH254557   3.644   2.455  11.366  0.0659  0.4511  0.1170
10121TIP3    H154558   3.727   2.416  11.341 -0.3035  0.7449 -1.6918
10121TIP3    H254559   3.663   2.500  11.449  1.2711 -0.8479  0.5865
10122TIP3   OH254560   1.532   4.200  11.172  0.4215 -0.6458 -0.6494
10122TIP3    H154561   1.588   4.127  11.198 -1.8062 -2.3883 -0.4247
10122TIP3    H254562   1.461   4.200  11.236 -0.7495  0.3256 -1.8869
10123TIP3   OH254563   7.191   0.687  12.000  0.3906 -0.2694  0.6986
10123TIP3    H154564   7.269   0.642  12.032 -0.1519 -0.9910  1.0305
10123TIP3    H254565   7.150   0.723  12.079 -0.0692 -0.6341  0.6276
10124TIP3   OH254566   7.395   6.879  11.005  0.5267 -0.3596 -0.0987
10124TIP3    H154567   7.428   6.796  10.972 -0.0769 -0.6857  0.0899
10124TIP3    H254568   7.300   6.866  11.011 -0.0096  1.3078 -2.8980
10125TIP3   OH254569   6.126   1.180  11.364 -0.5067 -0.6072 -0.3636
10125TIP3    H154570   6.160   1.243  11.300 -1.6175  0.7773  0.3375
10125TIP3    H254571   6.147   1.094  11.327 -0.5517  0.1529 -2.2636
10126TIP3   OH254572   2.406   7.052   9.500  0.3707 -0.2278  0.1622
10126TIP3    H154573   2.338   7.023   9.440 -0.0901 -0.2369  0.6845
10126TIP3    H254574   2.476   6.987   9.490  1.1631  0.8184 -1.8086
10127TIP3   OH254575   4.366   1.873  10.003  0.0143 -0.2332  0.2155
10127TIP3    H154576   4.459   1.852   9.994 -0.0579 -0.8944  0.8964
10127TIP3    H254577   4.363   1.969  10.007  0.5354 -0.1464 -1.1083
10128TIP3   OH254578   4.238   5.621  11.369  0.0039 -0.3176 -0.0824
10128TIP3    H154579   4.246   5.529  11.391  0.1296 -0.7169 -1.6557
10128TIP3    H254580   4.145   5.641  11.380 -0.2575 -0.9904 -0.9513
10129TIP3   OH254581   4.462   6.220  10.133  0.6307  0.5702  0.7978
10129TIP3    H154582   4.483   6.281  10.204  3.0853  0.1153  0.5561
10129TIP3    H254583   4.469   6.273  10.053  0.6274  0.4441  0.7152
10130TIP3   OH254584   1.074   4.120  10.782 -0.0412  0.2071 -0.3364
10130TIP3    H154585   1.085   4.191  10.846 -0.6201  0.8157 -0.8979
10130TIP3    H254586   0.985   4.131  10.748  0.7149  0.7933 -2.2868
10131TIP3   OH254587   5.166   5.974  11.654 -0.3623 -0.0210 -0.2879
10131TIP3    H154588   5.260   5.993  11.658 -0.4687  0.7914 -1.2084
10131TIP3    H254589   5.142   5.951  11.743  0.5442  0.6314  0.1382
10132TIP3   OH254590   3.831   6.317  11.808  0.5241  0.2725 -0.2624
10132TIP3    H154591   3.812   6.402  11.768  1.7088  1.2605  1.1946
10132TIP3    H254592   3.744   6.279  11.824 -0.0337  1.3245 -0.6650
10133TIP3   OH254593   5.751   1.469  10.196  0.8464  0.0735  0.6483
10133TIP3    H154594   5.694   1.505  10.264 -0.0840  0.7904 -0.4637
10133TIP3    H254595   5.840   1.489  10.225  0.5124 -0.2881  1.9914
10134TIP3   OH254596   3.289   2.323  10.860 -0.1766 -0.3323 -0.2229
10134TIP3    H154597   3.243   2.314  10.776 -1.2409 -0.0100  0.3221
10134TIP3    H254598   3.359   2.257  10.855  2.2322  2.1002 -2.9151
10135TIP3   OH254599   3.018   5.752  11.532 -0.3647 -0.0847 -0.1108
10135TIP3    H154600   3.100   5.703  11.527 -0.1678  0.2441 -0.1088
10135TIP3    H254601   2.973   5.732  11.450  0.3433  0.8406 -0.7397
10136TIP3   OH254602   1.560   5.076  12.553 -0.0845 -0.1494 -0.4833
10136TIP3    H154603   1.483   5.077  12.495  1.0074 -0.0354 -1.9838
10136TIP3    H254604   1.635   5.077  12.493  1.0948 -0.2252  0.9499
10137TIP3   OH254605   2.720   2.502  10.705  0.2445 -0.1846  0.2101
10137TIP3    H154606   2.672   2.461  10.777  1.0922 -0.1054  0.8368
10137TIP3    H254607   2.679   2.467  10.626 -1.0033  0.0817  0.7182
10138TIP3   OH254608   3.704   5.262  12.011 -0.1730  0.6142 -0.1976
10138TIP3    H154609   3.733   5.352  11.997  1.6697  0.3341  1.3397
10138TIP3    H254610   3.737   5.214  11.935  0.7196  0.8731  0.0171
10139TIP3   OH254611   0.791   0.087  10.698 -0.1746 -0.4411 -0.0123
10139TIP3    H154612   0.697   0.105  10.697  0.0648  0.8420 -0.6888
10139TIP3    H254613   0.817   0.091  10.606  0.5286 -0.9082  0.1613
10140TIP3   OH254614   2.837   6.678  11.092  0.2643 -0.5194 -0.4036
10140TIP3    H154615   2.846   6.758  11.040 -1.7720 -0.0643 -0.1422
10140TIP3    H254616   2.828   6.709  11.182 -0.5150 -1.0409 -0.2948
10141TIP3   OH254617   0.036   3.287  12.408 -0.2352  0.4568  0.4238
10141TIP3    H154618   0.014   3.203  12.447  2.1012 -0.6205 -0.3819
10141TIP3    H254619   0.007   3.352  12.472 -3.3072 -0.8232  0.4766
10142TIP3   OH254620   4.635   4.692  11.500  0.2716  0.8750 -0.3586
10142TIP3    H154621   4.609   4.661  11.587  0.3796  0.6358 -0.4116
10142TIP3    H254622   4.578   4.644  11.439  0.2094  1.0271 -0.4229
10143TIP3   OH254623   6.279   3.569  10.388 -0.1506  0.1466  0.0784
10143TIP3    H154624   6.305   3.652  10.428  2.0959 -1.3341  1.9630
10143TIP3    H254625   6.344   3.553  10.320 -0.6165 -0.0207 -0.3304
10144TIP3   OH254626   6.684   0.682  10.245  0.2838 -0.7970  0.0328
10144TIP3    H154627   6.608   0.633  10.212  0.1496 -0.5054 -0.0948
10144TIP3    H254628   6.735   0.617  10.293  0.3837 -1.1869 -0.5924
10145TIP3   OH254629   4.773   5.763  11.046 -0.1393  0.4637 -0.1647
10145TIP3    H154630   4.863   5.790  11.026 -0.6374  2.7845  0.3342
10145TIP3    H254631   4.736   5.838  11.093 -2.0368 -0.8423  0.5577
10146TIP3   OH254632   0.193   5.839  10.952  0.3155 -0.0829 -0.1337
10146TIP3    H154633   0.249   5.772  10.912  0.3861 -0.8107  1.1212
10146TIP3    H254634   0.130   5.789  11.005 -0.8223  0.7729 -0.6295
10147TIP3   OH254635   6.491   6.470  11.513  0.0085 -0.0517 -0.0407
10147TIP3    H154636   6.486   6.514  11.428 -0.5714  0.8487  0.4535
10147TIP3    H254637   6.515   6.380  11.491 -0.3240  0.1173 -1.1727
10148TIP3   OH254638   3.278   1.842  10.707  0.2946  0.1205 -0.6367
10148TIP3    H154639   3.234   1.916  10.666  0.6871  1.9807  2.0068
10148TIP3    H254640   3.371   1.853  10.685  0.2879  0.1119 -0.6682
10149TIP3   OH254641   0.328   6.500   9.890 -0.3642 -0.5140 -0.0244
10149TIP3    H154642   0.297   6.559   9.821 -0.3347  0.3191  0.6532
10149TIP3    H254643   0.252   6.489   9.947  0.2985  0.8496  1.1789
10150TIP3   OH254644   6.212   5.362  10.631  0.4534  0.1274  0.4456
10150TIP3    H154645   6.144   5.420  10.597 -0.5592 -0.0868  2.0163
10150TIP3    H254646   6.171   5.276  10.635  1.1188 -0.1899  0.5251
10151TIP3   OH254647   1.601   3.726  10.140 -0.4726  0.7557  0.6731
10151TIP3    H154648   1.585   3.803  10.085 -0.1420 -0.0581 -0.5857
10151TIP3    H254649   1.634   3.762  10.222  0.5553  1.9253 -0.2134
10152TIP3   OH254650   3.319   5.372  11.026  0.1219 -0.3616  0.7956
10152TIP3    H154651   3.295   5.458  10.991 -0.7532 -1.2495 -0.9065
10152TIP3    H254652   3.414   5.367  11.016  0.2885  0.6854  1.6343
10153TIP3   OH254653   0.470   2.839  10.755 -0.0567 -0.5568 -0.0723
10153TIP3    H154654   0.439   2.776  10.690 -1.0591  0.2264 -0.3913
10153TIP3    H254655   0.467   2.792  10.838 -0.1336 -1.1338 -0.3986
10154TIP3   OH254656   3.802   6.415  12.169 -0.4507  0.4566  0.4438
10154TIP3    H154657   3.831   6.472  12.240  0.4790  1.2161 -0.5127
10154TIP3    H254658   3.770   6.474  12.101 -1.7800 -0.2785  0.3936
10155TIP3   OH254659   2.778   3.493  10.026 -0.2892  0.2021 -0.3794
10155TIP3    H154660   2.777   3.408  10.070 -0.4532  0.7632  0.7408
10155TIP3    H254661   2.867   3.501   9.991 -0.7938 -1.2226 -2.1546
10156TIP3   OH254662   7.356   5.698  10.421  0.4837  0.5177  0.3714
10156TIP3    H154663   7.436   5.648  10.405  0.2250  0.2191 -0.0106
10156TIP3    H254664   7.357   5.716  10.515  0.5550 -0.2627  0.5284
10157TIP3   OH254665   0.254   5.309  12.085 -0.2947  0.3490  0.8723
10157TIP3    H154666   0.259   5.330  12.179  0.6714  2.9555  0.3293
10157TIP3    H254667   0.164   5.331  12.060 -0.8479 -1.2602  1.3234
10158TIP3   OH254668   6.586   0.853  12.122 -0.2976  0.0713 -0.3936
10158TIP3    H154669   6.671   0.857  12.077  0.8900  1.5676  1.7643
10158TIP3    H254670   6.607   0.824  12.211 -2.1103  0.1038  0.0846
10159TIP3   OH254671   3.564   4.892  10.882  0.2518  1.1784  0.2047
10159TIP3    H154672   3.569   4.872  10.975  0.1192 -0.7072 -0.1538
10159TIP3    H254673   3.552   4.807  10.839 -0.7010  2.0876 -1.4654
10160TIP3   OH254674   6.741   0.910  13.046 -0.1251  0.4282  0.6760
10160TIP3    H154675   6.737   0.987  12.989 -0.2959 -0.9872 -1.3469
10160TIP3    H254676   6.652   0.900  13.079 -0.4314  0.3178 -0.1666
10161TIP3   OH254677   5.935   2.350   9.884  0.1409 -0.4309 -0.7930
10161TIP3    H154678   5.942   2.445   9.890 -0.2307 -0.4763  0.9182
10161TIP3    H254679   5.867   2.326   9.946  0.4109 -1.8464 -0.9884
10162TIP3   OH254680   2.757   1.897  10.225 -0.7055  0.1319  0.0071
10162TIP3    H154681   2.809   1.885  10.146 -2.8806  0.0315 -1.5135
10162TIP3    H254682   2.710   1.814  10.235  0.8278 -0.5469  2.5060
10163TIP3   OH254683   0.273   0.592  11.959 -0.1148 -0.2860 -0.4864
10163TIP3    H154684   0.241   0.655  12.024  0.8943 -0.2095 -0.0463
10163TIP3    H254685   0.323   0.645  11.897  1.5830 -0.7397  0.4339
10164TIP3   OH254686   4.436   2.163  11.279  0.2953  0.0514 -0.4358
10164TIP3    H154687   4.425   2.073  11.248  1.5097 -0.0077 -0.7509
10164TIP3    H254688   4.354   2.206  11.258  1.0493  0.0788 -3.9385
10165TIP3   OH254689   4.111   1.226  11.807  1.1232 -0.9020 -0.2333
10165TIP3    H154690   4.075   1.275  11.733  1.9169  0.8850  0.5096
10165TIP3    H254691   4.121   1.291  11.876  2.2867 -2.1058  0.7815
10166TIP3   OH254692   5.402   6.330   9.637  0.0402 -0.0968  0.3269
10166TIP3    H154693   5.387   6.235   9.643 -1.1960 -0.1455 -2.2988
10166TIP3    H254694   5.337   6.368   9.696  0.7891 -0.8494  1.6895
10167TIP3   OH254695   5.835   5.574  10.715 -0.1698  0.1269 -0.6571
10167TIP3    H154696   5.752   5.537  10.686  0.1781 -0.9329 -0.3489
10167TIP3    H254697   5.890   5.573  10.636  0.0642 -0.7016 -0.4988
10168TIP3   OH254698   0.081   0.006  11.008  0.9001 -0.3231 -0.2646
10168TIP3    H154699   0.073   0.049  11.094  2.3028  0.4164 -0.4712
10168TIP3    H254700   0.001   0.030  10.962 -0.2457 -1.3848  1.1019
10169TIP3   OH254701   2.063   7.444  11.128  0.3866 -0.0520 -0.3345
10169TIP3    H154702   2.077   7.356  11.160 -1.8222 -1.3142 -2.4545
10169TIP3    H254703   1.992   7.479  11.182  1.0477  0.3432  0.2977
10170TIP3   OH254704   2.339   5.608   9.178  0.1390 -0.0408 -0.1700
10170TIP3    H154705   2.356   5.560   9.097  1.3097 -0.4204  0.2717
10170TIP3    H254706   2.342   5.700   9.152 -0.3351 -0.1696 -0.7010
10171TIP3   OH254707   2.002   6.350  10.597  0.0905 -0.4332 -0.1063
10171TIP3    H154708   1.995   6.445  10.602 -1.2762 -0.1713 -3.8499
10171TIP3    H254709   1.923   6.317  10.641 -1.0114  0.3724 -1.4095
10172TIP3   OH254710   0.079   6.839  12.496  0.2707 -0.4882  0.1928
10172TIP3    H154711   0.108   6.909  12.437  0.6000 -0.2532  0.6246
10172TIP3    H254712   0.049   6.769  12.438 -0.3584  0.1369 -0.2446
10173TIP3   OH254713   0.259   4.724  11.038 -0.1599 -0.3785  0.5987
10173TIP3    H154714   0.322   4.744  11.107  0.0050 -0.0876  0.3674
10173TIP3    H254715   0.305   4.746  10.956 -1.0270  1.1239  0.4900
10174TIP3   OH254716   5.599   6.200  10.470  0.5694  0.0531 -0.0429
10174TIP3    H154717   5.682   6.216  10.425  1.1445 -0.1006  0.9309
10174TIP3    H254718   5.537   6.180  10.400  1.8145 -1.8199 -0.6899
10175TIP3   OH254719   6.463   1.558  11.408  0.3921 -0.6769 -0.1048
10175TIP3    H154720   6.447   1.548  11.501 -1.5068  0.2429 -0.2927
10175TIP3    H254721   6.527   1.629  11.402 -1.0498  0.7364  0.4729
10176TIP3   OH254722   3.842   5.008  10.280 -0.2446  0.2897  0.4224
10176TIP3    H154723   3.859   5.102  10.288  0.0363  0.3225 -0.5410
10176TIP3    H254724   3.852   4.989  10.187 -0.9421 -0.5768  0.5140
10177TIP3   OH254725   6.969   3.620  10.341 -0.0982 -0.0564  0.7369
10177TIP3    H154726   7.052   3.592  10.379  0.0465 -1.9345 -0.8481
10177TIP3    H254727   6.994   3.677  10.268 -0.2777  0.6722  1.2308
10178TIP3   OH254728   3.659   6.006  10.368 -0.4110  0.5299  0.1012
10178TIP3    H154729   3.671   6.100  10.356 -1.4286  0.6504 -0.0849
10178TIP3    H254730   3.697   5.987  10.454  1.5414  0.7482 -0.6458
10179TIP3   OH254731   3.132   4.224  11.371  0.2442 -0.0973 -0.4178
10179TIP3    H154732   3.188   4.158  11.412 -0.0928 -0.1388 -0.0169
10179TIP3    H254733   3.103   4.184  11.290  0.7791 -0.0845 -0.6214
10180TIP3   OH254734   3.163   5.649  11.125 -0.3919  0.2155 -0.8815
10180TIP3    H154735   3.232   5.659  11.191  0.7650 -1.0303 -1.8308
10180TIP3    H254736   3.106   5.581  11.160  0.1037 -0.2982 -1.0543
10181TIP3   OH254737   3.585   0.332  11.685  0.2152 -0.1745 -0.3828
10181TIP3    H154738   3.490   0.332  11.695  0.1478  3.7204  0.1658
10181TIP3    H254739   3.619   0.330  11.774  0.7312 -1.6690 -0.5787
10182TIP3   OH254740   6.218   4.939   9.809  0.0034  0.4158 -0.1972
10182TIP3    H154741   6.292   4.892   9.770 -1.2013  0.5291 -2.7886
10182TIP3    H254742   6.241   5.032   9.798 -0.4427  0.4499 -0.8586
10183TIP3   OH254743   2.341   0.382  12.109  0.1631 -0.4916  0.7555
10183TIP3    H154744   2.322   0.464  12.156  1.1683  0.0095  0.3079
10183TIP3    H254745   2.289   0.316  12.156  0.3637  0.1655  1.9574
10184TIP3   OH254746   2.026   4.797   9.464 -0.1114  0.5972 -0.0408
10184TIP3    H154747   2.109   4.762   9.432 -0.6987  0.2979 -1.3057
10184TIP3    H254748   1.981   4.721   9.502  0.0516  0.6879  0.3321
10185TIP3   OH254749   4.007   2.377  12.142 -0.3939 -0.2434  0.0399
10185TIP3    H154750   4.062   2.304  12.112  0.6211 -0.0686  1.3353
10185TIP3    H254751   4.055   2.456  12.117 -0.3184 -0.0759  0.6797
10186TIP3   OH254752   4.038   1.052  10.971 -0.0791  0.6969  0.2553
10186TIP3    H154753   4.110   0.997  11.000 -0.3275  0.4958  0.5056
10186TIP3    H254754   4.028   1.032  10.878 -0.6627 -0.2745  0.5038
10187TIP3   OH254755   0.109   6.107   9.385 -0.1771  0.4305 -0.1825
10187TIP3    H154756   0.176   6.129   9.450 -0.0361  0.9908 -0.5071
10187TIP3    H254757   0.149   6.039   9.331  0.2251  0.9139 -0.5099
10188TIP3   OH254758   4.548   5.950  10.266  0.7385 -0.0601  0.3987
10188TIP3    H154759   4.545   5.998  10.348 -1.8911 -0.1665  0.4537
10188TIP3    H254760   4.615   5.994  10.214 -1.0609  3.3536  0.6974
10189TIP3   OH254761   6.433   5.404  12.216  0.6057 -0.2887 -0.1410
10189TIP3    H154762   6.371   5.475  12.228 -0.3865 -1.0553 -0.5705
10189TIP3    H254763   6.491   5.432  12.145  0.8690  0.4992  0.3775
10190TIP3   OH254764   5.842   2.123  10.423  0.0844 -0.5136 -0.2619
10190TIP3    H154765   5.920   2.112  10.369  0.1157  0.2980 -0.4047
10190TIP3    H254766   5.774   2.074  10.378 -0.0767  0.7568 -1.4726
10191TIP3   OH254767   2.593   4.085  10.852  0.3860  0.1682 -0.0822
10191TIP3    H154768   2.603   3.993  10.826 -2.1204 -0.3080  0.3562
10191TIP3    H254769   2.586   4.081  10.947  0.3169  0.8102 -0.0616
10192TIP3   OH254770   0.272   0.070  12.020  0.4301 -0.4202 -0.1939
10192TIP3    H154771   0.199   0.092  12.078 -0.1476 -0.7207 -0.7922
10192TIP3    H254772   0.346   0.119  12.055  0.4288 -1.5486  1.5685
10193TIP3   OH254773   2.427   3.677  12.178  0.1729 -0.3218  0.1495
10193TIP3    H154774   2.416   3.767  12.146  0.6648 -0.1685  0.3924
10193TIP3    H254775   2.499   3.683  12.241  0.0254 -0.8388  0.3735
10194TIP3   OH254776   4.814   7.244  11.489  0.1101  0.1043 -0.1076
10194TIP3    H154777   4.887   7.273  11.544  0.7097  0.9639 -1.3178
10194TIP3    H254778   4.753   7.318  11.488 -0.0227 -0.0069 -0.3748
10195TIP3   OH254779   6.937   5.381  11.790 -0.2309  0.4416  0.0524
10195TIP3    H154780   6.893   5.322  11.851  1.0705  0.1144  0.7207
10195TIP3    H254781   6.910   5.468  11.818  1.5507  0.4050  2.1938
10196TIP3   OH254782   1.293   1.127  11.949  0.4256 -0.1719  0.7398
10196TIP3    H154783   1.328   1.096  12.032  2.7379 -1.1963 -0.5214
10196TIP3    H254784   1.316   1.058  11.887 -1.7117  0.2998 -0.6994
10197TIP3   OH254785   3.852   1.020  11.555 -0.2838  0.2258 -0.0323
10197TIP3    H154786   3.805   0.986  11.631 -0.0492 -0.7521 -0.3115
10197TIP3    H254787   3.935   0.973  11.554 -0.4242 -0.0417 -1.0866
10198TIP3   OH254788   4.160   0.831  10.158 -0.3337 -0.1498 -0.5042
10198TIP3    H154789   4.107   0.819  10.079 -1.1987 -1.1039  0.1973
10198TIP3    H254790   4.216   0.753  10.160 -0.8721 -0.5271  0.2364
10199TIP3   OH254791   0.388   2.822  12.837  0.3912  0.1500  0.5181
10199TIP3    H154792   0.455   2.875  12.794  0.7912  0.6744  1.7367
10199TIP3    H254793   0.369   2.752  12.775  1.3676  0.5395 -0.2481
10200TIP3   OH254794   2.520   7.297  12.331 -0.2684 -0.1274  0.0158
10200TIP3    H154795   2.520   7.390  12.309 -2.6190 -0.4634 -1.7816
10200TIP3    H254796   2.465   7.290  12.409  0.2867  0.0311  0.4232
10201TIP3   OH254797   7.175   1.491   9.853 -0.2607 -0.2688 -0.3352
10201TIP3    H154798   7.264   1.466   9.829 -0.2981 -0.1812 -0.5623
10201TIP3    H254799   7.120   1.421   9.818 -0.3581  0.0896 -0.9084
10202TIP3   OH254800   5.663   2.012  10.198  0.2486 -0.0101  0.3846
10202TIP3    H154801   5.595   2.067  10.237  0.1271 -0.3234  0.6231
10202TIP3    H254802   5.675   2.047  10.109 -2.2556 -1.6900 -0.7090
10203TIP3   OH254803   7.108   7.035   9.534 -0.0968 -0.0429  0.2896
10203TIP3    H154804   7.110   6.970   9.605  0.4371  0.0347  0.3509
10203TIP3    H254805   7.065   6.990   9.461  2.0482 -1.1686 -0.3411
10204TIP3   OH254806   1.295   1.054  12.225 -0.0876  0.0983  0.3989
10204TIP3    H154807   1.280   0.984  12.288  1.9854  0.2975  1.2016
10204TIP3    H254808   1.249   1.130  12.262 -2.8198 -0.8648 -0.7605
10205TIP3   OH254809   7.455   6.770  11.570 -0.0021  0.4508 -0.2244
10205TIP3    H154810   7.459   6.787  11.476  0.3043 -0.6503 -0.4227
10205TIP3    H254811   7.411   6.685  11.577  1.9723 -0.5816  0.4792
10206TIP3   OH254812   0.504   3.883  10.844  0.0681 -0.2400  0.3009
10206TIP3    H154813   0.446   3.819  10.884  2.9849 -2.1286  1.8504
10206TIP3    H254814   0.478   3.885  10.752 -2.9979 -0.1858  1.0706
10207TIP3   OH254815   2.730   1.527   9.739  0.4286 -0.1542  0.5128
10207TIP3    H154816   2.758   1.443   9.703  2.2820  0.6459  0.0088
10207TIP3    H254817   2.646   1.545   9.696  0.6099 -1.1576 -0.2787
10208TIP3   OH254818   3.473   7.119  10.695 -0.0511  0.0592  0.1852
10208TIP3    H154819   3.552   7.172  10.691 -0.4224  0.6007 -0.1194
10208TIP3    H254820   3.427   7.138  10.613 -0.0014 -1.0343 -0.1117
10209TIP3   OH254821   3.454   0.971  11.580  0.8510  0.0770  0.1815
10209TIP3    H154822   3.382   0.944  11.637  0.7244 -0.0190 -0.0217
10209TIP3    H254823   3.504   0.891  11.564  0.1790 -0.1684 -0.8406
10210TIP3   OH254824   3.826   0.656  10.794  0.1707 -0.0339 -0.0339
10210TIP3    H154825   3.783   0.740  10.777  0.2624  0.5784  2.3219
10210TIP3    H254826   3.764   0.590  10.762 -1.0621  0.9110  0.3207
10211TIP3   OH254827   7.189   4.266   9.616  0.3079  0.0234 -0.1358
10211TIP3    H154828   7.106   4.304   9.643 -0.0541 -0.6677 -0.2676
10211TIP3    H254829   7.254   4.333   9.637 -0.1028  0.0080  1.3373
10212TIP3   OH254830   1.655   0.971  11.430 -0.4718 -0.2699 -0.3950
10212TIP3    H154831   1.578   1.022  11.403 -0.5893 -0.7758 -1.0329
10212TIP3    H254832   1.689   1.018  11.506 -1.1812  0.1803 -0.3474
10213TIP3   OH254833   0.997   5.568  11.025 -0.4946  0.1296 -0.0121
10213TIP3    H154834   0.987   5.553  11.119 -0.1341 -0.1319 -0.0115
10213TIP3    H254835   0.950   5.649  11.009 -0.9151 -0.0437  0.3192
10214TIP3   OH254836   3.991   1.619  11.751 -0.1028  0.3082  0.3756
10214TIP3    H154837   3.904   1.636  11.788  0.4215  2.0754  0.8993
10214TIP3    H254838   4.030   1.706  11.742  1.0108 -0.3374 -1.3872
10215TIP3   OH254839   0.663   3.008  11.655 -0.4219  0.6844  0.0917
10215TIP3    H154840   0.720   3.071  11.610 -0.7434  1.3860  0.6459
10215TIP3    H254841   0.578   3.052  11.659 -0.8149 -0.0536 -0.0789
10216TIP3   OH254842   3.696   2.138  11.392 -0.5210  0.0927 -0.7624
10216TIP3    H154843   3.600   2.137  11.389 -0.6040 -1.3728  0.7025
10216TIP3    H254844   3.723   2.098  11.309 -1.2647 -1.0996 -0.4691
10217TIP3   OH254845   2.035   2.100  10.997  0.0134  0.0101 -0.2270
10217TIP3    H154846   2.018   2.165  11.065  1.8404  1.0667 -0.7234
10217TIP3    H254847   2.119   2.062  11.020 -0.6640 -1.6444 -0.3889
10218TIP3   OH254848   6.379   2.743  10.621 -0.3482  0.5622  0.0987
10218TIP3    H154849   6.428   2.677  10.671 -0.2509 -0.2432 -1.0176
10218TIP3    H254850   6.433   2.758  10.543  0.2109  2.8449  0.8631
10219TIP3   OH254851   2.763   2.679  10.134 -0.3818 -0.8700  0.1002
10219TIP3    H154852   2.685   2.686  10.189 -1.7377  0.7620 -1.8651
10219TIP3    H254853   2.809   2.763  10.147 -0.3541 -0.7521 -0.6998
10220TIP3   OH254854   5.361   0.318  11.326  0.9357 -0.0694  0.1250
10220TIP3    H154855   5.319   0.294  11.243  3.3202 -0.2637 -1.1164
10220TIP3    H254856   5.361   0.413  11.326  0.8622 -0.0680 -0.0644
10221TIP3   OH254857   6.003   2.421  10.485 -0.8316 -0.1620 -0.1056
10221TIP3    H154858   6.008   2.515  10.497  0.5189 -0.4635  2.5125
10221TIP3    H254859   5.996   2.409  10.390 -0.1968  2.5200 -0.5753
10222TIP3   OH254860   3.059   2.420  12.590  0.2721  0.5145 -0.2614
10222TIP3    H154861   2.988   2.431  12.527 -1.2654 -1.2161  1.0737
10222TIP3    H254862   3.092   2.331  12.573 -0.0955  0.0617  1.2688
10223TIP3   OH254863   1.238   0.928  10.716  0.2426 -0.2768 -0.2109
10223TIP3    H154864   1.328   0.899  10.704  0.3200 -0.1933  0.1589
10223TIP3    H254865   1.240   1.021  10.696  0.2168 -0.2988 -0.3140
10224TIP3   OH254866   3.200   5.176  11.624  0.4626 -0.0806  0.3390
10224TIP3    H154867   3.268   5.110  11.614  0.4216  0.1754 -2.1041
10224TIP3    H254868   3.120   5.135  11.590 -0.4454 -0.0321  2.2671
10225TIP3   OH254869   6.313   5.580  10.446  0.4942  0.3850  0.3977
10225TIP3    H154870   6.307   5.521  10.521 -1.6161  0.5847  0.4482
10225TIP3    H254871   6.296   5.667  10.483  0.2268  0.5846 -0.1841
10226TIP3   OH254872   0.922   4.808  10.903 -0.1017  0.2041  0.1250
10226TIP3    H154873   0.877   4.887  10.876 -3.1615 -0.5842  2.3391
10226TIP3    H254874   1.011   4.836  10.925 -1.1307  3.0339  0.9743
10227TIP3   OH254875   2.891   4.388  11.197 -0.4185 -0.2494  0.0392
10227TIP3    H154876   2.910   4.294  11.196  0.4078 -0.1327  1.6272
10227TIP3    H254877   2.809   4.396  11.149 -0.3304 -1.7437 -0.4048
10228TIP3   OH254878   2.124   5.509  12.092 -0.0033 -0.2416  0.6999
10228TIP3    H154879   2.075   5.471  12.020  2.2548 -0.8388 -0.6015
10228TIP3    H254880   2.195   5.447  12.109  1.7040  1.6498  0.9062
10229TIP3   OH254881   1.628   7.134  12.251 -0.5988 -0.1682 -0.0336
10229TIP3    H154882   1.617   7.059  12.309  0.1883 -0.9600 -0.8666
10229TIP3    H254883   1.602   7.209  12.304 -0.7849 -0.9572  1.0362
10230TIP3   OH254884   5.253   3.923  11.493 -0.4883 -0.1986 -0.7083
10230TIP3    H154885   5.331   3.940  11.441  0.3054 -1.4637  0.0213
10230TIP3    H254886   5.193   3.879  11.433  0.2020 -1.1399 -0.7165
10231TIP3   OH254887   2.781   5.856  11.962 -0.2185  0.2113 -0.6477
10231TIP3    H154888   2.825   5.917  11.904 -0.5468  1.6395  0.5254
10231TIP3    H254889   2.830   5.862  12.044 -0.1220 -1.2994 -0.5746
10232TIP3   OH254890   5.522   2.739  10.202  0.5427 -0.3396  0.3855
10232TIP3    H154891   5.460   2.682  10.155  2.3899 -1.4593 -0.8472
10232TIP3    H254892   5.513   2.824  10.160  0.0447 -0.5734  0.0095
10233TIP3   OH254893   2.546   0.273  11.150 -0.1005 -0.1802 -0.2367
10233TIP3    H154894   2.466   0.221  11.158 -0.4292  0.3066 -0.2795
10233TIP3    H254895   2.563   0.305  11.239 -1.1598  1.4424 -0.5508
10234TIP3   OH254896   0.188   2.288  11.054 -0.1107 -1.0056  0.1698
10234TIP3    H154897   0.099   2.259  11.072 -0.6670 -0.7882 -2.0665
10234TIP3    H254898   0.229   2.215  11.009 -0.6050  0.4297 -2.8297
10235TIP3   OH254899   7.432   5.655  12.267  0.2641  0.3576  0.2696
10235TIP3    H154900   7.471   5.713  12.332 -0.0283  0.7911  0.0633
10235TIP3    H254901   7.461   5.690  12.183  0.4366 -0.0519  0.1520
10236TIP3   OH254902   6.542   3.284  11.218 -0.3551 -0.3752 -0.2842
10236TIP3    H154903   6.478   3.274  11.148  0.7293  0.3462 -1.4070
10236TIP3    H254904   6.594   3.203  11.214 -1.0716 -0.9063  0.5500
10237TIP3   OH254905   6.090   2.930  11.446 -0.0712  0.4154  0.7727
10237TIP3    H154906   6.177   2.953  11.478 -0.0039  1.9114 -0.3625
10237TIP3    H254907   6.092   2.951  11.352 -0.4011 -3.3119 -0.2182
10238TIP3   OH254908   1.377   0.755  10.336  0.1343 -0.2161 -0.1089
10238TIP3    H154909   1.459   0.707  10.346 -0.8519 -1.7948  0.6390
10238TIP3    H254910   1.402   0.834  10.288  2.2470 -0.2217  0.8614
10239TIP3   OH254911   2.588   4.764  10.384  0.2369  0.0654 -0.1799
10239TIP3    H154912   2.666   4.759  10.439 -0.5869 -0.3284  0.9910
10239TIP3    H254913   2.604   4.699  10.315  0.8598 -0.1471  0.1502
10240TIP3   OH254914   3.053   6.349  11.847 -0.1364 -0.0441 -0.9548
10240TIP3    H154915   2.965   6.333  11.813 -0.3761 -2.5341  0.5808
10240TIP3    H254916   3.041   6.367  11.940  1.0434 -2.8027 -0.1714
10241TIP3   OH254917   4.290   1.359  10.992  0.7342 -0.1829 -0.7772
10241TIP3    H154918   4.233   1.373  10.916  1.7650 -0.1039 -1.5562
10241TIP3    H254919   4.265   1.428  11.054  0.8335  0.6327 -1.6314
10242TIP3   OH254920   2.283   1.124  11.603 -0.3249  0.3354  0.5459
10242TIP3    H154921   2.340   1.059  11.562  0.6496  0.6422  1.3693
10242TIP3    H254922   2.233   1.161  11.530  0.4868  0.0093 -0.1971
10243TIP3   OH254923   0.380   3.016  12.114  0.0471  0.2829 -0.1707
10243TIP3    H154924   0.462   3.039  12.157  0.1240  1.6057 -0.9471
10243TIP3    H254925   0.395   2.929  12.078  1.0393  0.4150 -0.1038
10244TIP3   OH254926   4.927   5.032  11.815 -0.0673  0.4638 -0.2029
10244TIP3    H154927   4.956   5.031  11.906  0.3989  1.1209 -0.3397
10244TIP3    H254928   4.999   5.074  11.767 -0.4400  0.4016 -0.8260
10245TIP3   OH254929   3.637   2.384  11.852  0.9536 -0.0330 -0.2996
10245TIP3    H154930   3.603   2.387  11.942  1.4150 -1.2577 -0.0589
10245TIP3    H254931   3.732   2.378  11.863  1.0851  0.7851 -0.9049
10246TIP3   OH254932   6.451   4.792   9.744 -0.2312 -0.5087  0.0412
10246TIP3    H154933   6.538   4.827   9.759 -0.0936 -1.2812  1.1914
10246TIP3    H254934   6.465   4.700   9.721 -0.7612 -0.9746  1.4382
10247TIP3   OH254935   0.720   4.626  11.821 -0.2617 -0.4636 -0.2275
10247TIP3    H154936   0.660   4.699  11.813  0.4112  0.1405  0.1680
10247TIP3    H254937   0.692   4.580  11.900 -0.1348 -0.1232  0.0133
10248TIP3   OH254938   4.105   0.430  10.331 -0.0305 -0.5701 -0.1373
10248TIP3    H154939   4.063   0.345  10.320  0.5728 -0.7480 -1.2040
10248TIP3    H254940   4.154   0.443  10.250 -1.2728  1.4629 -0.6224
10249TIP3   OH254941   0.568   5.204  11.699 -0.3998 -0.2947 -0.0717
10249TIP3    H154942   0.628   5.130  11.697  0.1238  0.1191 -0.4137
10249TIP3    H254943   0.571   5.239  11.609  2.0032  2.1714  0.8327
10250TIP3   OH254944   0.402   0.943  11.008  0.1465 -0.3314  0.0100
10250TIP3    H154945   0.462   0.979  11.073 -0.5476 -0.4706  0.7471
10250TIP3    H254946   0.321   0.993  11.020 -0.8870 -2.1567  1.1577
10251TIP3   OH254947   0.305   6.116   9.591 -0.0967  0.2812 -0.2864
10251TIP3    H154948   0.341   6.190   9.641 -1.0902  0.7688 -0.2530
10251TIP3    H254949   0.272   6.056   9.658 -0.5762  0.4876 -0.3358
10252TIP3   OH254950   4.032   4.266  10.962 -0.0313 -0.3368  0.1322
10252TIP3    H154951   4.111   4.313  10.937 -0.5635  0.5317  0.0503
10252TIP3    H254952   3.975   4.334  10.998 -1.4479 -0.6312 -1.4590
10253TIP3   OH254953   0.299   6.725  12.577  0.2113 -0.4185 -0.1894
10253TIP3    H154954   0.221   6.779  12.562  0.7511  0.0851 -1.2182
10253TIP3    H254955   0.368   6.788  12.600  0.9601 -0.5948 -1.8493
10254TIP3   OH254956   1.284   3.057  10.069  0.0122 -0.0364 -0.0375
10254TIP3    H154957   1.214   2.994  10.086  1.3964 -1.7520 -0.3261
10254TIP3    H254958   1.310   3.039   9.979  0.1255  1.3050 -0.2812
10255TIP3   OH254959   0.813   0.268  11.605 -0.6551  0.2999  0.1260
10255TIP3    H154960   0.739   0.313  11.564  0.6592  0.6849 -1.9822
10255TIP3    H254961   0.808   0.178  11.573  1.0674  0.8859 -2.0742
10256TIP3   OH254962   4.094   3.315  10.046 -0.1460 -0.2586 -0.3227
10256TIP3    H154963   4.044   3.392  10.074  0.0043 -0.0241 -0.6953
10256TIP3    H254964   4.087   3.254  10.119 -0.7649 -0.1271 -0.2658
10257TIP3   OH254965   4.539   3.027   9.969 -0.6579  0.0908  0.1652
10257TIP3    H154966   4.461   2.975   9.989 -0.5537 -0.3957 -0.6633
10257TIP3    H254967   4.542   3.092  10.039 -3.4066  1.9834 -1.2758
10258TIP3   OH254968   1.609   5.311  10.734  0.0044 -0.8286  0.7556
10258TIP3    H154969   1.654   5.280  10.812  2.8490  1.2536  0.1020
10258TIP3    H254970   1.674   5.304  10.664 -1.6445 -0.3440 -0.9082
10259TIP3   OH254971   0.348   7.348  11.095 -0.0861 -0.0598 -0.7574
10259TIP3    H154972   0.277   7.386  11.042 -0.7646 -0.2112  0.0198
10259TIP3    H254973   0.325   7.370  11.185  1.1722  0.3919 -0.5294
10260TIP3   OH254974   4.482   1.930   9.333 -0.4776 -0.1517 -0.7618
10260TIP3    H154975   4.552   1.919   9.397 -1.8157 -1.9463  0.5056
10260TIP3    H254976   4.518   1.894   9.252  0.1507 -0.8270 -0.1994
10261TIP3   OH254977   6.552   6.409  12.758  0.0058 -0.0062  0.3660
10261TIP3    H154978   6.637   6.365  12.751  1.9779  3.1435  1.9025
10261TIP3    H254979   6.487   6.339  12.752  2.7446 -2.7194  0.3155
10262TIP3   OH254980   0.573   2.613  10.443  0.5557  0.5100  0.1514
10262TIP3    H154981   0.622   2.655  10.514  3.0018  1.2033 -1.7935
10262TIP3    H254982   0.525   2.542  10.486  2.2727  0.6145  2.4479
10263TIP3   OH254983   3.197   6.453  10.796 -0.0398 -0.1447  1.1611
10263TIP3    H154984   3.135   6.448  10.869  1.9808 -1.3837  2.9454
10263TIP3    H254985   3.174   6.380  10.739 -1.8911  1.0695  0.2692
10264TIP3   OH254986   2.138   6.038   9.584 -0.0344 -0.2405 -0.1045
10264TIP3    H154987   2.067   6.018   9.645  0.2865 -0.7309  0.1074
10264TIP3    H254988   2.202   6.087   9.636 -0.5234  0.8016 -0.4628
10265TIP3   OH254989   5.837   2.877  10.824  0.5368  0.4481  0.0314
10265TIP3    H154990   5.918   2.929  10.833  0.8127  0.1029 -0.4420
10265TIP3    H254991   5.786   2.924  10.758  0.1845  0.8668  0.5909
10266TIP3   OH254992   6.186   1.462  10.957 -0.2662 -0.1494 -0.2914
10266TIP3    H154993   6.157   1.473  10.867 -0.0368 -0.4198 -0.4001
10266TIP3    H254994   6.139   1.529  11.006 -0.2688  0.1034 -0.6370
10267TIP3   OH254995   0.934   2.724  10.816 -0.7251 -0.1019  0.6312
10267TIP3    H154996   0.995   2.718  10.743 -1.8113 -1.1066 -0.2327
10267TIP3    H254997   0.990   2.737  10.893  0.7461 -2.4951  0.0848
10268TIP3   OH254998   0.787   2.913   9.849  0.4426 -0.0643  0.7293
10268TIP3    H154999   0.819   3.003   9.863  0.1412  0.0947  0.4283
10268TIP3    H255000   0.778   2.877   9.937  0.8744  0.0912  0.8402
10269TIP3   OH255001   1.717   4.397  11.124 -0.0118 -0.2542  0.1534
10269TIP3    H155002   1.661   4.332  11.166 -0.5207  0.8623  1.2351
10269TIP3    H255003   1.681   4.481  11.151  1.9117  0.4917  0.5501
10270TIP3   OH255004   6.069   0.192  10.215  0.0021  0.0588 -0.2476
10270TIP3    H155005   6.131   0.120  10.229 -0.3245 -0.1851 -0.0237
10270TIP3    H255006   6.040   0.216  10.304  0.6320  0.9358 -0.2674
10271TIP3   OH255007   4.723   1.344   9.966 -0.6575 -0.8571 -0.0807
10271TIP3    H155008   4.741   1.336  10.059 -0.9464 -1.0488 -0.0432
10271TIP3    H255009   4.628   1.337   9.958 -0.6671 -0.4640 -0.3506
10272TIP3   OH255010   0.099   3.841  11.767 -0.6494 -0.3253  0.3699
10272TIP3    H155011   0.163   3.896  11.812 -0.4738 -0.5231  0.3634
10272TIP3    H255012   0.077   3.890  11.687 -2.6436  1.1212  1.7011
10273TIP3   OH255013   3.521   2.925  11.748  0.3678 -0.0767  0.1668
10273TIP3    H155014   3.488   2.904  11.660  0.4769 -1.6569  0.4859
10273TIP3    H255015   3.475   2.865  11.806  1.7161 -0.3742  0.9613
10274TIP3   OH255016   0.561   7.005  10.244 -0.4153 -0.3355 -0.0874
10274TIP3    H155017   0.655   6.988  10.253 -0.4158 -0.5091 -0.3910
10274TIP3    H255018   0.520   6.950  10.311 -0.3592 -0.9297 -0.5375
10275TIP3   OH255019   4.296   4.697  10.403 -0.3746 -0.1861 -0.3725
10275TIP3    H155020   4.287   4.615  10.355 -0.6295 -0.6303  0.4145
10275TIP3    H255021   4.206   4.727  10.416 -0.3491 -0.3769  0.3249
10276TIP3   OH255022   6.354   5.166  11.474 -0.3598 -0.0703 -0.4229
10276TIP3    H155023   6.268   5.207  11.473 -0.8051 -0.9775 -0.7197
10276TIP3    H255024   6.361   5.126  11.560  0.0704  0.6090 -0.1345
10277TIP3   OH255025   0.234   5.390  10.977  0.1728  0.0966  0.1360
10277TIP3    H155026   0.149   5.365  10.939  0.2675  0.4784 -0.3377
10277TIP3    H255027   0.298   5.365  10.910  0.1780  2.9057 -1.0651
10278TIP3   OH255028   6.958   4.337   9.432  0.1827  0.0599 -0.1163
10278TIP3    H155029   7.039   4.298   9.463 -0.7957 -0.2296  2.3293
10278TIP3    H255030   6.985   4.395   9.361  2.0435 -2.7023 -1.8694
10279TIP3   OH255031   1.308   2.659  10.930 -0.5934  0.3103  0.4166
10279TIP3    H155032   1.259   2.733  10.964 -3.1286 -1.3215  0.5713
10279TIP3    H255033   1.326   2.604  11.006  1.0310  0.6073  0.2723
10280TIP3   OH255034   1.702   6.492  10.829 -0.1528 -0.2750  0.2739
10280TIP3    H155035   1.702   6.470  10.736  0.0319  0.7087  0.0305
10280TIP3    H255036   1.702   6.588  10.831 -1.0754 -0.2749  1.2849
10281TIP3   OH255037   3.192   6.904  12.206 -0.0142  0.1511 -0.2085
10281TIP3    H155038   3.269   6.961  12.211  0.1530 -0.1798  3.0827
10281TIP3    H255039   3.147   6.918  12.289 -1.5296 -2.4057 -0.5021
10282TIP3   OH255040   5.892   0.051   9.988 -0.3651  0.3557 -0.0431
10282TIP3    H155041   5.880  -0.002  10.067 -1.4106  0.2834 -0.2294
10282TIP3    H255042   5.971   0.016   9.947 -0.0398  0.1238  0.7518
10283TIP3   OH255043   3.248   3.209  10.878  0.1213  0.4054  0.4934
10283TIP3    H155044   3.308   3.283  10.885  0.8993 -0.1634 -0.1083
10283TIP3    H255045   3.238   3.194  10.784  0.3549 -0.5631  0.6127
10284TIP3   OH255046   5.736   7.080   9.805 -0.1293 -0.0480  0.5605
10284TIP3    H155047   5.658   7.070   9.749 -0.5278 -1.2105  1.2718
10284TIP3    H255048   5.802   7.117   9.747 -1.0286  0.3732 -0.2328
10285TIP3   OH255049   3.445   3.747  11.837 -0.6164 -0.0971  0.4305
10285TIP3    H155050   3.410   3.699  11.912 -2.5209 -0.9408 -0.9198
10285TIP3    H255051   3.372   3.800  11.806  0.1196  0.2343 -0.8369
10286TIP3   OH255052   3.341   4.904  12.504  0.0357  0.1735 -0.1426
10286TIP3    H155053   3.374   4.814  12.498  2.3817  0.9050  0.4796
10286TIP3    H255054   3.296   4.907  12.588 -0.3414 -0.5091 -0.3152
10287TIP3   OH255055   3.366   4.657  12.078 -0.0039 -0.0166 -0.3719
10287TIP3    H155056   3.378   4.627  11.988  0.0208  1.7298 -0.9875
10287TIP3    H255057   3.410   4.590  12.132 -2.6655 -2.7638 -1.3433
10288TIP3   OH255058   4.942   5.530  11.446  0.7933  0.6502  0.0706
10288TIP3    H155059   4.868   5.473  11.467  0.9870  0.2695 -0.2741
10288TIP3    H255060   4.998   5.526  11.523  1.2549 -0.3526 -0.3015
10289TIP3   OH255061   3.290   3.783  11.254 -0.5011  0.2215 -0.3659
10289TIP3    H155062   3.343   3.717  11.210  0.2106  0.9669 -0.6622
10289TIP3    H255063   3.353   3.839  11.299 -0.9740  1.4913 -1.2196
10290TIP3   OH255064   4.199   1.731  11.526  0.0983  0.1056  0.6475
10290TIP3    H155065   4.271   1.705  11.583  0.0877  0.7882  0.9872
10290TIP3    H255066   4.152   1.797  11.576 -1.0032 -0.6151  0.5874
10291TIP3   OH255067   2.366   2.266  10.148  0.4393 -0.3885  0.2739
10291TIP3    H155068   2.315   2.188  10.168  0.6533 -0.6354 -0.1269
10291TIP3    H255069   2.455   2.243  10.172  0.2118  0.4411  2.0585
10292TIP3   OH255070   5.850   5.106  11.589 -0.2400 -0.0020 -0.1965
10292TIP3    H155071   5.779   5.154  11.630  0.7105  0.4139  1.0170
10292TIP3    H255072   5.857   5.025  11.640 -0.4162 -0.4517 -0.8696
10293TIP3   OH255073   1.708   2.418   9.625 -0.6322 -0.2306  0.2613
10293TIP3    H155074   1.797   2.383   9.629  0.0680  1.3876 -0.2375
10293TIP3    H255075   1.677   2.391   9.539 -0.7248 -1.0089  0.5314
10294TIP3   OH255076   2.393   0.976   9.672  0.2195  0.1197 -0.9087
10294TIP3    H155077   2.365   0.927   9.750  1.5356  0.4908 -0.1749
10294TIP3    H255078   2.311   0.995   9.626 -0.5043 -0.9828 -0.1533
10295TIP3   OH255079   4.243   3.158  11.442  0.1840 -0.1257  0.1374
10295TIP3    H155080   4.218   3.066  11.430  1.1190 -0.6375  1.8511
10295TIP3    H255081   4.166   3.199  11.481 -0.0727 -0.2899 -0.1945
10296TIP3   OH255082   3.010   0.417  10.300  0.6662  0.1597 -0.6880
10296TIP3    H155083   3.093   0.431  10.256  1.3579 -0.5472  0.3328
10296TIP3    H255084   3.026   0.443  10.391  0.0149 -0.7020 -0.3048
10297TIP3   OH255085   3.981   6.936  12.213  0.2677 -0.3460 -0.6268
10297TIP3    H155086   4.020   6.978  12.289  1.2294 -0.3242 -1.1135
10297TIP3    H255087   3.898   6.982  12.200  0.0184 -0.4621  0.4924
10298TIP3   OH255088   4.090   5.208  10.147 -0.0231 -0.0680  0.1588
10298TIP3    H155089   4.009   5.247  10.182  0.8223  0.4409  1.6118
10298TIP3    H255090   4.085   5.225  10.053 -1.7528 -0.3253  0.1642
10299TIP3   OH255091   3.267   3.343  11.826  0.2735 -0.6445  0.2006
10299TIP3    H155092   3.179   3.327  11.792  0.5515 -1.7073 -0.0671
10299TIP3    H255093   3.325   3.299  11.763  0.9923 -0.0206  0.4151
10300TIP3   OH255094   4.050   1.593  10.955  0.3735  0.3672  0.0175
10300TIP3    H155095   4.017   1.504  10.959  1.5996 -0.1635 -0.9742
10300TIP3    H255096   3.993   1.643  11.014 -0.5375 -0.9891  0.3224
10301TIP3   OH255097   5.071   5.899  10.068  0.5363 -0.2123 -0.0651
10301TIP3    H155098   5.166   5.913  10.067  0.4988  0.1789  0.9690
10301TIP3    H255099   5.033   5.987  10.074  0.1256 -0.3897 -0.0065
10302TIP3   OH255100   1.854   6.375  10.336 -0.1067 -0.2480 -0.0435
10302TIP3    H155101   1.885   6.324  10.411  0.2728 -0.0205 -0.0419
10302TIP3    H255102   1.771   6.412  10.364  1.2413  2.0014  1.2512
10303TIP3   OH255103   2.595   4.845  11.636 -0.4157 -0.1754  0.1306
10303TIP3    H155104   2.678   4.798  11.634 -0.7424 -0.7329 -1.5937
10303TIP3    H255105   2.550   4.812  11.714  0.1390 -1.3470 -0.0325
10304TIP3   OH255106   6.576   5.356  10.066  0.2029 -0.0300 -0.0647
10304TIP3    H155107   6.542   5.431  10.116  0.1745 -0.0098 -0.1144
10304TIP3    H255108   6.515   5.285  10.084 -0.6826  0.3893 -1.2775
10305TIP3   OH255109   3.735   7.087  12.249 -0.1177 -0.0133  0.3691
10305TIP3    H155110   3.662   7.145  12.225 -0.3804  0.0619  1.3049
10305TIP3    H255111   3.700   7.034  12.321  0.2985 -0.9636 -0.1166
10306TIP3   OH255112   6.129   4.197  10.884 -0.1454  0.6894  0.8845
10306TIP3    H155113   6.216   4.224  10.855 -0.6232  0.9026 -0.4360
10306TIP3    H255114   6.123   4.228  10.974  1.1809  0.5696  1.0281
10307TIP3   OH255115   6.592   6.185  12.540 -0.2687  0.0596 -0.2815
10307TIP3    H155116   6.656   6.251  12.515  0.0601  0.4596  1.4621
10307TIP3    H255117   6.599   6.118  12.472  1.1593  0.6523 -0.7675
10308TIP3   OH255118   0.736   6.861  11.009  0.0185 -0.2005 -0.2695
10308TIP3    H155119   0.807   6.860  10.945 -0.3113 -0.8865 -0.6387
10308TIP3    H255120   0.669   6.803  10.972 -0.8391  0.6152 -0.0412
10309TIP3   OH255121   0.798   0.010  11.168 -0.9141 -0.0608  0.0206
10309TIP3    H155122   0.741   0.019  11.244 -0.6507  1.3699  0.0905
10309TIP3    H255123   0.740  -0.015  11.096 -1.5929  1.0514  0.1626
10310TIP3   OH255124   5.861   5.579  10.275 -0.1959 -0.3000  0.1159
10310TIP3    H155125   5.818   5.664  10.275  1.0776  0.3671 -0.6500
10310TIP3    H255126   5.789   5.516  10.270 -1.1420  0.7306  0.3652
10311TIP3   OH255127   4.938   0.812  10.613  0.1940 -0.3436  0.5331
10311TIP3    H155128   4.893   0.883  10.568 -0.5407 -0.6707  0.7312
10311TIP3    H255129   4.986   0.855  10.684 -0.0895 -0.0289  0.5330
10312TIP3   OH255130   0.814   7.105  11.879 -0.2526 -0.3682 -0.2998
10312TIP3    H155131   0.784   7.128  11.967 -1.7304 -0.4798 -0.7459
10312TIP3    H255132   0.733   7.096  11.828  0.5920  0.3334 -1.8290
10313TIP3   OH255133   5.180   6.175  10.455  0.2843 -0.0797  0.2860
10313TIP3    H155134   5.222   6.161  10.370 -1.8125 -1.0501 -0.6673
10313TIP3    H255135   5.188   6.269  10.471  0.6651  0.1225 -1.0070
10314TIP3   OH255136   1.875   4.664  11.162  0.2614  0.8816  0.0358
10314TIP3    H155137   1.816   4.637  11.092 -0.1054 -0.6764  0.8999
10314TIP3    H255138   1.954   4.612  11.148 -0.6266 -1.1490  2.0054
10315TIP3   OH255139   5.094   0.355  10.760  0.6322  0.5278  0.4277
10315TIP3    H155140   5.180   0.314  10.759  0.7832  0.7673  2.0044
10315TIP3    H255141   5.035   0.287  10.794  0.0634  0.1685 -1.1798
10316TIP3   OH255142   1.952   1.775  11.828 -1.1275  0.3890 -0.1136
10316TIP3    H155143   1.861   1.747  11.838 -0.1847 -2.3251  2.5690
10316TIP3    H255144   1.952   1.866  11.861 -2.4591 -0.5448  2.8692
10317TIP3   OH255145   3.738   6.553  10.904 -0.4325 -0.1706  0.2162
10317TIP3    H155146   3.741   6.531  10.811 -0.2818  0.1766  0.1380
10317TIP3    H255147   3.803   6.623  10.915 -0.9116  0.2401  0.4605
10318TIP3   OH255148   0.849   3.043  11.878 -0.1334  0.5610 -0.6012
10318TIP3    H155149   0.834   3.133  11.910  0.4306  0.8981 -1.2647
10318TIP3    H255150   0.766   3.018  11.838 -0.2099  0.8894 -0.6557
10319TIP3   OH255151   2.663   3.470  11.894  0.7136 -0.2651  0.3408
10319TIP3    H155152   2.577   3.504  11.870  1.0165 -0.7312 -1.5135
10319TIP3    H255153   2.687   3.519  11.973 -1.2027 -0.0856  0.8642
10320TIP3   OH255154   3.891   6.289  10.803 -0.0896 -0.0926 -0.0498
10320TIP3    H155155   3.861   6.292  10.712  0.2626  1.2821 -0.1502
10320TIP3    H255156   3.814   6.261  10.853 -0.6660  0.3783 -0.6443
10321TIP3   OH255157   2.111   7.429  10.851  0.5575 -0.1912  0.2794
10321TIP3    H155158   2.086   7.422  10.944  1.7363  0.4438  0.6752
10321TIP3    H255159   2.035   7.397  10.803  0.1518 -1.1400  1.4836
10322TIP3   OH255160   6.433   4.416  10.924  0.1840 -0.5167  0.4415
10322TIP3    H155161   6.443   4.383  10.835  0.6438  1.0636 -0.1214
10322TIP3    H255162   6.499   4.368  10.974  0.9080 -0.4047 -0.3725
10323TIP3   OH255163   1.097   0.127  11.076 -0.3864 -0.1292  0.3678
10323TIP3    H155164   1.010   0.150  11.106 -1.3647 -2.9857 -0.0024
10323TIP3    H255165   1.087   0.109  10.982  0.6805 -0.2293  0.2532
10324TIP3   OH255166   2.606   3.947   9.719  0.0751 -0.0564  0.8555
10324TIP3    H155167   2.673   3.928   9.786  0.7109 -1.7314 -0.1902
10324TIP3    H255168   2.532   3.892   9.744  1.1207 -2.4545 -0.9707
10325TIP3   OH255169   5.525   5.158  12.076 -0.2552  0.7156  0.2342
10325TIP3    H155170   5.523   5.063  12.071 -0.3770  0.7320 -0.0716
10325TIP3    H255171   5.468   5.180  12.150 -0.6885  0.5756 -0.0547
10326TIP3   OH255172   0.222   2.429   9.757 -0.2392 -0.2148  0.1995
10326TIP3    H155173   0.169   2.370   9.704  1.1253 -2.0310  0.7226
10326TIP3    H255174   0.162   2.463   9.823 -1.0311 -1.2105  0.0118
10327TIP3   OH255175   4.737   5.242  11.794 -0.4067 -0.0308 -0.1039
10327TIP3    H155176   4.658   5.218  11.842 -0.3174  1.8786  1.1045
10327TIP3    H255177   4.786   5.160  11.785 -2.2283 -1.1468 -0.3927
10328TIP3   OH255178   2.626   4.350   9.681 -0.2028 -0.3663 -0.1259
10328TIP3    H155179   2.592   4.272   9.636  0.4087 -0.0464 -1.1737
10328TIP3    H255180   2.634   4.323   9.773  1.9121 -2.2237 -0.7779
10329TIP3   OH255181   1.308   5.915  11.486 -0.0158  0.0141 -0.0345
10329TIP3    H155182   1.322   6.005  11.515 -0.4656 -0.7699  3.0056
10329TIP3    H255183   1.377   5.865  11.529 -1.8388 -1.5231  1.2974
10330TIP3   OH255184   0.467   6.332  11.816 -0.3567 -0.4421  0.0967
10330TIP3    H155185   0.544   6.279  11.796 -0.0738  0.1757 -0.5202
10330TIP3    H255186   0.482   6.414  11.769 -0.5435  0.3848  1.4296
10331TIP3   OH255187   3.422   4.844  10.405 -0.4259  0.0608 -0.3040
10331TIP3    H155188   3.435   4.937  10.422  2.2854 -0.2323 -0.3607
10331TIP3    H255189   3.371   4.840  10.324 -0.3962  1.4900 -0.4030
10332TIP3   OH255190   3.066   2.221  11.761  0.0650 -0.4463  0.2260
10332TIP3    H155191   3.139   2.257  11.712 -0.2313 -1.2709 -0.8589
10332TIP3    H255192   3.057   2.131  11.729 -0.6183 -0.7737  1.2597
10333TIP3   OH255193   4.851   5.730   9.939  0.3621  0.1161  0.0736
10333TIP3    H155194   4.913   5.674   9.891 -0.5239 -1.7488  1.0030
10333TIP3    H255195   4.906   5.778  10.001  0.9115 -1.8407  1.1918
10334TIP3   OH255196   2.008   2.090   9.999 -0.4435  0.0577 -0.3859
10334TIP3    H155197   2.024   2.067  10.090 -0.4591  1.9670  0.1368
10334TIP3    H255198   1.960   2.015   9.964 -1.0208 -0.4340  1.3519
10335TIP3   OH255199   2.821   0.752  11.849 -0.2749 -0.0680  0.2044
10335TIP3    H155200   2.756   0.721  11.786 -0.4247 -1.2554  0.9209
10335TIP3    H255201   2.799   0.708  11.931  1.3652 -0.4564  0.4874
10336TIP3   OH255202   6.554   7.336  10.322  0.2946  0.1850  0.6032
10336TIP3    H155203   6.650   7.340  10.318  0.2198  2.4583 -0.1049
10336TIP3    H255204   6.536   7.253  10.367  2.4922 -1.9055 -2.0185
10337TIP3   OH255205   6.451   0.428  12.204  0.2668  0.2736  0.3630
10337TIP3    H155206   6.473   0.460  12.292  1.5083  1.3585 -0.2919
10337TIP3    H255207   6.535   0.397  12.169 -0.3855 -0.9785 -0.1249
10338TIP3   OH255208   3.804   4.815  12.631  0.1113  0.2828 -0.1276
10338TIP3    H155209   3.764   4.777  12.552  1.2154  0.0293 -0.5853
10338TIP3    H255210   3.855   4.889  12.598  1.1497 -0.2506  0.2352
10339TIP3   OH255211   4.280   5.640  11.088 -0.3632  0.5046  0.2073
10339TIP3    H155212   4.282   5.646  11.184 -0.5023 -2.7020  0.5051
10339TIP3    H255213   4.203   5.691  11.063  0.3362  2.3776  1.6441
10340TIP3   OH255214   1.162   1.243  10.322 -0.2032  0.2290  0.0518
10340TIP3    H155215   1.155   1.177  10.391  1.8324 -0.2340 -0.1288
10340TIP3    H255216   1.210   1.315  10.362 -1.1711  1.0144 -0.1736
10341TIP3   OH255217   1.042   0.578  11.596  0.4005 -0.9040  0.3185
10341TIP3    H155218   1.014   0.590  11.505 -0.4122  0.6106  0.7362
10341TIP3    H255219   0.961   0.561  11.644  0.7553 -1.1402  0.8403
10342TIP3   OH255220   1.172   4.779  10.426  0.2051  0.0047  0.0303
10342TIP3    H155221   1.257   4.738  10.443 -0.2596 -0.5869  1.0540
10342TIP3    H255222   1.140   4.804  10.513 -0.4474  0.6859 -0.3910
10343TIP3   OH255223   2.924   4.849   9.956  0.1314 -0.2163 -0.1766
10343TIP3    H155224   2.913   4.812   9.868 -0.4980  1.3743 -0.8040
10343TIP3    H255225   2.835   4.867   9.986  0.3442 -0.6946  0.7842
10344TIP3   OH255226   6.897   2.337  11.592  0.0764  0.7978 -0.3129
10344TIP3    H155227   6.971   2.282  11.567 -0.4903  0.2789 -0.9253
10344TIP3    H255228   6.914   2.363  11.682  0.4910 -0.1818 -0.0979
10345TIP3   OH255229   6.597   3.601   9.806  0.1759 -0.0523 -0.3298
10345TIP3    H155230   6.566   3.545   9.877 -0.6504 -0.1742 -0.7754
10345TIP3    H255231   6.692   3.586   9.803  0.1342 -0.4872  0.3577
10346TIP3   OH255232   1.502   3.734  11.795  0.4768  0.1518  0.2374
10346TIP3    H155233   1.483   3.746  11.702 -0.3727 -1.4179  0.1814
10346TIP3    H255234   1.416   3.728  11.837  0.8401  1.3585  1.2248
10347TIP3   OH255235   3.922   4.634  12.260  0.0266 -0.4347 -0.3528
10347TIP3    H155236   4.000   4.689  12.266 -1.5793  1.9431 -0.0508
10347TIP3    H255237   3.909   4.602  12.349  0.7191 -0.9917 -0.4402
10348TIP3   OH255238   7.362   6.716  10.677 -0.4649 -0.0972 -0.3592
10348TIP3    H155239   7.435   6.668  10.718  0.8337  0.2263 -2.1555
10348TIP3    H255240   7.285   6.688  10.726  0.8096 -0.6915  1.4291
10349TIP3   OH255241   0.542   7.381  10.408  0.1101 -0.0463  0.2110
10349TIP3    H155242   0.485   7.315  10.368  0.4078 -0.4710  0.4781
10349TIP3    H255243   0.484   7.453  10.431 -0.2857 -0.3917  0.2982
10350TIP3   OH255244   6.371   3.822  10.107 -0.3240  0.4060 -0.5932
10350TIP3    H155245   6.294   3.864  10.147 -0.7135 -0.2702 -0.6165
10350TIP3    H255246   6.380   3.739  10.154  1.1455  1.0139  0.2526
10351TIP3   OH255247   2.294   5.073   9.331  0.5335 -0.0992 -0.0488
10351TIP3    H155248   2.349   5.078   9.409 -0.4475 -0.7829  0.7082
10351TIP3    H255249   2.205   5.077   9.364  0.0967 -0.5056 -1.1242
10352TIP3   OH255250   4.420   3.620  11.200  0.8931 -0.3291 -0.5285
10352TIP3    H155251   4.504   3.621  11.246 -0.4091  0.7072  2.0542
10352TIP3    H255252   4.388   3.531  11.211  1.2717 -0.4975 -0.7713
10353TIP3   OH255253   6.280   1.864  11.901 -0.0171 -0.2386 -0.1146
10353TIP3    H155254   6.285   1.951  11.862  2.9641 -0.8476 -1.3158
10353TIP3    H255255   6.314   1.875  11.989 -0.2096 -0.0944 -0.0578
10354TIP3   OH255256   5.794   7.464  10.482  0.3352  0.0121  0.1139
10354TIP3    H155257   5.861   7.493  10.420 -1.2954 -0.2629 -1.9217
10354TIP3    H255258   5.727   7.533  10.478 -0.1253 -0.3699  1.0344
10355TIP3   OH255259   5.964   2.139  11.184  0.0212 -0.5095 -0.1183
10355TIP3    H155260   5.924   2.094  11.258  1.2452 -2.6509 -0.6830
10355TIP3    H255261   5.893   2.194  11.149 -1.5203 -1.8789  0.7051
10356TIP3   OH255262   7.028   1.305   9.711  0.3263  0.1772 -0.5396
10356TIP3    H155263   6.936   1.287   9.696  0.0230  1.8953 -0.9934
10356TIP3    H255264   7.074   1.259   9.641 -0.0815 -1.4751  0.2511
10357TIP3   OH255265   6.691   5.936  12.414  0.2458  0.0050 -0.1328
10357TIP3    H155266   6.707   5.859  12.469  0.0654  0.5367  0.6924
10357TIP3    H255267   6.760   5.933  12.348 -0.2487 -1.3117 -0.6354
10358TIP3   OH255268   4.192   1.325   9.705 -0.6250 -0.1107 -0.0791
10358TIP3    H155269   4.231   1.303   9.620  0.5954 -0.8523  0.6370
10358TIP3    H255270   4.184   1.241   9.750  0.2450  0.4398  1.1464
10359TIP3   OH255271   3.432   6.384  11.041 -0.2323  0.1300  0.3716
10359TIP3    H155272   3.447   6.479  11.051 -2.0231  0.5678 -0.6605
10359TIP3    H255273   3.361   6.365  11.102 -1.0832 -0.1804 -0.7056
10360TIP3   OH255274   1.211   7.379  10.185  0.0228 -0.8757 -0.4837
10360TIP3    H155275   1.245   7.368  10.096 -1.8766  1.5606 -1.6042
10360TIP3    H255276   1.136   7.320  10.190  0.6227 -1.6376 -0.1507
10361TIP3   OH255277   2.740   2.190  11.603  0.0584  0.4324 -0.5083
10361TIP3    H155278   2.812   2.129  11.622 -0.0369  0.0371 -1.3696
10361TIP3    H255279   2.669   2.134  11.572  0.0348  1.0049 -1.5052
10362TIP3   OH255280   1.794   3.561  11.239  0.6710  0.5273 -0.1639
10362TIP3    H155281   1.860   3.569  11.308 -2.1572 -1.4984  3.0568
10362TIP3    H255282   1.817   3.480  11.193  1.8539  1.2305 -0.8634
10363TIP3   OH255283   4.164   7.053   9.656  0.5216 -0.1052  0.4351
10363TIP3    H155284   4.115   6.971   9.662 -1.0102  0.7341  0.1374
10363TIP3    H255285   4.107   7.118   9.698  1.1772  1.0207 -0.3296
10364TIP3   OH255286   1.401   6.646  10.370  0.3092  0.3415  0.1791
10364TIP3    H155287   1.405   6.635  10.465  1.6671  1.4993  0.2862
10364TIP3    H255288   1.414   6.557  10.335  1.6125  0.1504  1.0673
10365TIP3   OH255289   4.448   1.295   9.862  0.0491 -0.7252 -0.0432
10365TIP3    H155290   4.470   1.213   9.819 -1.1321 -0.7446 -0.6649
10365TIP3    H255291   4.360   1.316   9.831  0.3075  0.7689  0.1210
10366TIP3   OH255292   3.180   0.433  12.234  0.0254 -0.1303 -0.2927
10366TIP3    H155293   3.103   0.486  12.214  0.2875  1.0929  1.6321
10366TIP3    H255294   3.156   0.383  12.312  0.7793 -0.6424 -0.3756
10367TIP3   OH255295   0.073   6.355  12.498  0.2756 -0.1841 -0.2175
10367TIP3    H155296   0.137   6.399  12.554 -0.6162  1.6253 -0.5491
10367TIP3    H255297   0.123   6.333  12.419  0.7349  0.2888 -0.0659
10368TIP3   OH255298   3.818   0.114  11.774 -0.0356  0.7988  0.1805
10368TIP3    H155299   3.755   0.073  11.714  0.6308 -0.4987  0.3228
10368TIP3    H255300   3.764   0.158  11.839 -0.9269 -1.8516  1.3912
10369TIP3   OH255301   0.565   6.744  10.624  0.7214  0.3127  0.4003
10369TIP3    H155302   0.558   6.714  10.715  0.5536  0.6514  0.5013
10369TIP3    H255303   0.638   6.806  10.625 -0.6122  1.9539  0.7659
10370TIP3   OH255304   0.860   6.870   9.826 -0.0733  0.0278  0.2061
10370TIP3    H155305   0.861   6.862   9.731  1.2784  0.4088  0.1562
10370TIP3    H255306   0.851   6.964   9.842 -0.7615 -0.0802  0.4683
10371TIP3   OH255307   3.319   0.055  11.108 -0.4813 -0.2605 -0.2333
10371TIP3    H155308   3.228   0.050  11.080 -0.1864 -1.5000 -1.0322
10371TIP3    H255309   3.361  -0.022  11.069  0.6582 -0.3238  1.0536
10372TIP3   OH255310   4.826   0.830  11.566  0.4408  0.3049 -0.2851
10372TIP3    H155311   4.771   0.874  11.500  0.7002  0.9971 -0.0507
10372TIP3    H255312   4.802   0.738  11.559 -1.6282  0.7233  0.6383
10373TIP3   OH255313   3.105   3.397  11.167  0.0368 -0.2398  0.2204
10373TIP3    H155314   3.114   3.464  11.234 -0.3785 -1.9638  2.0984
10373TIP3    H255315   3.168   3.329  11.192 -0.5365 -1.1858 -0.8075
10374TIP3   OH255316   3.228   5.141  10.649  0.2720  0.0709 -0.5617
10374TIP3    H155317   3.292   5.201  10.610  0.1125  0.2458 -0.5589
10374TIP3    H255318   3.266   5.116  10.733  0.8107 -0.6355 -1.0018
10375TIP3   OH255319   4.726   4.084  11.025  0.4609  0.2996 -0.1000
10375TIP3    H155320   4.679   4.009  11.059  0.4758 -0.2251 -1.1916
10375TIP3    H255321   4.728   4.147  11.098 -1.3813  0.0933  0.1606
10376TIP3   OH255322   4.975   6.096  10.592  0.2649  0.1382  0.1295
10376TIP3    H155323   5.055   6.142  10.569  1.2413 -1.6110 -0.1878
10376TIP3    H255324   4.961   6.033  10.521 -0.2835 -0.9180  1.1228
10377TIP3   OH255325   7.149   0.255  10.129 -0.3098  0.5739  0.4662
10377TIP3    H155326   7.102   0.251  10.046 -0.2859 -1.0454  0.5042
10377TIP3    H255327   7.084   0.231  10.194 -0.1475  1.1701  0.8629
10378TIP3   OH255328   5.783   5.951  10.683 -0.3602 -0.3600  0.2650
10378TIP3    H155329   5.834   5.978  10.607  0.7197 -2.7059  0.0877
10378TIP3    H255330   5.696   5.931  10.649 -0.7027  1.2117  0.1496
10379TIP3   OH255331   4.982   1.659  10.448 -0.5881  0.2205 -0.0691
10379TIP3    H155332   4.928   1.716  10.394 -1.0382 -1.8439 -1.9929
10379TIP3    H255333   4.956   1.570  10.422  2.3781 -0.8683  0.3011
10380TIP3   OH255334   0.232   4.623  10.370  0.2170  0.4549  0.0282
10380TIP3    H155335   0.198   4.595  10.285 -0.9162 -1.0241  0.9063
10380TIP3    H255336   0.208   4.715  10.376  0.7739  0.7251 -1.4516
10381TIP3   OH255337   0.231   6.349  11.505  0.4321 -0.5660 -0.3148
10381TIP3    H155338   0.160   6.354  11.442  1.5250  0.8845 -1.5054
10381TIP3    H255339   0.192   6.374  11.589 -0.6819 -0.9507 -0.7088
10382TIP3   OH255340   5.752   3.835  11.348 -0.0371 -0.2001 -0.0284
10382TIP3    H155341   5.698   3.834  11.427 -2.2968 -1.1078 -1.4622
10382TIP3    H255342   5.832   3.788  11.373 -1.1497 -1.4304  1.4339
10383TIP3   OH255343   3.914   1.994  11.489 -0.4505 -0.7695  0.3404
10383TIP3    H155344   3.978   2.015  11.421  0.5071  0.7474  1.6223
10383TIP3    H255345   3.833   2.036  11.460  0.0565  0.2036  0.2798
10384TIP3   OH255346   4.233   1.861   9.474  0.0912  0.1902 -0.1337
10384TIP3    H155347   4.318   1.867   9.430  0.2185 -1.9215 -0.2900
10384TIP3    H255348   4.254   1.854   9.567  0.2025 -1.4968 -0.2552
10385TIP3   OH255349   3.963   2.994  11.433 -0.8641 -0.0535 -0.1108
10385TIP3    H155350   3.966   2.938  11.510  0.1769 -0.1529 -0.2062
10385TIP3    H255351   3.951   3.082  11.468  3.3252  0.4682  0.5588
10386TIP3   OH255352   2.095   4.136  10.666 -0.0533 -0.3531 -0.0784
10386TIP3    H155353   2.150   4.142  10.587  0.9395 -2.0971  0.4415
10386TIP3    H255354   2.088   4.042  10.683 -1.7963 -0.0869  0.8821
10387TIP3   OH255355   7.214   1.435  10.586 -0.1689 -0.2028  0.0927
10387TIP3    H155356   7.294   1.422  10.637  0.4013 -1.1054 -0.9743
10387TIP3    H255357   7.243   1.483  10.509 -0.5428 -0.9998 -0.5607
10388TIP3   OH255358   0.378   6.095  11.558  0.4233 -0.6310  0.2597
10388TIP3    H155359   0.338   6.169  11.513 -1.4020 -1.0987  0.9947
10388TIP3    H255360   0.461   6.080  11.512  0.3033  1.1248 -0.6148
10389TIP3   OH255361   5.540   3.562  11.051  0.2294 -0.1986 -0.4022
10389TIP3    H155362   5.614   3.623  11.053  0.2638 -0.2492  0.1247
10389TIP3    H255363   5.508   3.566  10.961 -1.5019  2.6644  0.2274
10390TIP3   OH255364   2.315   3.885  10.128  0.5698  0.2902  0.0617
10390TIP3    H155365   2.332   3.899  10.035 -0.6650  0.3956 -0.1601
10390TIP3    H255366   2.396   3.913  10.171  1.0985  0.3953 -0.9560
10391TIP3   OH255367   2.724   6.402  11.890 -0.0848  0.3612 -0.0063
10391TIP3    H155368   2.741   6.321  11.937  0.3607  1.3928  1.6892
10391TIP3    H255369   2.630   6.402  11.875 -0.0551 -0.5646 -0.2303
10392TIP3   OH255370   1.291   3.719   9.695  0.2885  0.4975 -0.1608
10392TIP3    H155371   1.292   3.637   9.743 -2.6491  0.2676 -0.3105
10392TIP3    H255372   1.268   3.695   9.605  2.0870  1.2712 -0.8789
10393TIP3   OH255373   4.854   0.026  11.265  0.1572  0.9388  0.1029
10393TIP3    H155374   4.761   0.031  11.284  0.0308  1.1889 -0.5466
10393TIP3    H255375   4.885   0.117  11.266  0.9538  0.7212  2.8657
10394TIP3   OH255376   0.094   3.480  10.805  0.0028 -0.0994  0.1485
10394TIP3    H155377   0.095   3.386  10.823 -0.2553 -0.1509 -0.1126
10394TIP3    H255378   0.166   3.494  10.744 -1.8962 -0.6438 -2.3984
10395TIP3   OH255379   2.062   5.800  10.140  0.2774  0.1070  0.2456
10395TIP3    H155380   2.002   5.726  10.130 -0.2517  0.5561  0.0536
10395TIP3    H255381   2.013   5.865  10.190 -0.1104  1.2424 -1.5002
10396TIP3   OH255382   4.320   0.411  12.428  0.0377  0.3970  0.0014
10396TIP3    H155383   4.237   0.449  12.456 -0.8601  1.3033 -3.3934
10396TIP3    H255384   4.377   0.486  12.412  0.1271  0.0618 -1.4304
10397TIP3   OH255385   5.446   2.595  11.392  0.3755 -0.2701  0.0820
10397TIP3    H155386   5.541   2.604  11.385  0.1663  1.7643 -1.0450
10397TIP3    H255387   5.417   2.676  11.433 -1.0136 -0.0420 -1.2514
10398TIP3   OH255388   7.221   6.783  10.150  0.1541  0.2642 -0.6905
10398TIP3    H155389   7.234   6.781  10.245  0.5328  1.2978 -0.7050
10398TIP3    H255390   7.157   6.714  10.133 -0.9692  0.9483  0.4937
10399TIP3   OH255391   0.513   2.975  11.002 -0.0764  0.9957  0.5165
10399TIP3    H155392   0.419   2.991  11.009 -0.7903 -2.7663  2.4231
10399TIP3    H255393   0.523   2.930  10.918 -0.2343  0.2931  0.8649
10400TIP3   OH255394   6.308   6.554  10.302  0.0213  0.2027 -0.0741
10400TIP3    H155395   6.259   6.472  10.291 -0.8083  0.3876  1.8624
10400TIP3    H255396   6.400   6.528  10.291 -0.2346 -0.9914  0.4091
10401TIP3   OH255397   2.817   5.576  11.687  0.3381 -0.3264  0.8145
10401TIP3    H155398   2.824   5.585  11.782  0.5568  0.2170  0.7465
10401TIP3    H255399   2.882   5.636  11.652  0.0964 -0.3562  0.3135
10402TIP3   OH255400   7.263   2.215   9.813  0.0755 -0.4103 -0.2889
10402TIP3    H155401   7.259   2.121   9.795 -1.7682 -0.6420  1.1006
10402TIP3    H255402   7.178   2.236   9.853  0.9985  1.5424  0.8036
10403TIP3   OH255403   3.075   5.833  10.914  0.4166 -0.3475  0.1223
10403TIP3    H155404   3.110   5.758  10.962 -2.7748 -1.2376  1.2763
10403TIP3    H255405   3.021   5.880  10.977 -1.3802  0.2739 -1.7454
10404TIP3   OH255406   2.873   1.512  10.919 -0.9896  0.9031 -0.0068
10404TIP3    H155407   2.922   1.583  10.877  1.2416 -1.0676 -1.0161
10404TIP3    H255408   2.849   1.455  10.846  0.3154 -1.0817  1.0350
10405TIP3   OH255409   2.692   0.768  11.011  0.2630  0.4705  0.0528
10405TIP3    H155410   2.700   0.821  10.932  1.7513  1.2048  0.6640
10405TIP3    H255411   2.610   0.720  10.999  0.5524  0.3844 -2.0380
10406TIP3   OH255412   0.703   5.551   9.909 -0.2820 -0.3038 -0.3563
10406TIP3    H155413   0.746   5.624   9.954 -1.8394  0.7528 -0.4931
10406TIP3    H255414   0.754   5.538   9.829  0.5107  0.0551  0.0818
10407TIP3   OH255415   4.410   2.138  10.237  0.1608  0.2176 -0.5991
10407TIP3    H155416   4.440   2.216  10.190  0.4058  0.7417  0.4173
10407TIP3    H255417   4.380   2.170  10.321 -2.8040 -0.3409 -1.3300
10408TIP3   OH255418   1.964   4.621  10.661 -0.6628 -0.1802 -0.6324
10408TIP3    H155419   2.003   4.542  10.699 -0.9222 -0.5211 -1.0618
10408TIP3    H255420   1.886   4.637  10.713 -0.0909  0.3757  0.0873
10409TIP3   OH255421   5.346   2.176   9.600  0.3056 -0.3040 -0.2088
10409TIP3    H155422   5.283   2.247   9.592  1.6177  0.8618 -0.5255
10409TIP3    H255423   5.298   2.098   9.570 -0.5474  0.7955 -1.8497
10410TIP3   OH255424   4.918   2.337  10.437 -0.8541 -0.0801 -0.3168
10410TIP3    H155425   4.972   2.373  10.506 -1.2958 -0.4683  0.2376
10410TIP3    H255426   4.950   2.247  10.426 -1.6230 -0.4383  0.2798
10411TIP3   OH255427   0.918   0.771  11.970 -0.3709 -0.3954 -0.1921
10411TIP3    H155428   0.936   0.712  11.897 -0.6239 -1.0971  0.3047
10411TIP3    H255429   0.973   0.739  12.041  0.5408  0.8147 -0.3110
10412TIP3   OH255430   1.957   1.747  10.574  0.3043  0.3812 -0.1621
10412TIP3    H155431   1.869   1.727  10.541 -0.6360 -0.2098  2.4369
10412TIP3    H255432   1.942   1.807  10.647  2.0622  0.1979  0.3955
10413TIP3   OH255433   0.550   7.008   9.684 -0.2786 -1.1243 -0.1240
10413TIP3    H155434   0.557   7.066   9.760  0.8668 -0.1897 -0.8991
10413TIP3    H255435   0.471   6.957   9.699 -0.7771 -0.0388  1.0651
10414TIP3   OH255436   0.071   1.261  12.052  0.1434 -0.2726 -0.3206
10414TIP3    H155437   0.105   1.175  12.026 -1.0110 -1.0213  0.5351
10414TIP3    H255438   0.054   1.253  12.146 -1.7693  0.2413 -0.5771
10415TIP3   OH255439   6.862   3.818  11.617  0.0457  0.3669 -0.5502
10415TIP3    H155440   6.817   3.735  11.635  1.8211 -0.5896 -0.2417
10415TIP3    H255441   6.819   3.852  11.538 -1.5247 -0.2052  0.0158
10416TIP3   OH255442   0.010   5.185  10.525  0.0219  0.4649 -0.7940
10416TIP3    H155443   0.006   5.192  10.430 -0.3999 -1.5462 -0.9619
10416TIP3    H255444   0.019   5.091  10.542 -1.2741  0.6475  1.1878
10417TIP3   OH255445   6.104   5.732   9.748  0.6829 -0.2885  0.6117
10417TIP3    H155446   6.164   5.685   9.807 -0.1263 -1.4841  0.5114
10417TIP3    H255447   6.143   5.721   9.661 -1.1743 -3.7739  0.0574
10418TIP3   OH255448   4.027   2.900  10.170 -0.1199  0.0025 -0.1357
10418TIP3    H155449   4.052   2.901  10.078  2.5682  2.1186  0.4542
10418TIP3    H255450   4.017   2.808  10.192 -3.1237 -0.5186 -2.9668
10419TIP3   OH255451   4.766   2.765  12.001  0.5692 -0.1028 -0.2105
10419TIP3    H155452   4.682   2.747  11.959 -1.2689  0.7993  2.7395
10419TIP3    H255453   4.782   2.689  12.056  1.0940  0.2212  0.0975
10420TIP3   OH255454   3.711   3.323  10.073 -0.4635  0.1378  0.4007
10420TIP3    H155455   3.775   3.367  10.017 -0.8334 -0.8790 -0.8652
10420TIP3    H255456   3.764   3.277  10.138  0.0900 -0.3323 -0.3679
10421TIP3   OH255457   6.292   2.301  10.698  0.4282  0.3200  0.1541
10421TIP3    H155458   6.365   2.357  10.723 -0.4992  1.6572 -0.0572
10421TIP3    H255459   6.288   2.308  10.602  1.0003 -1.0252  0.0085
10422TIP3   OH255460   1.420   6.362  11.270  0.2449  0.3710  0.0230
10422TIP3    H155461   1.381   6.299  11.209  1.5211 -0.0223 -0.4232
10422TIP3    H255462   1.357   6.434  11.274 -0.3429 -0.0670 -0.9628
10423TIP3   OH255463   3.482   5.063  11.885 -0.0165  0.1852  0.2059
10423TIP3    H155464   3.555   5.004  11.901  0.3807  0.4108 -0.7228
10423TIP3    H255465   3.415   5.037  11.948  0.3322 -0.9427  0.1215
10424TIP3   OH255466   2.907   0.445  11.098  0.0946 -0.1645  0.1460
10424TIP3    H155467   2.835   0.382  11.104 -1.8009  1.9443  0.9094
10424TIP3    H255468   2.974   0.410  11.157 -2.3431  0.2106  3.4381
10425TIP3   OH255469   2.717   5.196  10.747  0.1073 -0.7820 -0.3816
10425TIP3    H155470   2.647   5.134  10.724 -0.9982  0.4855 -0.5432
10425TIP3    H255471   2.764   5.212  10.666 -2.1611  1.6697 -1.3559
10426TIP3   OH255472   6.502   3.565  10.232  0.6762 -0.3925  0.3157
10426TIP3    H155473   6.474   3.535  10.145 -1.0355 -0.4811  0.8764
10426TIP3    H255474   6.590   3.600  10.217 -0.7451  2.7152 -2.2023
10427TIP3   OH255475   2.358   6.259  11.640 -0.5087  0.5794  0.0860
10427TIP3    H155476   2.392   6.273  11.552 -0.0028  1.5494  0.4149
10427TIP3    H255477   2.315   6.174  11.636 -0.8775  0.8068 -1.2083
10428TIP3   OH255478   0.936   5.286  12.323 -0.6161  0.7151  0.5662
10428TIP3    H155479   0.958   5.333  12.404  0.4885  0.7326  0.2710
10428TIP3    H255480   0.841   5.273  12.328 -0.5664  0.7195  1.8601
10429TIP3   OH255481   4.788   7.437  10.135 -0.6202  0.4055  0.2836
10429TIP3    H155482   4.733   7.469  10.206 -0.7671  0.0841  0.3153
10429TIP3    H255483   4.731   7.380  10.083 -0.4493  0.4489  0.0425
10430TIP3   OH255484   1.725   0.409  10.284  0.8729  0.7129  0.3288
10430TIP3    H155485   1.705   0.460  10.363  0.1063 -2.2921  2.2361
10430TIP3    H255486   1.646   0.412  10.232  0.0577 -0.1743  1.4562
10431TIP3   OH255487   2.016   3.645  11.847 -0.6693  0.1215  0.2761
10431TIP3    H155488   1.930   3.640  11.804 -0.6031  2.0249 -0.1508
10431TIP3    H255489   2.014   3.576  11.912 -2.3804 -0.1313  0.0019
10432TIP3   OH255490   3.688   4.911  11.973 -0.2091 -0.1684 -0.0846
10432TIP3    H155491   3.733   4.828  11.958  0.7936  0.1004  1.2604
10432TIP3    H255492   3.656   4.905  12.064 -1.5938  0.2510 -0.5190
10433TIP3   OH255493   5.570   1.470  10.995  0.2280  0.8082 -0.4441
10433TIP3    H155494   5.556   1.565  10.990  0.2469  0.8538  0.2384
10433TIP3    H255495   5.550   1.438  10.907  0.7839  1.5204 -0.8422
10434TIP3   OH255496   6.077   7.234  11.587 -0.5247  0.0872 -0.2539
10434TIP3    H155497   6.042   7.187  11.511 -3.0361  0.1922  0.7665
10434TIP3    H255498   6.045   7.323  11.577  1.0785  0.7126 -0.2085
10435TIP3   OH255499   3.019   5.081  10.302 -0.2715  0.1353  0.0292
10435TIP3    H155500   2.978   5.065  10.217  0.7091  0.9834 -0.6181
10435TIP3    H255501   3.104   5.119  10.282  0.5450 -0.8798  1.3640
10436TIP3   OH255502   0.346   1.461  10.966  0.5008 -0.5231  0.1461
10436TIP3    H155503   0.412   1.486  10.902 -0.5636  0.7983 -0.4937
10436TIP3    H255504   0.389   1.397  11.023  1.6715 -1.2206 -1.4791
10437TIP3   OH255505   0.477   2.083  10.359 -0.4114 -0.0419 -0.4148
10437TIP3    H155506   0.541   2.106  10.425 -0.8405 -1.3330  0.5045
10437TIP3    H255507   0.526   2.033  10.294  0.3184  2.4522 -1.9192
10438TIP3   OH255508   1.451   4.887  10.673 -0.1430 -0.0523 -0.5300
10438TIP3    H155509   1.478   4.825  10.606 -0.8874  0.5933 -1.4577
10438TIP3    H255510   1.355   4.888  10.668 -0.3377 -1.2146  1.6924
10439TIP3   OH255511   3.651   3.513  11.430 -0.2848  0.3756 -0.0172
10439TIP3    H155512   3.652   3.565  11.510  1.6479  0.4385 -0.0279
10439TIP3    H255513   3.603   3.434  11.453 -0.6872  0.8634  0.8801
   7.47994   7.47994  30.00000
